<event>
 7    1  0.2899775E-009  0.4225911E+03  0.7561462E-02  0.1036226E+00
         -1   -1    0    0    0  501 -0.00000000000E+00  0.00000000000E+00  0.26193088657E+03  0.26193088657E+03  0.00000000000E+00 0.  1.
          1   -1    0    0  501    0  0.00000000000E+00 -0.00000000000E+00 -0.12552918419E+04  0.12552918419E+04  0.00000000000E+00 0. -1.
         25    2    1    2    0    0  0.17361208935E+01 -0.41828183147E+03 -0.69717759348E+00  0.43658991472E+03  0.12509021914E+03 0.  0.
          5    1    3    3  502    0  0.41641921816E+02 -0.18214284215E+03 -0.46823202637E+02  0.19266538169E+03  0.41800000000E+01 0. -1.
         -5    1    3    3    0  502 -0.39905800923E+02 -0.23613898932E+03  0.46126025044E+02  0.24392453302E+03  0.41800000000E+01 0. -1.
        -11    1    1    2    0    0  0.92319898261E+01  0.18668715159E+03 -0.55051904514E+03  0.58138501982E+03  0.00000000000E+00 0. -1.
         11    1    1    2    0    0 -0.10968110720E+02  0.23159467987E+03 -0.44214473263E+03  0.49924779398E+03  0.00000000000E+00 0.  1.
</event>
<event>
 7    1  0.2899775E-009  0.1467805E+03  0.7561462E-02  0.1204486E+00
          1   -1    0    0  501    0  0.00000000000E+00  0.00000000000E+00  0.15914764705E+03  0.15914764705E+03  0.00000000000E+00 0. -1.
         -1   -1    0    0    0  501 -0.00000000000E+00 -0.00000000000E+00 -0.26552379643E+03  0.26552379643E+03  0.00000000000E+00 0.  1.
         25    2    1    2    0    0  0.10900215378E+03  0.78407063215E+02 -0.16941120571E+03  0.24975213489E+03  0.12508731021E+03 0.  0.
          5    1    3    3  502    0  0.15151100768E+01  0.45637272170E+02 -0.11704790319E+03  0.12570895040E+03  0.41800000000E+01 0. -1.
         -5    1    3    3    0  502  0.10748704370E+03  0.32769791045E+02 -0.52363302514E+02  0.12404318449E+03  0.41800000000E+01 0. -1.
        -11    1    1    2    0    0 -0.69320387031E+02 -0.39995999201E+02  0.83837658055E+02  0.11590405048E+03  0.00000000000E+00 0. -1.
         11    1    1    2    0    0 -0.39681766747E+02 -0.38411064014E+02 -0.20802601729E+02  0.59015258108E+02  0.00000000000E+00 0.  1.
</event>
<event>
 7    1  0.2899775E-009  0.9926750E+02  0.7561462E-02  0.1281844E+00
         -1   -1    0    0    0  501 -0.00000000000E+00  0.00000000000E+00  0.64708302136E+02  0.64708302136E+02  0.00000000000E+00 0.  1.
          1   -1    0    0  501    0  0.00000000000E+00 -0.00000000000E+00 -0.20492236600E+03  0.20492236600E+03  0.00000000000E+00 0. -1.
         25    2    1    2    0    0  0.34414403548E+02 -0.15885537315E+02 -0.69212311725E+02  0.14789925679E+03  0.12508854702E+03 0.  0.
          5    1    3    3  502    0  0.34723915279E+02  0.47575327271E+02 -0.59023835348E+02  0.83489206467E+02  0.41800000000E+01 0. -1.
         -5    1    3    3    0  502 -0.30951173115E+00 -0.63460864586E+02 -0.10188476378E+02  0.64410050321E+02  0.41800000000E+01 0. -1.
        -11    1    1    2    0    0 -0.22007908024E+02 -0.24914944073E+02 -0.71753070684E+02  0.79079742073E+02  0.00000000000E+00 0. -1.
         11    1    1    2    0    0 -0.12406495524E+02  0.40800481388E+02  0.75131854150E+00  0.42651669278E+02  0.00000000000E+00 0.  1.
</event>
<event>
 7    1  0.2899775E-009  0.1213063E+03  0.7561462E-02  0.1240957E+00
          2   -1    0    0  501    0  0.00000000000E+00  0.00000000000E+00  0.10218959756E+03  0.10218959756E+03  0.00000000000E+00 0. -1.
         -2   -1    0    0    0  501 -0.00000000000E+00 -0.00000000000E+00 -0.16271573967E+03  0.16271573967E+03  0.00000000000E+00 0.  1.
         25    2    1    2    0    0  0.86295061560E+01  0.52986063626E+02  0.83599550322E+01  0.13637757613E+03  0.12508782158E+03 0.  0.
          5    1    3    3  502    0  0.39553019194E+02  0.82577231349E+02  0.14961200654E+02  0.92869534238E+02  0.41800000000E+01 0. -1.
         -5    1    3    3    0  502 -0.30923513038E+02 -0.29591167723E+02 -0.66012456221E+01  0.43508041895E+02  0.41800000000E+01 0. -1.
        -11    1    1    2    0    0 -0.28881526515E+02  0.18068308788E+02 -0.27916827380E+02  0.44044927146E+02  0.00000000000E+00 0. -1.
         11    1    1    2    0    0  0.20252020359E+02 -0.71054372414E+02 -0.40969269764E+02  0.84482833953E+02  0.00000000000E+00 0.  1.
</event>
<event>
 7    1  0.2899775E-009  0.1203888E+03  0.7561462E-02  0.1242457E+00
         -2   -1    0    0    0  501 -0.00000000000E+00  0.00000000000E+00  0.50639065213E+02  0.50639065213E+02  0.00000000000E+00 0.  1.
          2   -1    0    0  501    0  0.00000000000E+00 -0.00000000000E+00 -0.35378168300E+03  0.35378168300E+03  0.00000000000E+00 0. -1.
         25    2    1    2    0    0  0.64037965040E+02 -0.30942547252E+02 -0.12105660580E+03  0.18804837593E+03  0.12509671333E+03 0.  0.
          5    1    3    3  502    0 -0.12971064559E+01  0.43172614512E+02 -0.50417089297E+02  0.66520015199E+02  0.41800000000E+01 0. -1.
         -5    1    3    3    0  502  0.65335071496E+02 -0.74115161765E+02 -0.70639516499E+02  0.12152836073E+03  0.41800000000E+01 0. -1.
        -11    1    1    2    0    0 -0.15203076258E+02  0.45144541644E+02 -0.30699097010E+02  0.56670960158E+02  0.00000000000E+00 0.  1.
         11    1    1    2    0    0 -0.48834888782E+02 -0.14201994392E+02 -0.15138691498E+03  0.15970141212E+03  0.00000000000E+00 0. -1.
</event>
<event>
 7    1  0.2899775E-009  0.1293012E+03  0.7561462E-02  0.1228496E+00
         -2   -1    0    0    0  501 -0.00000000000E+00  0.00000000000E+00  0.14580531338E+03  0.14580531338E+03  0.00000000000E+00 0.  1.
          2   -1    0    0  501    0  0.00000000000E+00 -0.00000000000E+00 -0.15924049770E+03  0.15924049770E+03  0.00000000000E+00 0. -1.
         25    2    1    2    0    0 -0.76019884657E+02 -0.35866878967E+02  0.59650550361E+02  0.16208018453E+03  0.12508533963E+03 0.  0.
          5    1    3    3  502    0 -0.62555011965E+02  0.37225726978E+02  0.46523755055E+02  0.86491713218E+02  0.41800000000E+01 0.  1.
         -5    1    3    3    0  502 -0.13464872691E+02 -0.73092605945E+02  0.13126795306E+02  0.75588471313E+02  0.41800000000E+01 0.  1.
        -11    1    1    2    0    0  0.78509334316E+02  0.32909892580E+01 -0.77054877592E+02  0.11005453351E+03  0.00000000000E+00 0. -1.
         11    1    1    2    0    0 -0.24894496593E+01  0.32575889709E+02  0.39691429057E+01  0.32911093044E+02  0.00000000000E+00 0.  1.
</event>
<event>
 7    1  0.2899775E-009  0.7430875E+02  0.7561462E-02  0.1346025E+00
         -2   -1    0    0    0  501 -0.00000000000E+00  0.00000000000E+00  0.14276785101E+03  0.14276785101E+03  0.00000000000E+00 0.  1.
          2   -1    0    0  501    0  0.00000000000E+00 -0.00000000000E+00 -0.85685940380E+02  0.85685940380E+02  0.00000000000E+00 0. -1.
         25    2    1    2    0    0  0.26934047179E+01  0.24631160128E+02  0.25170430000E+02  0.12998625340E+03  0.12509567158E+03 0.  0.
          5    1    3    3  502    0  0.51722922915E+02  0.45097324754E+01 -0.24200584732E+02  0.57434651068E+02  0.41800000000E+01 0.  1.
         -5    1    3    3    0  502 -0.49029518197E+02  0.20121427653E+02  0.49371014732E+02  0.72551602333E+02  0.41800000000E+01 0.  1.
        -11    1    1    2    0    0 -0.11634160126E+02 -0.30519890253E+02 -0.24638560261E+02  0.40913030133E+02  0.00000000000E+00 0. -1.
         11    1    1    2    0    0  0.89407554082E+01  0.58887301247E+01  0.56550040894E+02  0.57554507859E+02  0.00000000000E+00 0.  1.
</event>
<event>
 7    1  0.2899775E-009  0.9242806E+02  0.7561462E-02  0.1297076E+00
          2   -1    0    0  501    0  0.00000000000E+00  0.00000000000E+00  0.71901021715E+02  0.71901021715E+02  0.00000000000E+00 0. -1.
         -2   -1    0    0    0  501 -0.00000000000E+00 -0.00000000000E+00 -0.18704470429E+03  0.18704470429E+03  0.00000000000E+00 0.  1.
         25    2    1    2    0    0  0.32449234043E+02 -0.22235318500E+02 -0.10349110745E+03  0.16704781984E+03  0.12508877893E+03 0.  0.
          5    1    3    3  502    0  0.72354809844E+02  0.57583921777E+01 -0.91144552617E+02  0.11658979140E+03  0.41800000000E+01 0.  1.
         -5    1    3    3    0  502 -0.39905575801E+02 -0.27993710678E+02 -0.12346554835E+02  0.50458028438E+02  0.41800000000E+01 0.  1.
        -11    1    1    2    0    0 -0.53010756374E+01 -0.15704824089E+02  0.26752248568E+02  0.31471029631E+02  0.00000000000E+00 0. -1.
         11    1    1    2    0    0 -0.27148158405E+02  0.37940142590E+02 -0.38404823689E+02  0.60426876529E+02  0.00000000000E+00 0.  1.
</event>
<event>
 7    1  0.2899775E-009  0.9873560E+02  0.7561462E-02  0.1282977E+00
         -2   -1    0    0    0  501 -0.00000000000E+00  0.00000000000E+00  0.10209330495E+03  0.10209330495E+03  0.00000000000E+00 0.  1.
          2   -1    0    0  501    0  0.00000000000E+00 -0.00000000000E+00 -0.31799951882E+03  0.31799951882E+03  0.00000000000E+00 0. -1.
         25    2    1    2    0    0  0.77705936870E+02 -0.54138879378E+02 -0.24122887137E+03  0.28776321185E+03  0.12508823617E+03 0.  0.
          5    1    3    3  502    0  0.53760516582E+02 -0.31131436470E+02 -0.22064734144E+02  0.66058189293E+02  0.41800000000E+01 0.  1.
         -5    1    3    3    0  502  0.23945420288E+02 -0.23007442908E+02 -0.21916413722E+03  0.22170502255E+03  0.41800000000E+01 0.  1.
        -11    1    1    2    0    0 -0.12927731511E+02 -0.51570384486E+01  0.40843024477E+02  0.43149437262E+02  0.00000000000E+00 0.  1.
         11    1    1    2    0    0 -0.64778205359E+02  0.59295917827E+02 -0.15520366985E+02  0.89180174657E+02  0.00000000000E+00 0. -1.
</event>
<event>
 7    1  0.2899775E-009  0.4290942E+02  0.7561462E-02  0.1487831E+00
          2   -1    0    0  501    0  0.00000000000E+00  0.00000000000E+00  0.20549307328E+03  0.20549307328E+03  0.00000000000E+00 0. -1.
         -2   -1    0    0    0  501 -0.00000000000E+00 -0.00000000000E+00 -0.55717576655E+02  0.55717576655E+02  0.00000000000E+00 0.  1.
         25    2    1    2    0    0  0.25641271752E+02 -0.92379376484E+01  0.87529138017E+02  0.15508951224E+03  0.12509433438E+03 0.  0.
          5    1    3    3  502    0  0.37391627550E+02  0.43960177109E+01  0.11550741099E+03  0.12156024504E+03  0.41800000000E+01 0.  1.
         -5    1    3    3    0  502 -0.11750355798E+02 -0.13633955359E+02 -0.27978272969E+02  0.33529267192E+02  0.41800000000E+01 0.  1.
        -11    1    1    2    0    0 -0.98391676316E+01 -0.20378109379E+01 -0.19588523263E+02  0.22015270535E+02  0.00000000000E+00 0.  1.
         11    1    1    2    0    0 -0.15802104120E+02  0.11275748586E+02  0.81834881875E+02  0.84105867169E+02  0.00000000000E+00 0. -1.
</event>
<event>
 7    1  0.2899775E-009  0.1187356E+03  0.7561462E-02  0.1245198E+00
          1   -1    0    0  501    0  0.00000000000E+00  0.00000000000E+00  0.22597647953E+03  0.22597647953E+03  0.00000000000E+00 0.  1.
         -1   -1    0    0    0  501 -0.00000000000E+00 -0.00000000000E+00 -0.97573938239E+02  0.97573938239E+02  0.00000000000E+00 0. -1.
         25    2    1    2    0    0 -0.85609155819E+02  0.13954010190E+02  0.12882935096E+02  0.15276384872E+03  0.12508869453E+03 0.  0.
          5    1    3    3  502    0  0.10960885335E+02 -0.65530419259E+01 -0.38935580123E+02  0.41189017533E+02  0.41800000000E+01 0. -1.
         -5    1    3    3    0  502 -0.96570041154E+02  0.20507052116E+02  0.51818515218E+02  0.11157483119E+03  0.41800000000E+01 0. -1.
        -11    1    1    2    0    0  0.80530528230E+02 -0.46022793061E+02  0.78199537037E+02  0.12131954109E+03  0.00000000000E+00 0. -1.
         11    1    1    2    0    0  0.50786275880E+01  0.32068782871E+02  0.37320069160E+02  0.49467027959E+02  0.00000000000E+00 0.  1.
</event>
<event>
 7    1  0.2899775E-009  0.1044283E+03  0.7561462E-02  0.1271250E+00
          3   -1    0    0  501    0  0.00000000000E+00  0.00000000000E+00  0.35296132803E+02  0.35296132803E+02  0.00000000000E+00 0. -1.
         -3   -1    0    0    0  501 -0.00000000000E+00 -0.00000000000E+00 -0.47968060416E+03  0.47968060416E+03  0.00000000000E+00 0.  1.
         25    2    1    2    0    0 -0.31555148343E+02  0.23371036580E+02 -0.36893530367E+03  0.39153812348E+03  0.12508761372E+03 0.  0.
          5    1    3    3  502    0 -0.60552481012E+01  0.65450921657E+02 -0.29745572981E+03  0.30466025795E+03  0.41800000000E+01 0.  1.
         -5    1    3    3    0  502 -0.25499900242E+02 -0.42079885077E+02 -0.71479573860E+02  0.86877865533E+02  0.41800000000E+01 0.  1.
        -11    1    1    2    0    0  0.33596624824E+02  0.27060893083E+02 -0.52618091659E+02  0.68041815848E+02  0.00000000000E+00 0. -1.
         11    1    1    2    0    0 -0.20414764812E+01 -0.50431929663E+02 -0.22831076027E+02  0.55396797636E+02  0.00000000000E+00 0.  1.
</event>
<event>
 7    1  0.2899775E-009  0.2673373E+03  0.7561462E-02  0.1102813E+00
         -2   -1    0    0    0  501 -0.00000000000E+00  0.00000000000E+00  0.16674954178E+03  0.16674954178E+03  0.00000000000E+00 0.  1.
          2   -1    0    0  501    0  0.00000000000E+00 -0.00000000000E+00 -0.46705325684E+03  0.46705325684E+03  0.00000000000E+00 0. -1.
         25    2    1    2    0    0  0.22100020387E+03 -0.12093326786E+03 -0.20951291540E+03  0.35072731997E+03  0.12509214951E+03 0.  0.
          5    1    3    3  502    0  0.18027337938E+03 -0.47220105682E+02 -0.97014533920E+02  0.21013691224E+03  0.41800000000E+01 0. -1.
         -5    1    3    3    0  502  0.40726824489E+02 -0.73713162180E+02 -0.11249838148E+03  0.14059040773E+03  0.41800000000E+01 0. -1.
        -11    1    1    2    0    0 -0.19199996505E+03  0.68165230471E+02 -0.90315155049E+02  0.22286164420E+03  0.00000000000E+00 0. -1.
         11    1    1    2    0    0 -0.29000238820E+02  0.52768037391E+02 -0.47564462013E+00  0.60213834453E+02  0.00000000000E+00 0.  1.
</event>
<event>
 7    1  0.2899775E-009  0.1108429E+03  0.7561462E-02  0.1259017E+00
          1   -1    0    0  501    0  0.00000000000E+00  0.00000000000E+00  0.19405690932E+03  0.19405690932E+03  0.00000000000E+00 0. -1.
         -1   -1    0    0    0  501 -0.00000000000E+00 -0.00000000000E+00 -0.12756988400E+03  0.12756988400E+03  0.00000000000E+00 0.  1.
         25    2    1    2    0    0 -0.43569566584E+02  0.64196805247E+02 -0.49508565875E+02  0.15530174630E+03  0.12509195566E+03 0.  0.
          5    1    3    3  502    0 -0.11325652935E+01  0.70983677285E+02  0.19641061183E+02  0.73778105353E+02  0.41800000000E+01 0.  1.
         -5    1    3    3    0  502 -0.42437001290E+02 -0.67868720385E+01 -0.69149627058E+02  0.81523640944E+02  0.41800000000E+01 0.  1.
        -11    1    1    2    0    0  0.54826175236E+02 -0.14885235172E+02  0.96771334451E+02  0.11221484255E+03  0.00000000000E+00 0. -1.
         11    1    1    2    0    0 -0.11256608652E+02 -0.49311570075E+02  0.19224256743E+02  0.54110204480E+02  0.00000000000E+00 0.  1.
</event>
<event>
 7    1  0.2899775E-009  0.1220086E+03  0.7561462E-02  0.1239820E+00
          1   -1    0    0  501    0  0.00000000000E+00  0.00000000000E+00  0.23598037104E+04  0.23598037104E+04  0.00000000000E+00 0. -1.
         -1   -1    0    0    0  501 -0.00000000000E+00 -0.00000000000E+00 -0.84775173112E+01  0.84775173112E+01  0.00000000000E+00 0.  1.
         25    2    1    2    0    0 -0.51065641160E+02 -0.45741488976E+02  0.18060544182E+04  0.18116788587E+04  0.12509093552E+03 0.  0.
          5    1    3    3  502    0 -0.46277838051E+02  0.31617455232E+02  0.46575614346E+03  0.46913490527E+03  0.41800000000E+01 0. -1.
         -5    1    3    3    0  502 -0.47878031092E+01 -0.77358944208E+02  0.13402982747E+04  0.13425439535E+04  0.41800000000E+01 0. -1.
        -11    1    1    2    0    0  0.66348283168E+02  0.48323765215E+01  0.28253862906E+03  0.29026457492E+03  0.00000000000E+00 0.  1.
         11    1    1    2    0    0 -0.15282642008E+02  0.40909112454E+02  0.26273314586E+03  0.26633779410E+03  0.00000000000E+00 0. -1.
</event>
<event>
 7    1  0.2899775E-009  0.8858044E+02  0.7561462E-02  0.1306326E+00
          2   -1    0    0  501    0  0.00000000000E+00  0.00000000000E+00  0.42039809798E+03  0.42039809798E+03  0.00000000000E+00 0. -1.
         -2   -1    0    0    0  501 -0.00000000000E+00 -0.00000000000E+00 -0.37127427290E+02  0.37127427290E+02  0.00000000000E+00 0.  1.
         25    2    1    2    0    0 -0.48422852166E+02  0.24501053210E+02  0.26537236310E+03  0.29835425609E+03  0.12509075430E+03 0.  0.
          5    1    3    3  502    0  0.19888578359E+02 -0.45640423124E+01  0.19456947649E+03  0.19568121937E+03  0.41800000000E+01 0. -1.
         -5    1    3    3    0  502 -0.68311430525E+02  0.29065095523E+02  0.70802886608E+02  0.10267303672E+03  0.41800000000E+01 0. -1.
        -11    1    1    2    0    0  0.59550210602E+02 -0.53019991802E+01  0.26993428581E+02  0.65597133814E+02  0.00000000000E+00 0.  1.
         11    1    1    2    0    0 -0.11127358436E+02 -0.19199054030E+02  0.90904879013E+02  0.93574135368E+02  0.00000000000E+00 0. -1.
</event>
<event>
 7    1  0.2899775E-009  0.1052527E+03  0.7561462E-02  0.1269623E+00
          1   -1    0    0  501    0  0.00000000000E+00  0.00000000000E+00  0.98752957166E+02  0.98752957166E+02  0.00000000000E+00 0. -1.
         -1   -1    0    0    0  501 -0.00000000000E+00 -0.00000000000E+00 -0.13373438866E+03  0.13373438866E+03  0.00000000000E+00 0.  1.
         25    2    1    2    0    0 -0.11713178396E+01  0.30909875710E+02 -0.39838346959E+02  0.13485838143E+03  0.12507156652E+03 0.  0.
          5    1    3    3  502    0  0.47887438076E+02 -0.21798930559E+02 -0.67882834548E+00  0.52785730145E+02  0.41800000000E+01 0. -1.
         -5    1    3    3    0  502 -0.49058755916E+02  0.52708806269E+02 -0.39159518614E+02  0.82072651281E+02  0.41800000000E+01 0. -1.
        -11    1    1    2    0    0  0.13511070299E+02  0.24958609844E+02  0.24132789522E+02  0.37254164278E+02  0.00000000000E+00 0. -1.
         11    1    1    2    0    0 -0.12339752460E+02 -0.55868485554E+02 -0.19275874055E+02  0.60374800120E+02  0.00000000000E+00 0.  1.
</event>
<event>
 7    1  0.2899775E-009  0.1390618E+03  0.7561462E-02  0.1214597E+00
         -2   -1    0    0    0  501 -0.00000000000E+00  0.00000000000E+00  0.20657742641E+03  0.20657742641E+03  0.00000000000E+00 0.  1.
          2   -1    0    0  501    0  0.00000000000E+00 -0.00000000000E+00 -0.11488920471E+03  0.11488920471E+03  0.00000000000E+00 0. -1.
         25    2    1    2    0    0 -0.19676575201E+02 -0.10022092800E+03  0.84736392529E+02  0.18237157852E+03  0.12509090459E+03 0.  0.
          5    1    3    3  502    0  0.32251864693E+02  0.13157321228E+02  0.29833113440E+02  0.46051980800E+02  0.41800000000E+01 0. -1.
         -5    1    3    3    0  502 -0.51928439894E+02 -0.11337824922E+03  0.54903279088E+02  0.13631959772E+03  0.41800000000E+01 0. -1.
        -11    1    1    2    0    0 -0.20943432949E+02  0.45768059786E+02 -0.33092479125E+02  0.60236657069E+02  0.00000000000E+00 0. -1.
         11    1    1    2    0    0  0.40620008151E+02  0.54452868209E+02  0.40044308294E+02  0.78858395527E+02  0.00000000000E+00 0.  1.
</event>
<event>
 7    1  0.3222560E-009  0.1761466E+03  0.7561462E-02  0.1171585E+00
         -1   -1    0    0    0  501 -0.00000000000E+00  0.00000000000E+00  0.22141477995E+03  0.22141477995E+03  0.00000000000E+00 0.  1.
          1   -1    0    0  501    0  0.00000000000E+00 -0.00000000000E+00 -0.21473207353E+03  0.21473207353E+03  0.00000000000E+00 0. -1.
         25    2    1    2    0    0  0.13970190352E+03 -0.10065661864E+03  0.80991050305E+02  0.22771506918E+03  0.12508487430E+03 0.  0.
          5    1    3    3  502    0  0.79178341318E+02 -0.40323167736E+02  0.10618638475E+03  0.13852143624E+03  0.41800000000E+01 0. -1.
         -5    1    3    3    0  502  0.60523562206E+02 -0.60333450905E+02 -0.25195334448E+02  0.89193632946E+02  0.41800000000E+01 0. -1.
        -11    1    1    2    0    0 -0.11788507196E+03  0.61519885905E+02 -0.14585927099E+02  0.13376971190E+03  0.00000000000E+00 0.  1.
         11    1    1    2    0    0 -0.21816831565E+02  0.39136732736E+02 -0.59722416780E+02  0.74662072398E+02  0.00000000000E+00 0. -1.
</event>
<event>
 7    1  0.2899775E-009  0.1485027E+03  0.7561462E-02  0.1202325E+00
         -2   -1    0    0    0  501 -0.00000000000E+00  0.00000000000E+00  0.14462897124E+02  0.14462897124E+02  0.00000000000E+00 0. -1.
          2   -1    0    0  501    0  0.00000000000E+00 -0.00000000000E+00 -0.17092234770E+04  0.17092234770E+04  0.00000000000E+00 0.  1.
         25    2    1    2    0    0  0.29310799322E+02  0.10268843465E+03 -0.11264956721E+04  0.11384400595E+04  0.12509689128E+03 0.  0.
          5    1    3    3  502    0  0.66623367266E+02  0.15526776575E+02 -0.53654508908E+03  0.54090466709E+03  0.41800000000E+01 0. -1.
         -5    1    3    3    0  502 -0.37312567944E+02  0.87161658077E+02 -0.58995058300E+03  0.59753539238E+03  0.41800000000E+01 0. -1.
        -11    1    1    2    0    0 -0.55325546533E+01  0.13698497414E+02 -0.24112224361E+02  0.28278213451E+02  0.00000000000E+00 0. -1.
         11    1    1    2    0    0 -0.23778244668E+02 -0.11638693207E+03 -0.54415268348E+03  0.55696810125E+03  0.00000000000E+00 0.  1.
</event>
<event>
 7    1  0.2899775E-009  0.1648110E+03  0.7561462E-02  0.1183370E+00
         -1   -1    0    0    0  501 -0.00000000000E+00  0.00000000000E+00  0.19182985659E+03  0.19182985659E+03  0.00000000000E+00 0.  1.
          1   -1    0    0  501    0  0.00000000000E+00 -0.00000000000E+00 -0.20477554604E+03  0.20477554604E+03  0.00000000000E+00 0. -1.
         25    2    1    2    0    0  0.12419115486E+03  0.89811257746E+01 -0.11437965895E+03  0.21032195634E+03  0.12509402612E+03 0.  0.
          5    1    3    3  502    0  0.75267043552E+02 -0.56433809669E+02 -0.52980096382E+02  0.10804751608E+03  0.41800000000E+01 0. -1.
         -5    1    3    3    0  502  0.48924111307E+02  0.65414935444E+02 -0.61399562565E+02  0.10227444026E+03  0.41800000000E+01 0. -1.
        -11    1    1    2    0    0 -0.12073061904E+03 -0.36343013779E+02  0.95255639511E+02  0.15802004266E+03  0.00000000000E+00 0.  1.
         11    1    1    2    0    0 -0.34605358194E+01  0.27361888005E+02  0.61783299814E+01  0.28263403629E+02  0.00000000000E+00 0. -1.
</event>
<event>
 7    1  0.2899775E-009  0.1080812E+03  0.7561462E-02  0.1264165E+00
          1   -1    0    0  501    0  0.00000000000E+00  0.00000000000E+00  0.15599588764E+03  0.15599588764E+03  0.00000000000E+00 0. -1.
         -1   -1    0    0    0  501 -0.00000000000E+00 -0.00000000000E+00 -0.13162248724E+03  0.13162248724E+03  0.00000000000E+00 0.  1.
         25    2    1    2    0    0  0.55106152885E+02 -0.69484379796E+02  0.38611091536E+02  0.15816029329E+03  0.12513630513E+03 0.  0.
          5    1    3    3  502    0  0.50312782311E+02 -0.51757991077E+02  0.82919654735E+02  0.11001548639E+03  0.41800000000E+01 0.  1.
         -5    1    3    3    0  502  0.47933705737E+01 -0.17726388719E+02 -0.44308563199E+02  0.48144806898E+02  0.41800000000E+01 0.  1.
        -11    1    1    2    0    0 -0.25601865229E+02  0.87017661192E+02 -0.23902827179E+02  0.93802313456E+02  0.00000000000E+00 0. -1.
         11    1    1    2    0    0 -0.29504287656E+02 -0.17533281396E+02  0.96651360517E+01  0.35655768137E+02  0.00000000000E+00 0.  1.
</event>
<event>
 7    1  0.2899775E-009  0.1096704E+03  0.7561462E-02  0.1261181E+00
          1   -1    0    0  501    0  0.00000000000E+00  0.00000000000E+00  0.17189719732E+03  0.17189719732E+03  0.00000000000E+00 0. -1.
         -1   -1    0    0    0  501 -0.00000000000E+00 -0.00000000000E+00 -0.83803563285E+02  0.83803563285E+02  0.00000000000E+00 0.  1.
         25    2    1    2    0    0  0.20769843611E+02  0.64632014374E+01  0.76148226347E+01  0.12719980413E+03  0.12509454533E+03 0.  0.
          5    1    3    3  502    0 -0.28848892373E+02  0.49192041631E+02  0.19705968922E+02  0.60480684207E+02  0.41800000000E+01 0. -1.
         -5    1    3    3    0  502  0.49618735984E+02 -0.42728840193E+02 -0.12091146287E+02  0.66719119924E+02  0.41800000000E+01 0. -1.
        -11    1    1    2    0    0 -0.46649150026E+02 -0.34778073615E+02  0.31110064093E+02  0.65981010075E+02  0.00000000000E+00 0.  1.
         11    1    1    2    0    0  0.25879306416E+02  0.28314872178E+02  0.49368747302E+02  0.62519946395E+02  0.00000000000E+00 0. -1.
</event>
<event>
 7    1  0.2899775E-009  0.1558180E+03  0.7561462E-02  0.1193501E+00
         -2   -1    0    0    0  501 -0.00000000000E+00  0.00000000000E+00  0.93012692160E+02  0.93012692160E+02  0.00000000000E+00 0.  1.
          2   -1    0    0  501    0  0.00000000000E+00 -0.00000000000E+00 -0.28521682593E+03  0.28521682593E+03  0.00000000000E+00 0. -1.
         25    2    1    2    0    0 -0.64316860900E+02  0.91815805524E+02 -0.15299058994E+03  0.22720106577E+03  0.12508957966E+03 0.  0.
          5    1    3    3  502    0 -0.10161487568E+03  0.76962808768E+02 -0.11893557111E+03  0.17439036490E+03  0.41800000000E+01 0. -1.
         -5    1    3    3    0  502  0.37298014785E+02  0.14852996756E+02 -0.34055018825E+02  0.52810700873E+02  0.41800000000E+01 0. -1.
        -11    1    1    2    0    0  0.87450640614E+02 -0.72742296611E+02 -0.20212471154E+02  0.11553181488E+03  0.00000000000E+00 0.  1.
         11    1    1    2    0    0 -0.23133779714E+02 -0.19073508913E+02 -0.19001072676E+02  0.35496637432E+02  0.00000000000E+00 0. -1.
</event>
<event>
 7    1  0.2899775E-009  0.1057723E+03  0.7561462E-02  0.1268605E+00
          1   -1    0    0  501    0  0.00000000000E+00  0.00000000000E+00  0.19705624779E+02  0.19705624779E+02  0.00000000000E+00 0. -1.
         -1   -1    0    0    0  501 -0.00000000000E+00 -0.00000000000E+00 -0.57801023052E+03  0.57801023052E+03  0.00000000000E+00 0.  1.
         25    2    1    2    0    0  0.56986941740E+01 -0.10012213174E+02 -0.34507314541E+03  0.36722728237E+03  0.12509069393E+03 0.  0.
          5    1    3    3  502    0  0.11197176332E+02  0.56550780829E+02 -0.13822158478E+03  0.14982004695E+03  0.41800000000E+01 0.  1.
         -5    1    3    3    0  502 -0.54984821583E+01 -0.66562994004E+02 -0.20685156063E+03  0.21740723542E+03  0.41800000000E+01 0.  1.
        -11    1    1    2    0    0 -0.21522026967E+02 -0.33896299465E+02 -0.84414062297E+02  0.93476685198E+02  0.00000000000E+00 0. -1.
         11    1    1    2    0    0  0.15823332793E+02  0.43908512640E+02 -0.12881739804E+03  0.13701188773E+03  0.00000000000E+00 0.  1.
</event>
<event>
 7    1  0.2899775E-009  0.1191127E+03  0.7561462E-02  0.1244568E+00
         -2   -1    0    0    0  501 -0.00000000000E+00  0.00000000000E+00  0.92646522359E+02  0.92646522359E+02  0.00000000000E+00 0.  1.
          2   -1    0    0  501    0  0.00000000000E+00 -0.00000000000E+00 -0.19103768430E+03  0.19103768430E+03  0.00000000000E+00 0. -1.
         25    2    1    2    0    0  0.60558992269E+02 -0.46877579558E+02 -0.57263474334E+02  0.15745450016E+03  0.12509162689E+03 0.  0.
          5    1    3    3  502    0  0.48895204501E+01  0.34177432991E+02  0.12348192872E+02  0.36904669126E+02  0.41800000000E+01 0. -1.
         -5    1    3    3    0  502  0.55669471819E+02 -0.81055012548E+02 -0.69611667206E+02  0.12054983104E+03  0.41800000000E+01 0. -1.
        -11    1    1    2    0    0 -0.37176068002E+02 -0.14069429830E+02  0.12584563085E+02  0.41693885834E+02  0.00000000000E+00 0.  1.
         11    1    1    2    0    0 -0.23382924267E+02  0.60947009388E+02 -0.53712250689E+02  0.84535820660E+02  0.00000000000E+00 0. -1.
</event>
<event>
 7    1  0.2899775E-009  0.1767916E+03  0.7561462E-02  0.1170945E+00
         -2   -1    0    0    0  501 -0.00000000000E+00  0.00000000000E+00  0.54038281360E+02  0.54038281360E+02  0.00000000000E+00 0. -1.
          2   -1    0    0  501    0  0.00000000000E+00 -0.00000000000E+00 -0.10594216425E+04  0.10594216425E+04  0.00000000000E+00 0.  1.
         25    2    1    2    0    0 -0.18178546013E+02 -0.13941585122E+03 -0.89239362861E+03  0.91202060960E+03  0.12509182567E+03 0.  0.
          5    1    3    3  502    0 -0.33451354754E+02 -0.15877980868E+03 -0.74055118377E+03  0.75813161717E+03  0.41800000000E+01 0. -1.
         -5    1    3    3    0  502  0.15272808741E+02  0.19363957457E+02 -0.15184244484E+03  0.15388899243E+03  0.41800000000E+01 0. -1.
        -11    1    1    2    0    0  0.53661815668E+02  0.69106838023E+02 -0.51537214090E+02  0.10154521140E+03  0.00000000000E+00 0.  1.
         11    1    1    2    0    0 -0.35483269654E+02  0.70309013199E+02 -0.61452518434E+02  0.99894102850E+02  0.00000000000E+00 0. -1.
</event>
<event>
 7    1  0.2899775E-009  0.1194405E+03  0.7561462E-02  0.1244023E+00
          4   -1    0    0  501    0  0.00000000000E+00  0.00000000000E+00  0.15622992980E+03  0.15622992980E+03  0.00000000000E+00 0. -1.
         -4   -1    0    0    0  501 -0.00000000000E+00 -0.00000000000E+00 -0.92451334086E+02  0.92451334086E+02  0.00000000000E+00 0.  1.
         25    2    1    2    0    0  0.18013696786E+02 -0.49861861713E+02  0.35303272549E+02  0.14037303583E+03  0.12509024587E+03 0.  0.
          5    1    3    3  502    0 -0.22130523978E+02 -0.80864613102E+02  0.30259112333E+02  0.89229658875E+02  0.41800000000E+01 0.  1.
         -5    1    3    3    0  502  0.40144220764E+02  0.31002751389E+02  0.50441602158E+01  0.51143376958E+02  0.41800000000E+01 0.  1.
        -11    1    1    2    0    0 -0.32869439755E+02 -0.15979685314E+02  0.14852251203E+02  0.39450472473E+02  0.00000000000E+00 0. -1.
         11    1    1    2    0    0  0.14855742969E+02  0.65841547027E+02  0.13623071963E+02  0.68857755582E+02  0.00000000000E+00 0.  1.
</event>
<event>
 7    1  0.2899775E-009  0.1045544E+03  0.7561462E-02  0.1271000E+00
          2   -1    0    0  501    0  0.00000000000E+00  0.00000000000E+00  0.30643086221E+03  0.30643086221E+03  0.00000000000E+00 0. -1.
         -2   -1    0    0    0  501 -0.00000000000E+00 -0.00000000000E+00 -0.44732349443E+02  0.44732349443E+02  0.00000000000E+00 0.  1.
         25    2    1    2    0    0 -0.33697337575E+02  0.21393597085E+02  0.11742572840E+03  0.17615297727E+03  0.12509145916E+03 0.  0.
          5    1    3    3  502    0 -0.62199460731E+02 -0.29339465125E+02  0.84963782271E+02  0.10938872806E+03  0.41800000000E+01 0.  1.
         -5    1    3    3    0  502  0.28502123155E+02  0.50733062210E+02  0.32461946128E+02  0.66764249206E+02  0.41800000000E+01 0.  1.
        -11    1    1    2    0    0  0.17389381359E+02 -0.47782027904E+02  0.13234181844E+03  0.14177400919E+03  0.00000000000E+00 0. -1.
         11    1    1    2    0    0  0.16307956216E+02  0.26388430819E+02  0.11930965926E+02  0.33236225191E+02  0.00000000000E+00 0.  1.
</event>
<event>
 7    1  0.2899775E-009  0.1075846E+03  0.7561462E-02  0.1265109E+00
          1   -1    0    0  501    0  0.00000000000E+00  0.00000000000E+00  0.40857977545E+02  0.40857977545E+02  0.00000000000E+00 0. -1.
         -1   -1    0    0    0  501 -0.00000000000E+00 -0.00000000000E+00 -0.40160065662E+03  0.40160065662E+03  0.00000000000E+00 0.  1.
         25    2    1    2    0    0  0.38898584926E+02  0.36199847058E+02 -0.27608347996E+03  0.30771920493E+03  0.12508194251E+03 0.  0.
          5    1    3    3  502    0  0.23845272238E+02  0.72440770989E+02 -0.24742692373E+03  0.25894751842E+03  0.41800000000E+01 0. -1.
         -5    1    3    3    0  502  0.15053312688E+02 -0.36240923931E+02 -0.28656556228E+02  0.48771686511E+02  0.41800000000E+01 0. -1.
        -11    1    1    2    0    0 -0.16704513923E+02 -0.62626049316E+02 -0.33317133329E+02  0.72877254418E+02  0.00000000000E+00 0. -1.
         11    1    1    2    0    0 -0.22194071002E+02  0.26426202258E+02 -0.51342065785E+02  0.61862174812E+02  0.00000000000E+00 0.  1.
</event>
<event>
 7    1  0.2899775E-009  0.2073990E+03  0.7561462E-02  0.1143642E+00
          2   -1    0    0  501    0  0.00000000000E+00  0.00000000000E+00  0.79616835204E+02  0.79616835204E+02  0.00000000000E+00 0. -1.
         -2   -1    0    0    0  501 -0.00000000000E+00 -0.00000000000E+00 -0.70366826814E+03  0.70366826814E+03  0.00000000000E+00 0.  1.
         25    2    1    2    0    0  0.17309242463E+03  0.98802010743E+02 -0.21375695330E+03  0.31790329136E+03  0.12509053834E+03 0.  0.
          5    1    3    3  502    0  0.11490219754E+03  0.84343448271E+02 -0.63549022924E+02  0.15611624829E+03  0.41800000000E+01 0. -1.
         -5    1    3    3    0  502  0.58190227096E+02  0.14458562472E+02 -0.15020793038E+03  0.16178704307E+03  0.41800000000E+01 0. -1.
        -11    1    1    2    0    0 -0.12765444793E+03 -0.32513920870E+02 -0.31023522262E+03  0.33704407202E+03  0.00000000000E+00 0. -1.
         11    1    1    2    0    0 -0.45437976703E+02 -0.66288089873E+02 -0.10005925701E+03  0.12833773997E+03  0.00000000000E+00 0.  1.
</event>
<event>
 7    1  0.2899775E-009  0.1147539E+03  0.7561462E-02  0.1252011E+00
          3   -1    0    0  501    0  0.00000000000E+00  0.00000000000E+00  0.79069393337E+02  0.79069393337E+02  0.00000000000E+00 0. -1.
         -3   -1    0    0    0  501 -0.00000000000E+00 -0.00000000000E+00 -0.17371768742E+03  0.17371768742E+03  0.00000000000E+00 0.  1.
         25    2    1    2    0    0  0.46716707439E+02 -0.25374879173E+02 -0.67395632911E+02  0.15171099889E+03  0.12509084939E+03 0.  0.
          5    1    3    3  502    0  0.86197571664E+02 -0.24566881287E+01 -0.60338586303E+02  0.10532935998E+03  0.41800000000E+01 0. -1.
         -5    1    3    3    0  502 -0.39480864224E+02 -0.22918191045E+02 -0.70570466082E+01  0.46381638905E+02  0.41800000000E+01 0. -1.
        -11    1    1    2    0    0  0.78842864881E+01  0.40029728574E+02 -0.11584245391E+02  0.42411506510E+02  0.00000000000E+00 0.  1.
         11    1    1    2    0    0 -0.54600993928E+02 -0.14654849401E+02 -0.15668415778E+02  0.58664575357E+02  0.00000000000E+00 0. -1.
</event>
<event>
 7    1  0.2899775E-009  0.3558605E+03  0.7561462E-02  0.1060235E+00
          2   -1    0    0  501    0  0.00000000000E+00  0.00000000000E+00  0.93594506665E+02  0.93594506665E+02  0.00000000000E+00 0. -1.
         -2   -1    0    0    0  501 -0.00000000000E+00 -0.00000000000E+00 -0.20179031739E+04  0.20179031739E+04  0.00000000000E+00 0.  1.
         25    2    1    2    0    0  0.21526110758E+03  0.26497714247E+03 -0.15715796133E+04  0.16130899907E+04  0.12508639707E+03 0.  0.
          5    1    3    3  502    0  0.12091672308E+03  0.23493187669E+03 -0.11681303488E+04  0.11976476213E+04  0.41800000000E+01 0. -1.
         -5    1    3    3    0  502  0.94344384498E+02  0.30045265773E+02 -0.40344926445E+03  0.41544236937E+03  0.41800000000E+01 0. -1.
        -11    1    1    2    0    0 -0.15684150050E+03 -0.23544905557E+03 -0.31268661828E+03  0.42167337514E+03  0.00000000000E+00 0.  1.
         11    1    1    2    0    0 -0.58419607079E+02 -0.29528086900E+02 -0.40042435733E+02  0.76734314792E+02  0.00000000000E+00 0. -1.
</event>
<event>
 7    1  0.2899775E-009  0.1478558E+03  0.7561462E-02  0.1203133E+00
          2   -1    0    0  501    0  0.00000000000E+00  0.00000000000E+00  0.75105831283E+03  0.75105831283E+03  0.00000000000E+00 0. -1.
         -2   -1    0    0    0  501 -0.00000000000E+00 -0.00000000000E+00 -0.47097923429E+02  0.47097923429E+02  0.00000000000E+00 0.  1.
         25    2    1    2    0    0  0.13758486792E+03  0.16941138945E+02  0.50462863550E+03  0.53806484434E+03  0.12508844422E+03 0.  0.
          5    1    3    3  502    0  0.14945459766E+02  0.25588977934E+02  0.15497133447E+02  0.33701574213E+02  0.41800000000E+01 0.  1.
         -5    1    3    3    0  502  0.12263940816E+03 -0.86478389895E+01  0.48913150206E+03  0.50436327013E+03  0.41800000000E+01 0.  1.
        -11    1    1    2    0    0 -0.19344713583E+02  0.95868436994E+01  0.10313730017E+03  0.10537280580E+03  0.00000000000E+00 0. -1.
         11    1    1    2    0    0 -0.11824015434E+03 -0.26527982644E+02  0.96194453725E+02  0.15471858611E+03  0.00000000000E+00 0.  1.
</event>
<event>
 7    1  0.2899775E-009  0.1121185E+03  0.7561462E-02  0.1256696E+00
         -1   -1    0    0    0  501 -0.00000000000E+00  0.00000000000E+00  0.93433953118E+02  0.93433953118E+02  0.00000000000E+00 0. -1.
          1   -1    0    0  501    0  0.00000000000E+00 -0.00000000000E+00 -0.18415383510E+03  0.18415383510E+03  0.00000000000E+00 0.  1.
         25    2    1    2    0    0  0.60421300143E+02 -0.20279850820E+02 -0.92260708922E+02  0.16800339195E+03  0.12510433820E+03 0.  0.
          5    1    3    3  502    0  0.55729787742E+02  0.30398670408E+02 -0.97763972468E+02  0.11664113818E+03  0.41800000000E+01 0. -1.
         -5    1    3    3    0  502  0.46915124016E+01 -0.50678521228E+02  0.55032635454E+01  0.51362253767E+02  0.41800000000E+01 0. -1.
        -11    1    1    2    0    0 -0.60966264854E+01 -0.32941598110E+02 -0.53949915614E+00  0.33505354794E+02  0.00000000000E+00 0. -1.
         11    1    1    2    0    0 -0.54324673658E+02  0.53221448930E+02  0.20803260999E+01  0.76079041469E+02  0.00000000000E+00 0.  1.
</event>
<event>
 7    1  0.2899775E-009  0.1221508E+03  0.7561462E-02  0.1239590E+00
         -1   -1    0    0    0  501 -0.00000000000E+00  0.00000000000E+00  0.35160679627E+02  0.35160679627E+02  0.00000000000E+00 0.  1.
          1   -1    0    0  501    0  0.00000000000E+00 -0.00000000000E+00 -0.59059269166E+03  0.59059269166E+03  0.00000000000E+00 0. -1.
         25    2    1    2    0    0  0.45673008245E+02  0.72583001652E+02 -0.21509313113E+03  0.26318655211E+03  0.12509112816E+03 0.  0.
          5    1    3    3  502    0 -0.23080449132E+02  0.35599689830E+02 -0.16480216280E+03  0.17022711392E+03  0.41800000000E+01 0. -1.
         -5    1    3    3    0  502  0.68753457376E+02  0.36983311822E+02 -0.50290968320E+02  0.92959438193E+02  0.41800000000E+01 0. -1.
        -11    1    1    2    0    0 -0.71355156370E+02 -0.39343233767E+02 -0.24990571216E+03  0.26285416746E+03  0.00000000000E+00 0. -1.
         11    1    1    2    0    0  0.25682148125E+02 -0.33239767886E+02 -0.90433168756E+02  0.99712651718E+02  0.00000000000E+00 0.  1.
</event>
<event>
 7    1  0.2899775E-009  0.1231458E+03  0.7561462E-02  0.1237996E+00
          1   -1    0    0  501    0  0.00000000000E+00  0.00000000000E+00  0.26749042158E+02  0.26749042158E+02  0.00000000000E+00 0. -1.
         -1   -1    0    0    0  501 -0.00000000000E+00 -0.00000000000E+00 -0.68009779593E+03  0.68009779593E+03  0.00000000000E+00 0.  1.
         25    2    1    2    0    0  0.58439308123E+02  0.52281574537E+02 -0.41181813111E+03  0.43748351317E+03  0.12509650439E+03 0.  0.
          5    1    3    3  502    0  0.85755030017E+02  0.73319375191E+02 -0.31317991841E+03  0.33290958179E+03  0.41800000000E+01 0.  1.
         -5    1    3    3    0  502 -0.27315721894E+02 -0.21037800655E+02 -0.98638212704E+02  0.10457393138E+03  0.41800000000E+01 0.  1.
        -11    1    1    2    0    0 -0.32200528201E+02 -0.62653202155E+02 -0.85402251314E+02  0.11070610772E+03  0.00000000000E+00 0. -1.
         11    1    1    2    0    0 -0.26238779922E+02  0.10371627618E+02 -0.15612837134E+03  0.15865721720E+03  0.00000000000E+00 0.  1.
</event>
<event>
 7    1  0.2899775E-009  0.1125170E+03  0.7561462E-02  0.1255978E+00
          1   -1    0    0  501    0  0.00000000000E+00  0.00000000000E+00  0.45384923839E+03  0.45384923839E+03  0.00000000000E+00 0. -1.
         -1   -1    0    0    0  501 -0.00000000000E+00 -0.00000000000E+00 -0.35167768788E+02  0.35167768788E+02  0.00000000000E+00 0.  1.
         25    2    1    2    0    0  0.53690695562E+02  0.33859084081E+02  0.25748007894E+03  0.29320578918E+03  0.12507803721E+03 0.  0.
          5    1    3    3  502    0  0.28452114456E+02  0.78875865270E+02  0.19329108926E+03  0.21073642905E+03  0.41800000000E+01 0.  1.
         -5    1    3    3    0  502  0.25238581105E+02 -0.45016781189E+02  0.64188989676E+02  0.82469360132E+02  0.41800000000E+01 0.  1.
        -11    1    1    2    0    0 -0.63551768690E+02 -0.11121704886E+02  0.15819551142E+03  0.17084595242E+03  0.00000000000E+00 0. -1.
         11    1    1    2    0    0  0.98610731279E+01 -0.22737379195E+02  0.30058792486E+01  0.24965265589E+02  0.00000000000E+00 0.  1.
</event>
<event>
 7    1  0.2899775E-009  0.1090087E+03  0.7561462E-02  0.1262417E+00
          2   -1    0    0  501    0  0.00000000000E+00  0.00000000000E+00  0.13340281375E+03  0.13340281375E+03  0.00000000000E+00 0.  1.
         -2   -1    0    0    0  501 -0.00000000000E+00 -0.00000000000E+00 -0.96226502744E+02  0.96226502744E+02  0.00000000000E+00 0. -1.
         25    2    1    2    0    0  0.52889249176E+00  0.31704970604E+02  0.28233629182E+02  0.13209787906E+03  0.12508887619E+03 0.  0.
          5    1    3    3  502    0 -0.61316603912E+02  0.14440860241E+02  0.37248890894E+01  0.63242482229E+02  0.41800000000E+01 0.  1.
         -5    1    3    3    0  502  0.61845496404E+02  0.17264110363E+02  0.24508740093E+02  0.68855396833E+02  0.41800000000E+01 0.  1.
        -11    1    1    2    0    0 -0.42650002964E+02 -0.17251199913E+02 -0.13109888646E+02  0.47838225632E+02  0.00000000000E+00 0. -1.
         11    1    1    2    0    0  0.42121110473E+02 -0.14453770691E+02  0.22052570467E+02  0.49693211798E+02  0.00000000000E+00 0.  1.
</event>
<event>
 7    1  0.2899775E-009  0.1090779E+03  0.7561462E-02  0.1262287E+00
         -1   -1    0    0    0  501 -0.00000000000E+00  0.00000000000E+00  0.37049022076E+03  0.37049022076E+03  0.00000000000E+00 0.  1.
          1   -1    0    0  501    0  0.00000000000E+00 -0.00000000000E+00 -0.48855857466E+02  0.48855857466E+02  0.00000000000E+00 0. -1.
         25    2    1    2    0    0 -0.22465573426E+02  0.70644310480E+02  0.22369146733E+03  0.26679791003E+03  0.12509169296E+03 0.  0.
          5    1    3    3  502    0 -0.49596086019E+02  0.76795060518E+02  0.83732341475E+02  0.12403963269E+03  0.41800000000E+01 0.  1.
         -5    1    3    3    0  502  0.27130512593E+02 -0.61507500385E+01  0.13995912586E+03  0.14275827734E+03  0.41800000000E+01 0.  1.
        -11    1    1    2    0    0  0.91312514097E+00 -0.76238876801E+02  0.31538329542E+02  0.82509795563E+02  0.00000000000E+00 0. -1.
         11    1    1    2    0    0  0.21552448285E+02  0.55945663213E+01  0.66404566423E+02  0.70038372634E+02  0.00000000000E+00 0.  1.
</event>
<event>
 7    1  0.2899775E-009  0.1479666E+03  0.7561462E-02  0.1202994E+00
         -2   -1    0    0    0  501 -0.00000000000E+00  0.00000000000E+00  0.15661268317E+03  0.15661268317E+03  0.00000000000E+00 0. -1.
          2   -1    0    0  501    0  0.00000000000E+00 -0.00000000000E+00 -0.17767645291E+03  0.17767645291E+03  0.00000000000E+00 0.  1.
         25    2    1    2    0    0  0.68169524332E+02 -0.10540179901E+03  0.33438618933E+01  0.17724467752E+03  0.12509145060E+03 0.  0.
          5    1    3    3  502    0  0.93990547252E+02 -0.65206028169E+02 -0.30600285705E+02  0.11849007962E+03  0.41800000000E+01 0.  1.
         -5    1    3    3    0  502 -0.25821022920E+02 -0.40195770842E+02  0.33944147598E+02  0.58754597900E+02  0.41800000000E+01 0.  1.
        -11    1    1    2    0    0 -0.24013859684E+02  0.77825396060E+02 -0.53463093712E+02  0.97425664576E+02  0.00000000000E+00 0.  1.
         11    1    1    2    0    0 -0.44155664649E+02  0.27576402952E+02  0.29055462080E+02  0.59618793991E+02  0.00000000000E+00 0. -1.
</event>
<event>
 7    1  0.2899775E-009  0.8654874E+02  0.7561462E-02  0.1311431E+00
         -2   -1    0    0    0  501 -0.00000000000E+00  0.00000000000E+00  0.64429007977E+02  0.64429007977E+02  0.00000000000E+00 0.  1.
          2   -1    0    0  501    0  0.00000000000E+00 -0.00000000000E+00 -0.36325133812E+03  0.36325133812E+03  0.00000000000E+00 0. -1.
         25    2    1    2    0    0 -0.12157742968E+02  0.54361823327E+02 -0.33083025449E+02  0.14086930849E+03  0.12508659781E+03 0.  0.
          5    1    3    3  502    0 -0.32105170373E+02  0.67688813174E+02 -0.65996038954E+02  0.99927308335E+02  0.41800000000E+01 0. -1.
         -5    1    3    3    0  502  0.19947427404E+02 -0.13326989847E+02  0.32913013505E+02  0.40942000151E+02  0.41800000000E+01 0. -1.
        -11    1    1    2    0    0  0.21418165748E+02 -0.31236430100E+01 -0.67988049391E+01  0.22687413212E+02  0.00000000000E+00 0.  1.
         11    1    1    2    0    0 -0.92604227797E+01 -0.51238180317E+02 -0.25894049976E+03  0.26412362440E+03  0.00000000000E+00 0. -1.
</event>
<event>
 7    1  0.2899775E-009  0.8383749E+02  0.7561462E-02  0.1318501E+00
          1   -1    0    0  501    0  0.00000000000E+00  0.00000000000E+00  0.22505105963E+02  0.22505105963E+02  0.00000000000E+00 0. -1.
         -1   -1    0    0    0  501 -0.00000000000E+00 -0.00000000000E+00 -0.58911394155E+03  0.58911394155E+03  0.00000000000E+00 0.  1.
         25    2    1    2    0    0  0.33628283191E+02 -0.69355799963E+01 -0.32038758676E+03  0.34565190495E+03  0.12509224576E+03 0.  0.
          5    1    3    3  502    0  0.11735394200E+02 -0.40472764039E+02 -0.29505480663E+03  0.29807813643E+03  0.41800000000E+01 0. -1.
         -5    1    3    3    0  502  0.21892888991E+02  0.33537184043E+02 -0.25332780131E+02  0.47573768519E+02  0.41800000000E+01 0. -1.
        -11    1    1    2    0    0 -0.12041973718E+02 -0.35479967903E+02 -0.18321110114E+03  0.18700306103E+03  0.00000000000E+00 0.  1.
         11    1    1    2    0    0 -0.21586309474E+02  0.42415547900E+02 -0.63010147690E+02  0.78964081532E+02  0.00000000000E+00 0. -1.
</event>
<event>
 7    1  0.2899775E-009  0.1184578E+03  0.7561462E-02  0.1245663E+00
         -1   -1    0    0    0  501 -0.00000000000E+00  0.00000000000E+00  0.10315331116E+03  0.10315331116E+03  0.00000000000E+00 0.  1.
          1   -1    0    0  501    0  0.00000000000E+00 -0.00000000000E+00 -0.20161186442E+03  0.20161186442E+03  0.00000000000E+00 0. -1.
         25    2    1    2    0    0  0.77688338404E+02  0.37022509872E+02 -0.93463999569E+02  0.17829413202E+03  0.12508850521E+03 0.  0.
          5    1    3    3  502    0  0.75230757675E+02 -0.16463143718E+02 -0.97641576264E+02  0.12442689346E+03  0.41800000000E+01 0. -1.
         -5    1    3    3    0  502  0.24575807296E+01  0.53485653590E+02  0.41775766946E+01  0.53867238560E+02  0.41800000000E+01 0. -1.
        -11    1    1    2    0    0 -0.87779946972E+02 -0.26940072417E+02  0.23346328355E+02  0.94742480651E+02  0.00000000000E+00 0.  1.
         11    1    1    2    0    0  0.10091608568E+02 -0.10082437456E+02 -0.28340882052E+02  0.31728562905E+02  0.00000000000E+00 0. -1.
</event>
<event>
 7    1  0.2899775E-009  0.6863313E+02  0.7561462E-02  0.1364804E+00
         -1   -1    0    0    0  501 -0.00000000000E+00  0.00000000000E+00  0.11247213902E+02  0.11247213902E+02  0.00000000000E+00 0.  1.
          1   -1    0    0  501    0  0.00000000000E+00 -0.00000000000E+00 -0.12855382533E+04  0.12855382533E+04  0.00000000000E+00 0. -1.
         25    2    1    2    0    0 -0.32454750765E+02  0.28391096309E+02 -0.10172693766E+04  0.10258368152E+04  0.12507926144E+03 0.  0.
          5    1    3    3  502    0 -0.13779922800E+02 -0.80349614720E+01 -0.92093797149E+03  0.92108559136E+03  0.41800000000E+01 0. -1.
         -5    1    3    3    0  502 -0.18674827965E+02  0.36426057781E+02 -0.96331405153E+02  0.10475122388E+03  0.41800000000E+01 0. -1.
        -11    1    1    2    0    0 -0.13442148019E+02 -0.30865623906E+02 -0.16114077108E+03  0.16461994468E+03  0.00000000000E+00 0. -1.
         11    1    1    2    0    0  0.45896898784E+02  0.24745275972E+01 -0.95880891690E+02  0.10632870730E+03  0.00000000000E+00 0.  1.
</event>
<event>
 7    1  0.2899775E-009  0.1142527E+03  0.7561462E-02  0.1252891E+00
         -1   -1    0    0    0  501 -0.00000000000E+00  0.00000000000E+00  0.82372341720E+02  0.82372341720E+02  0.00000000000E+00 0.  1.
          1   -1    0    0  501    0  0.00000000000E+00 -0.00000000000E+00 -0.23722851147E+03  0.23722851147E+03  0.00000000000E+00 0. -1.
         25    2    1    2    0    0 -0.57173999588E+02  0.65722076180E+02 -0.10955497850E+03  0.18771704836E+03  0.12508852627E+03 0.  0.
          5    1    3    3  502    0  0.21336491969E+01  0.53546305562E+02 -0.11484175629E+03  0.12679850427E+03  0.41800000000E+01 0. -1.
         -5    1    3    3    0  502 -0.59307648785E+02  0.12175770618E+02  0.52867777841E+01  0.60918544089E+02  0.41800000000E+01 0. -1.
        -11    1    1    2    0    0  0.67860155399E+02 -0.74106284620E+02 -0.55598794409E+02  0.11483887866E+03  0.00000000000E+00 0. -1.
         11    1    1    2    0    0 -0.10686155811E+02  0.83842084398E+01  0.10297603167E+02  0.17044926171E+02  0.00000000000E+00 0.  1.
</event>
<event>
 7    1  0.2899775E-009  0.9259603E+02  0.7561462E-02  0.1296684E+00
          4   -1    0    0  501    0  0.00000000000E+00  0.00000000000E+00  0.23108120702E+03  0.23108120702E+03  0.00000000000E+00 0. -1.
         -4   -1    0    0    0  501 -0.00000000000E+00 -0.00000000000E+00 -0.60321636671E+02  0.60321636671E+02  0.00000000000E+00 0.  1.
         25    2    1    2    0    0 -0.29102088171E+02  0.20629815099E+02  0.56156981501E+02  0.14167322719E+03  0.12508067767E+03 0.  0.
          5    1    3    3  502    0  0.14104808318E+02  0.52825225178E+02  0.66971484338E+02  0.86556930094E+02  0.41800000000E+01 0.  1.
         -5    1    3    3    0  502 -0.43206896488E+02 -0.32195410080E+02 -0.10814502837E+02  0.55116297099E+02  0.41800000000E+01 0.  1.
        -11    1    1    2    0    0  0.46736703838E+02 -0.30782625160E+02  0.31598768420E+02  0.64267967628E+02  0.00000000000E+00 0.  1.
         11    1    1    2    0    0 -0.17634615667E+02  0.10152810061E+02  0.83003820431E+02  0.85461648873E+02  0.00000000000E+00 0. -1.
</event>
<event>
 7    1  0.2899775E-009  0.9184529E+02  0.7561462E-02  0.1298444E+00
         -1   -1    0    0    0  501 -0.00000000000E+00  0.00000000000E+00  0.53438922533E+02  0.53438922533E+02  0.00000000000E+00 0.  1.
          1   -1    0    0  501    0  0.00000000000E+00 -0.00000000000E+00 -0.24532750148E+03  0.24532750148E+03  0.00000000000E+00 0. -1.
         25    2    1    2    0    0 -0.22552561069E+02 -0.36781816568E+02 -0.13739762540E+03  0.19075233846E+03  0.12508727802E+03 0.  0.
          5    1    3    3  502    0  0.44131895540E+02 -0.36620885851E+02 -0.31566951457E+02  0.65594651526E+02  0.41800000000E+01 0. -1.
         -5    1    3    3    0  502 -0.66684456609E+02 -0.16093071724E+00 -0.10583067394E+03  0.12515768694E+03  0.41800000000E+01 0. -1.
        -11    1    1    2    0    0  0.19446352214E+02 -0.28221068692E+01 -0.64182732410E+02  0.67123379245E+02  0.00000000000E+00 0. -1.
         11    1    1    2    0    0  0.31062088554E+01  0.39603923437E+02  0.96917788588E+01  0.40890706310E+02  0.00000000000E+00 0.  1.
</event>
<event>
 7    1  0.2899775E-009  0.1466673E+03  0.7561462E-02  0.1204629E+00
          2   -1    0    0  501    0  0.00000000000E+00  0.00000000000E+00  0.39148775190E+03  0.39148775190E+03  0.00000000000E+00 0.  1.
         -2   -1    0    0    0  501 -0.00000000000E+00 -0.00000000000E+00 -0.91385708189E+02  0.91385708189E+02  0.00000000000E+00 0. -1.
         25    2    1    2    0    0 -0.13540692250E+02 -0.12848524664E+03  0.49773795765E+02  0.18659216335E+03  0.12508955084E+03 0.  0.
          5    1    3    3  502    0  0.19844594275E+02 -0.12677224197E+03  0.71063416238E+02  0.14673953381E+03  0.41800000000E+01 0. -1.
         -5    1    3    3    0  502 -0.33385286525E+02 -0.17130046705E+01 -0.21289620473E+02  0.39852629540E+02  0.41800000000E+01 0. -1.
        -11    1    1    2    0    0  0.47932597038E+00  0.99130002324E+02  0.24422482197E+03  0.26357684037E+03  0.00000000000E+00 0.  1.
         11    1    1    2    0    0  0.13061366280E+02  0.29355244313E+02  0.61034259785E+01  0.32704456370E+02  0.00000000000E+00 0. -1.
</event>
<event>
 7    1  0.2899775E-009  0.1840802E+03  0.7561462E-02  0.1163912E+00
         -4   -1    0    0    0  501 -0.00000000000E+00  0.00000000000E+00  0.10847194381E+04  0.10847194381E+04  0.00000000000E+00 0.  1.
          4   -1    0    0  501    0  0.00000000000E+00 -0.00000000000E+00 -0.47176309040E+02  0.47176309040E+02  0.00000000000E+00 0. -1.
         25    2    1    2    0    0  0.68601773149E+02  0.15300301549E+03  0.27498377540E+03  0.34551305480E+03  0.12508824196E+03 0.  0.
          5    1    3    3  502    0  0.79832775867E+02  0.68648413572E+02  0.22049010535E+03  0.24437519462E+03  0.41800000000E+01 0.  1.
         -5    1    3    3    0  502 -0.11231002718E+02  0.84354601920E+02  0.54493670053E+02  0.10113786019E+03  0.41800000000E+01 0.  1.
        -11    1    1    2    0    0 -0.11367731276E+02  0.27114507134E+01  0.89263890790E+01  0.14705703020E+02  0.00000000000E+00 0. -1.
         11    1    1    2    0    0 -0.57234041873E+02 -0.15571446620E+03  0.75363296453E+03  0.77167698927E+03  0.00000000000E+00 0.  1.
</event>
<event>
 7    1  0.2899775E-009  0.9146132E+02  0.7561462E-02  0.1299351E+00
          2   -1    0    0  501    0  0.00000000000E+00  0.00000000000E+00  0.35530812434E+03  0.35530812434E+03  0.00000000000E+00 0. -1.
         -2   -1    0    0    0  501 -0.00000000000E+00 -0.00000000000E+00 -0.33366681748E+02  0.33366681748E+02  0.00000000000E+00 0.  1.
         25    2    1    2    0    0 -0.38768546407E+02  0.55416620211E+01  0.21518600671E+03  0.25196433243E+03  0.12508915669E+03 0.  0.
          5    1    3    3  502    0 -0.79018882729E+02 -0.20223886643E+02  0.11701699687E+03  0.14270052339E+03  0.41800000000E+01 0. -1.
         -5    1    3    3    0  502  0.40250336323E+02  0.25765548664E+02  0.98169009842E+02  0.10926380904E+03  0.41800000000E+01 0. -1.
        -11    1    1    2    0    0  0.24972652391E+02 -0.20948586991E+02  0.51236740426E+01  0.32995889138E+02  0.00000000000E+00 0.  1.
         11    1    1    2    0    0  0.13795894016E+02  0.15406924970E+02  0.10163176183E+03  0.10371458452E+03  0.00000000000E+00 0. -1.
</event>
<event>
 7    1  0.2899775E-009  0.1092061E+03  0.7561462E-02  0.1262047E+00
          2   -1    0    0  501    0  0.00000000000E+00  0.00000000000E+00  0.12616136046E+04  0.12616136046E+04  0.00000000000E+00 0. -1.
         -2   -1    0    0    0  501 -0.00000000000E+00 -0.00000000000E+00 -0.19461759024E+02  0.19461759024E+02  0.00000000000E+00 0.  1.
         25    2    1    2    0    0 -0.73271210647E+00  0.55649462944E+02  0.10678696003E+04  0.10766103903E+04  0.12508816734E+03 0.  0.
          5    1    3    3  502    0  0.48491222479E+02 -0.14643434327E+02  0.37147412992E+03  0.37493510162E+03  0.41800000000E+01 0. -1.
         -5    1    3    3    0  502 -0.49223934585E+02  0.70292897271E+02  0.69639547041E+03  0.70167528868E+03  0.41800000000E+01 0. -1.
        -11    1    1    2    0    0  0.30241108520E+02 -0.29373341889E+02  0.15474857323E+03  0.16038839975E+03  0.00000000000E+00 0. -1.
         11    1    1    2    0    0 -0.29508396414E+02 -0.26276121055E+02  0.19533672045E+02  0.44076573598E+02  0.00000000000E+00 0.  1.
</event>
<event>
 7    1  0.2899775E-009  0.1087791E+03  0.7561462E-02  0.1262848E+00
         -1   -1    0    0    0  501 -0.00000000000E+00  0.00000000000E+00  0.76444715768E+02  0.76444715768E+02  0.00000000000E+00 0.  1.
          1   -1    0    0  501    0  0.00000000000E+00 -0.00000000000E+00 -0.20261830789E+03  0.20261830789E+03  0.00000000000E+00 0. -1.
         25    2    1    2    0    0 -0.15223667386E+02  0.53439901581E+02 -0.36607351059E+02  0.14169444134E+03  0.12509849490E+03 0.  0.
          5    1    3    3  502    0  0.20550121798E+02  0.80009404436E+02  0.17787272310E+01  0.82731182602E+02  0.41800000000E+01 0. -1.
         -5    1    3    3    0  502 -0.35773789184E+02 -0.26569502855E+02 -0.38386078290E+02  0.58963258738E+02  0.41800000000E+01 0. -1.
        -11    1    1    2    0    0  0.43555985819E+02 -0.26444713702E+02 -0.83425089546E+02  0.97755779109E+02  0.00000000000E+00 0. -1.
         11    1    1    2    0    0 -0.28332318433E+02 -0.26995187879E+02 -0.61411515213E+01  0.39612803213E+02  0.00000000000E+00 0.  1.
</event>
<event>
 7    1  0.2899775E-009  0.1770656E+03  0.7561462E-02  0.1170674E+00
         -2   -1    0    0    0  501 -0.00000000000E+00  0.00000000000E+00  0.47109927725E+03  0.47109927725E+03  0.00000000000E+00 0.  1.
          2   -1    0    0  501    0  0.00000000000E+00 -0.00000000000E+00 -0.76763045742E+02  0.76763045742E+02  0.00000000000E+00 0. -1.
         25    2    1    2    0    0 -0.13008896306E+03 -0.63167346456E+02  0.28720019948E+03  0.34502844390E+03  0.12508965005E+03 0.  0.
          5    1    3    3  502    0  0.15584780604E+02  0.10308661204E+02  0.74532628746E+02  0.76952836401E+02  0.41800000000E+01 0. -1.
         -5    1    3    3    0  502 -0.14567374366E+03 -0.73476007660E+02  0.21266757073E+03  0.26807560750E+03  0.41800000000E+01 0. -1.
        -11    1    1    2    0    0  0.14345716905E+03  0.47359106554E+02  0.98826244858E+02  0.18052554112E+03  0.00000000000E+00 0.  1.
         11    1    1    2    0    0 -0.13368205991E+02  0.15808239902E+02  0.83097871717E+01  0.22308337972E+02  0.00000000000E+00 0. -1.
</event>
<event>
 6    1  0.2899775E-009  0.2417923E+03  0.7561462E-02  0.1118605E+00
          2   -1    0    0  501    0  0.00000000000E+00  0.00000000000E+00  0.16795740985E+04  0.16795740985E+04  0.00000000000E+00 0.  1.
         -2   -1    0    0    0  501 -0.00000000000E+00 -0.00000000000E+00 -0.41885664733E+02  0.41885664733E+02  0.00000000000E+00 0. -1.
          5    1    1    2  502    0  0.11604407301E+02 -0.11950229805E+02  0.31023306097E+03  0.31070805393E+03  0.41800000000E+01 0. -1.
         -5    1    1    2    0  502  0.19186912664E+03 -0.11210388028E+03  0.67515642081E+03  0.71079864005E+03  0.41800000000E+01 0. -1.
        -11    1    1    2    0    0 -0.10017781435E+03  0.30314075782E+02  0.37802134047E+03  0.39224312808E+03  0.00000000000E+00 0.  1.
         11    1    1    2    0    0 -0.10329571960E+03  0.93740034298E+02  0.27427761155E+03  0.30770994120E+03  0.00000000000E+00 0. -1.
</event>
<event>
 7    1  0.2899775E-009  0.4431190E+02  0.7561462E-02  0.1478684E+00
         -1   -1    0    0    0  501 -0.00000000000E+00  0.00000000000E+00  0.21806157916E+03  0.21806157916E+03  0.00000000000E+00 0. -1.
          1   -1    0    0  501    0  0.00000000000E+00 -0.00000000000E+00 -0.73867641865E+02  0.73867641865E+02  0.00000000000E+00 0.  1.
         25    2    1    2    0    0  0.16029154653E+02  0.35648134674E+01  0.69066793646E+01  0.12635374305E+03  0.12509166427E+03 0.  0.
          5    1    3    3  502    0  0.32945835855E+00  0.18322567485E+02 -0.56347472119E+02  0.59399789867E+02  0.41800000000E+01 0. -1.
         -5    1    3    3    0  502  0.15699696295E+02 -0.14757754018E+02  0.63254151483E+02  0.66953953186E+02  0.41800000000E+01 0. -1.
        -11    1    1    2    0    0 -0.24306612064E+02 -0.18673444519E+02  0.14389564407E+03  0.14712397936E+03  0.00000000000E+00 0. -1.
         11    1    1    2    0    0  0.82774574111E+01  0.15108631051E+02 -0.66083861448E+01  0.18451498608E+02  0.00000000000E+00 0.  1.
</event>
<event>
 7    1  0.2899775E-009  0.2002532E+03  0.7561462E-02  0.1149526E+00
          2   -1    0    0  501    0  0.00000000000E+00  0.00000000000E+00  0.54556216330E+03  0.54556216330E+03  0.00000000000E+00 0.  1.
         -2   -1    0    0    0  501 -0.00000000000E+00 -0.00000000000E+00 -0.86145169838E+02  0.86145169838E+02  0.00000000000E+00 0. -1.
         25    2    1    2    0    0 -0.94999424486E+02  0.14941361557E+03  0.32290839217E+03  0.38892646113E+03  0.12507854836E+03 0.  0.
          5    1    3    3  502    0 -0.33553667554E+02  0.13769597383E+03  0.27714361592E+03  0.31130706073E+03  0.41800000000E+01 0. -1.
         -5    1    3    3    0  502 -0.61445756932E+02  0.11717641747E+02  0.45764776250E+02  0.77619400399E+02  0.41800000000E+01 0. -1.
        -11    1    1    2    0    0  0.14202485187E+00 -0.76203242120E+02  0.79374520560E+02  0.11003303502E+03  0.00000000000E+00 0. -1.
         11    1    1    2    0    0  0.94857399634E+02 -0.73210373453E+02  0.57134080736E+02  0.13274783700E+03  0.00000000000E+00 0.  1.
</event>
<event>
 7    1  0.2899775E-009  0.1127620E+03  0.7561462E-02  0.1255539E+00
          1   -1    0    0  501    0  0.00000000000E+00  0.00000000000E+00  0.76904001666E+02  0.76904001666E+02  0.00000000000E+00 0. -1.
         -1   -1    0    0    0  501 -0.00000000000E+00 -0.00000000000E+00 -0.21089275034E+03  0.21089275034E+03  0.00000000000E+00 0.  1.
         25    2    1    2    0    0  0.28838066880E+02  0.45548989178E+02 -0.11805276709E+03  0.18024942483E+03  0.12508818816E+03 0.  0.
          5    1    3    3  502    0  0.68850519206E+02 -0.72007975863E+01 -0.68181983337E+02  0.97254823698E+02  0.41800000000E+01 0. -1.
         -5    1    3    3    0  502 -0.40012452326E+02  0.52749786764E+02 -0.49870783757E+02  0.82994601134E+02  0.41800000000E+01 0. -1.
        -11    1    1    2    0    0  0.21425636147E+02 -0.30669053838E+02 -0.35520542199E+02  0.51588348159E+02  0.00000000000E+00 0.  1.
         11    1    1    2    0    0 -0.50263703027E+02 -0.14879935341E+02  0.19584560619E+02  0.55958979015E+02  0.00000000000E+00 0. -1.
</event>
<event>
 7    1  0.2899775E-009  0.1124115E+03  0.7561462E-02  0.1256168E+00
          1   -1    0    0  501    0  0.00000000000E+00  0.00000000000E+00  0.65163361294E+03  0.65163361294E+03  0.00000000000E+00 0. -1.
         -1   -1    0    0    0  501 -0.00000000000E+00 -0.00000000000E+00 -0.23799330102E+02  0.23799330102E+02  0.00000000000E+00 0.  1.
         25    2    1    2    0    0 -0.20022197552E+02  0.45366029345E+02  0.44682329215E+03  0.46664564346E+03  0.12509251432E+03 0.  0.
          5    1    3    3  502    0  0.21050239508E+02  0.74163963065E+02  0.33857423320E+03  0.34726558970E+03  0.41800000000E+01 0. -1.
         -5    1    3    3    0  502 -0.41072437060E+02 -0.28797933720E+02  0.10824905895E+03  0.11938005376E+03  0.41800000000E+01 0. -1.
        -11    1    1    2    0    0 -0.11763002955E+02 -0.60812969280E+02  0.76317649058E+02  0.98290228552E+02  0.00000000000E+00 0.  1.
         11    1    1    2    0    0  0.31785200506E+02  0.15446939935E+02  0.10469334163E+03  0.11049707103E+03  0.00000000000E+00 0. -1.
</event>
<event>
 6    1  0.2899775E-009  0.1355863E+03  0.7561462E-02  0.1219394E+00
         -2   -1    0    0    0  501 -0.00000000000E+00  0.00000000000E+00  0.94754536722E+03  0.94754536722E+03  0.00000000000E+00 0.  1.
          2   -1    0    0  501    0  0.00000000000E+00 -0.00000000000E+00 -0.27587741058E+02  0.27587741058E+02  0.00000000000E+00 0. -1.
          5    1    1    2  502    0 -0.45092979322E+02 -0.74114748089E+02  0.53023502244E+03  0.53730161371E+03  0.41800000000E+01 0.  1.
         -5    1    1    2    0  502  0.48807877623E+02 -0.32689196093E+02  0.12416933276E+03  0.13742739195E+03  0.41800000000E+01 0.  1.
        -11    1    1    2    0    0  0.30732086218E+02  0.42104522068E+02  0.18170704571E+03  0.18903624616E+03  0.00000000000E+00 0.  1.
         11    1    1    2    0    0 -0.34446984519E+02  0.64699422114E+02  0.83846225243E+02  0.11136785646E+03  0.00000000000E+00 0. -1.
</event>
<event>
 6    1  0.2899775E-009  0.1171529E+03  0.7561462E-02  0.1247869E+00
          2   -1    0    0  501    0  0.00000000000E+00  0.00000000000E+00  0.62415647910E+02  0.62415647910E+02  0.00000000000E+00 0.  1.
         -2   -1    0    0    0  501 -0.00000000000E+00 -0.00000000000E+00 -0.23837228439E+03  0.23837228439E+03  0.00000000000E+00 0. -1.
          5    1    1    2  502    0 -0.72492083217E+02  0.26897333497E+02 -0.74207788969E+02  0.10725127982E+03  0.41800000000E+01 0. -1.
         -5    1    1    2    0  502  0.54005737097E+02  0.16412069415E+02 -0.59064759759E+02  0.81805219315E+02  0.41800000000E+01 0. -1.
        -11    1    1    2    0    0 -0.20385353814E+02  0.18320475282E+02 -0.24599207581E+00  0.27409176872E+02  0.00000000000E+00 0. -1.
         11    1    1    2    0    0  0.38871699935E+02 -0.61629878194E+02 -0.42438095673E+02  0.84322256293E+02  0.00000000000E+00 0.  1.
</event>
<event>
 7    1  0.6220111E-009  0.1671674E+03  0.7561462E-02  0.1180834E+00
          2   -1    0    0  501    0  0.00000000000E+00  0.00000000000E+00  0.83929402929E+03  0.83929402929E+03  0.00000000000E+00 0. -1.
         -2   -1    0    0    0  501 -0.00000000000E+00 -0.00000000000E+00 -0.43737576722E+02  0.43737576722E+02  0.00000000000E+00 0.  1.
         25    2    1    2    0    0 -0.40010116137E+02  0.14897632943E+03  0.49244145524E+03  0.53098179609E+03  0.12509326449E+03 0.  0.
          5    1    3    3  502    0 -0.14262131218E+02  0.83961744972E+02  0.96003794297E+02  0.12840242959E+03  0.41800000000E+01 0. -1.
         -5    1    3    3    0  502 -0.25747984919E+02  0.65014584453E+02  0.39643766094E+03  0.40257936650E+03  0.41800000000E+01 0. -1.
        -11    1    1    2    0    0  0.55567554890E+02 -0.38864564724E+02  0.11838159790E+03  0.13642730763E+03  0.00000000000E+00 0. -1.
         11    1    1    2    0    0 -0.15557438753E+02 -0.11011176470E+03  0.18473339943E+03  0.21562250229E+03  0.00000000000E+00 0.  1.
</event>
<event>
 7    1  0.2899775E-009  0.9987186E+02  0.7561462E-02  0.1280566E+00
         -1   -1    0    0    0  501 -0.00000000000E+00  0.00000000000E+00  0.34972040500E+02  0.34972040500E+02  0.00000000000E+00 0.  1.
          1   -1    0    0  501    0  0.00000000000E+00 -0.00000000000E+00 -0.38096937782E+03  0.38096937782E+03  0.00000000000E+00 0. -1.
         25    2    1    2    0    0 -0.35630641562E+02  0.37628839653E+01 -0.25501080994E+03  0.28629189923E+03  0.12509530953E+03 0.  0.
          5    1    3    3  502    0 -0.80806055322E+02 -0.12604863351E+02 -0.15934252622E+03  0.17915360510E+03  0.41800000000E+01 0. -1.
         -5    1    3    3    0  502  0.45175413760E+02  0.16367747317E+02 -0.95668283716E+02  0.10713829413E+03  0.41800000000E+01 0. -1.
        -11    1    1    2    0    0  0.29728308394E+02 -0.30293580781E+02 -0.93170403036E+02  0.10238260281E+03  0.00000000000E+00 0. -1.
         11    1    1    2    0    0  0.59023331680E+01  0.26530696816E+02  0.21838756555E+01  0.27266916277E+02  0.00000000000E+00 0.  1.
</event>
<event>
 7    1  0.2899775E-009  0.9938940E+02  0.7561462E-02  0.1281585E+00
         -1   -1    0    0    0  501 -0.00000000000E+00  0.00000000000E+00  0.13121485277E+04  0.13121485277E+04  0.00000000000E+00 0.  1.
          1   -1    0    0  501    0  0.00000000000E+00 -0.00000000000E+00 -0.12565800770E+02  0.12565800770E+02  0.00000000000E+00 0. -1.
         25    2    1    2    0    0  0.57414063288E+00  0.60076133806E+02  0.90440668542E+03  0.91499522581E+03  0.12512129761E+03 0.  0.
          5    1    3    3  502    0 -0.33187304396E+02  0.34253266750E+02  0.80957674672E+03  0.81099116191E+03  0.41800000000E+01 0. -1.
         -5    1    3    3    0  502  0.33761445029E+02  0.25822867056E+02  0.94829938700E+02  0.10400406390E+03  0.41800000000E+01 0. -1.
        -11    1    1    2    0    0 -0.41421853146E+02 -0.52123263454E+02  0.24292179016E+03  0.25188013150E+03  0.00000000000E+00 0.  1.
         11    1    1    2    0    0  0.40847712513E+02 -0.79528703517E+01  0.15225425134E+03  0.15783897115E+03  0.00000000000E+00 0. -1.
</event>
<event>
 7    1  0.2899775E-009  0.1133248E+03  0.7561462E-02  0.1254534E+00
          2   -1    0    0  501    0  0.00000000000E+00  0.00000000000E+00  0.95923426691E+03  0.95923426691E+03  0.00000000000E+00 0. -1.
         -2   -1    0    0    0  501 -0.00000000000E+00 -0.00000000000E+00 -0.19066037752E+02  0.19066037752E+02  0.00000000000E+00 0.  1.
         25    2    1    2    0    0 -0.62984769860E+02 -0.44616762521E+02  0.60839876232E+03  0.62590226368E+03  0.12508738127E+03 0.  0.
          5    1    3    3  502    0  0.31035971267E+02  0.17144865063E+01  0.26470506400E+03  0.26655658740E+03  0.41800000000E+01 0.  1.
         -5    1    3    3    0  502 -0.94020741127E+02 -0.46331249027E+02  0.34369369832E+03  0.35934567628E+03  0.41800000000E+01 0.  1.
        -11    1    1    2    0    0 -0.31402948023E+00  0.23728469019E+02  0.13662553100E+02  0.27382553090E+02  0.00000000000E+00 0.  1.
         11    1    1    2    0    0  0.63298799340E+02  0.20888293502E+02  0.31810691374E+03  0.32501548790E+03  0.00000000000E+00 0. -1.
</event>
<event>
 7    1  0.2899775E-009  0.9462365E+02  0.7561462E-02  0.1292026E+00
          1   -1    0    0  501    0  0.00000000000E+00  0.00000000000E+00  0.67731730461E+03  0.67731730461E+03  0.00000000000E+00 0. -1.
         -1   -1    0    0    0  501 -0.00000000000E+00 -0.00000000000E+00 -0.26251048626E+02  0.26251048626E+02  0.00000000000E+00 0.  1.
         25    2    1    2    0    0  0.25486982660E+02  0.90004614094E+01  0.53255863017E+03  0.54771889909E+03  0.12508678290E+03 0.  0.
          5    1    3    3  502    0  0.14893207357E+02 -0.39406607167E+02  0.65302728242E+02  0.77824205936E+02  0.41800000000E+01 0.  1.
         -5    1    3    3    0  502  0.10593775303E+02  0.48407068577E+02  0.46725590193E+03  0.46989469315E+03  0.41800000000E+01 0.  1.
        -11    1    1    2    0    0 -0.60665171113E+02  0.78710380881E+00  0.93979359362E+02  0.11186153273E+03  0.00000000000E+00 0.  1.
         11    1    1    2    0    0  0.35178188453E+02 -0.97875652182E+01  0.24528266451E+02  0.43987921420E+02  0.00000000000E+00 0. -1.
</event>
<event>
 6    1  0.2899775E-009  0.1006587E+03  0.7561462E-02  0.1278917E+00
          3   -1    0    0  501    0  0.00000000000E+00  0.00000000000E+00  0.18928287963E+03  0.18928287963E+03  0.00000000000E+00 0. -1.
         -3   -1    0    0    0  501 -0.00000000000E+00 -0.00000000000E+00 -0.93124136925E+02  0.93124136925E+02  0.00000000000E+00 0.  1.
          5    1    1    2  502    0  0.33643886049E+02  0.56834144983E+02 -0.48324712237E+02  0.81943769240E+02  0.41800000000E+01 0. -1.
         -5    1    1    2    0  502  0.61400683972E+01 -0.34824496488E+02  0.38759478737E+02  0.52632837540E+02  0.41800000000E+01 0. -1.
        -11    1    1    2    0    0  0.26904907813E+02  0.53797654275E+01  0.12957153186E+02  0.30343100685E+02  0.00000000000E+00 0.  1.
         11    1    1    2    0    0 -0.66688862260E+02 -0.27389413922E+02  0.92766823023E+02  0.11748730909E+03  0.00000000000E+00 0. -1.
</event>
<event>
 7    1  0.2899775E-009  0.1049804E+03  0.7561462E-02  0.1270158E+00
          1   -1    0    0  501    0  0.00000000000E+00  0.00000000000E+00  0.70602686869E+02  0.70602686869E+02  0.00000000000E+00 0. -1.
         -1   -1    0    0    0  501 -0.00000000000E+00 -0.00000000000E+00 -0.18107632116E+03  0.18107632116E+03  0.00000000000E+00 0.  1.
         25    2    1    2    0    0  0.18470393553E+02  0.23767044222E+02 -0.48267488493E+02  0.13741816647E+03  0.12509186305E+03 0.  0.
          5    1    3    3  502    0  0.23721808325E+02  0.68423032162E+02 -0.55952817621E+02  0.91611275071E+02  0.41800000000E+01 0. -1.
         -5    1    3    3    0  502 -0.52514147727E+01 -0.44655987940E+02  0.76853291280E+01  0.45806891401E+02  0.41800000000E+01 0. -1.
        -11    1    1    2    0    0 -0.52278844335E+02 -0.25322801159E+01 -0.19645510247E+02  0.55905599723E+02  0.00000000000E+00 0. -1.
         11    1    1    2    0    0  0.33808450782E+02 -0.21234764106E+02 -0.42560635548E+02  0.58355241831E+02  0.00000000000E+00 0.  1.
</event>
<event>
 7    1  0.2899775E-009  0.1134632E+03  0.7561462E-02  0.1254288E+00
         -2   -1    0    0    0  501 -0.00000000000E+00  0.00000000000E+00  0.70293985120E+02  0.70293985120E+02  0.00000000000E+00 0.  1.
          2   -1    0    0  501    0  0.00000000000E+00 -0.00000000000E+00 -0.28166202577E+03  0.28166202577E+03  0.00000000000E+00 0. -1.
         25    2    1    2    0    0  0.54585373871E+02 -0.86677189507E+01 -0.47365158375E+02  0.14471593134E+03  0.12507817620E+03 0.  0.
          5    1    3    3  502    0  0.40303387610E+02 -0.46162105259E+02 -0.74155866654E+02  0.96290539379E+02  0.41800000000E+01 0. -1.
         -5    1    3    3    0  502  0.14281986260E+02  0.37494386309E+02  0.26790708279E+02  0.48425391958E+02  0.41800000000E+01 0. -1.
        -11    1    1    2    0    0 -0.28341943886E+02  0.60643001702E+02 -0.71553877870E+02  0.97983656173E+02  0.00000000000E+00 0.  1.
         11    1    1    2    0    0 -0.26243429985E+02 -0.51975282751E+02 -0.92449004406E+02  0.10925642338E+03  0.00000000000E+00 0. -1.
</event>
<event>
 7    1  0.2899775E-009  0.1305058E+03  0.7561462E-02  0.1226707E+00
         -1   -1    0    0    0  501 -0.00000000000E+00  0.00000000000E+00  0.18346172943E+03  0.18346172943E+03  0.00000000000E+00 0.  1.
          1   -1    0    0  501    0  0.00000000000E+00 -0.00000000000E+00 -0.13377847287E+03  0.13377847287E+03  0.00000000000E+00 0. -1.
         25    2    1    2    0    0 -0.56605816420E+02 -0.44410559407E+02  0.10863149944E+03  0.18063177669E+03  0.12510203771E+03 0.  0.
          5    1    3    3  502    0 -0.57220666677E+02 -0.85510629824E+02  0.76009921468E+02  0.12798926935E+03  0.41800000000E+01 0.  1.
         -5    1    3    3    0  502  0.61485025749E+00  0.41100070417E+02  0.32621577971E+02  0.52642507335E+02  0.41800000000E+01 0.  1.
        -11    1    1    2    0    0  0.30260741589E+02 -0.27031244560E+02 -0.42398921862E+02  0.58686192916E+02  0.00000000000E+00 0. -1.
         11    1    1    2    0    0  0.26345074831E+02  0.71441803967E+02 -0.16549321020E+02  0.77922232695E+02  0.00000000000E+00 0.  1.
</event>
<event>
 6    1  0.2899775E-009  0.1126198E+03  0.7561462E-02  0.1255794E+00
          1   -1    0    0  501    0  0.00000000000E+00  0.00000000000E+00  0.16273528866E+03  0.16273528866E+03  0.00000000000E+00 0. -1.
         -1   -1    0    0    0  501 -0.00000000000E+00 -0.00000000000E+00 -0.80428096525E+02  0.80428096525E+02  0.00000000000E+00 0.  1.
          5    1    1    2  502    0 -0.29653338510E+02  0.40844639345E+02  0.14195173698E+02  0.52598292789E+02  0.41800000000E+01 0.  1.
         -5    1    1    2    0  502  0.29145038897E+02 -0.71887735340E+02  0.17318047148E+02  0.79590620940E+02  0.41800000000E+01 0.  1.
        -11    1    1    2    0    0 -0.30788812562E+02 -0.20229152772E+02  0.29659623013E+02  0.47295484331E+02  0.00000000000E+00 0. -1.
         11    1    1    2    0    0  0.31297112175E+02  0.51272248768E+02  0.21134348277E+02  0.63678987125E+02  0.00000000000E+00 0.  1.
</event>
<event>
 7    1  0.2899775E-009  0.1913834E+03  0.7561462E-02  0.1157219E+00
         -2   -1    0    0    0  501 -0.00000000000E+00  0.00000000000E+00  0.94325410903E+02  0.94325410903E+02  0.00000000000E+00 0.  1.
          2   -1    0    0  501    0  0.00000000000E+00 -0.00000000000E+00 -0.40432707812E+03  0.40432707812E+03  0.00000000000E+00 0. -1.
         25    2    1    2    0    0  0.15823968461E+03 -0.24416944858E+02 -0.13301347198E+03  0.24285094513E+03  0.12509201750E+03 0.  0.
          5    1    3    3  502    0  0.84366650560E+02  0.46380795363E+02 -0.39415212768E+02  0.10411503879E+03  0.41800000000E+01 0. -1.
         -5    1    3    3    0  502  0.73873034050E+02 -0.70797740221E+02 -0.93598259210E+02  0.13873590634E+03  0.41800000000E+01 0. -1.
        -11    1    1    2    0    0 -0.10709775679E+03  0.58984277424E+02 -0.12785059148E+03  0.17690349978E+03  0.00000000000E+00 0. -1.
         11    1    1    2    0    0 -0.51141927818E+02 -0.34567332566E+02 -0.49137603765E+02  0.78898044116E+02  0.00000000000E+00 0.  1.
</event>
<event>
 7    1  0.2899775E-009  0.1125854E+03  0.7561462E-02  0.1255856E+00
         -1   -1    0    0    0  501 -0.00000000000E+00  0.00000000000E+00  0.85845032517E+03  0.85845032517E+03  0.00000000000E+00 0.  1.
          1   -1    0    0  501    0  0.00000000000E+00 -0.00000000000E+00 -0.18435325356E+02  0.18435325356E+02  0.00000000000E+00 0. -1.
         25    2    1    2    0    0  0.31132540541E+02  0.45004123728E+02  0.35406227843E+03  0.37947649709E+03  0.12509080144E+03 0.  0.
          5    1    3    3  502    0  0.16047674441E+02 -0.34487404995E+02  0.40928460324E+02  0.56031421745E+02  0.41800000000E+01 0. -1.
         -5    1    3    3    0  502  0.15084866100E+02  0.79491528723E+02  0.31313381811E+03  0.32344507535E+03  0.41800000000E+01 0. -1.
        -11    1    1    2    0    0 -0.60335993040E+02 -0.11467765223E+02  0.26466894979E+03  0.27170129679E+03  0.00000000000E+00 0. -1.
         11    1    1    2    0    0  0.29203452499E+02 -0.33536358505E+02  0.22128377159E+03  0.22570785664E+03  0.00000000000E+00 0.  1.
</event>
<event>
 7    1  0.2899775E-009  0.9505469E+02  0.7561462E-02  0.1291053E+00
         -2   -1    0    0    0  501 -0.00000000000E+00  0.00000000000E+00  0.46207910948E+02  0.46207910948E+02  0.00000000000E+00 0.  1.
          2   -1    0    0  501    0  0.00000000000E+00 -0.00000000000E+00 -0.47548885782E+03  0.47548885782E+03  0.00000000000E+00 0. -1.
         25    2    1    2    0    0  0.67374985421E+02 -0.30102522333E+00 -0.10190359955E+03  0.17484603325E+03  0.12508921802E+03 0.  0.
          5    1    3    3  502    0  0.17604738189E+02 -0.37750852001E+02 -0.10428549990E+03  0.11237433658E+03  0.41800000000E+01 0.  1.
         -5    1    3    3    0  502  0.49770247232E+02  0.37449826777E+02  0.23819003512E+01  0.62471696667E+02  0.41800000000E+01 0.  1.
        -11    1    1    2    0    0 -0.95437872620E+00  0.17245621772E+02 -0.60620397587E+01  0.18304934720E+02  0.00000000000E+00 0.  1.
         11    1    1    2    0    0 -0.66420606695E+02 -0.16944596549E+02 -0.32131530757E+03  0.32854580080E+03  0.00000000000E+00 0. -1.
</event>
<event>
 7    1  0.2899775E-009  0.5810880E+02  0.7561462E-02  0.1405944E+00
         -2   -1    0    0    0  501 -0.00000000000E+00  0.00000000000E+00  0.75431098583E+02  0.75431098583E+02  0.00000000000E+00 0.  1.
          2   -1    0    0  501    0  0.00000000000E+00 -0.00000000000E+00 -0.17224343691E+03  0.17224343691E+03  0.00000000000E+00 0. -1.
         25    2    1    2    0    0 -0.72818740994E+01  0.18479683371E+02 -0.89924248876E+02  0.15533599629E+03  0.12509347233E+03 0.  0.
          5    1    3    3  502    0  0.21748110653E+01  0.10947252510E+02 -0.12107540428E+03  0.12166058550E+03  0.41800000000E+01 0. -1.
         -5    1    3    3    0  502 -0.94566851647E+01  0.75324308609E+01  0.31151155408E+02  0.33675410796E+02  0.41800000000E+01 0. -1.
        -11    1    1    2    0    0 -0.19996104117E+02  0.29898313416E+02 -0.77463376837E+01  0.36793465079E+02  0.00000000000E+00 0.  1.
         11    1    1    2    0    0  0.27277978217E+02 -0.48377996787E+02  0.85824823731E+00  0.55545074118E+02  0.00000000000E+00 0. -1.
</event>
<event>
 7    1  0.2899775E-009  0.1004834E+03  0.7561462E-02  0.1279283E+00
          2   -1    0    0  501    0  0.00000000000E+00  0.00000000000E+00  0.40009942307E+03  0.40009942307E+03  0.00000000000E+00 0. -1.
         -2   -1    0    0    0  501 -0.00000000000E+00 -0.00000000000E+00 -0.32742154306E+02  0.32742154306E+02  0.00000000000E+00 0.  1.
         25    2    1    2    0    0 -0.18654739530E+02  0.26510507910E+02  0.24726161529E+03  0.27899084027E+03  0.12508707455E+03 0.  0.
          5    1    3    3  502    0 -0.66937467039E+02  0.31637247845E+02  0.10447916608E+03  0.12812067940E+03  0.41800000000E+01 0. -1.
         -5    1    3    3    0  502  0.48282727509E+02 -0.51267399353E+01  0.14278244921E+03  0.15087016087E+03  0.41800000000E+01 0. -1.
        -11    1    1    2    0    0  0.29246245092E+02 -0.46801957495E+02  0.11871937373E+03  0.13092003581E+03  0.00000000000E+00 0. -1.
         11    1    1    2    0    0 -0.10591505562E+02  0.20291449586E+02  0.13762797475E+01  0.22930701304E+02  0.00000000000E+00 0.  1.
</event>
<event>
 7    1  0.2899775E-009  0.1309108E+03  0.7561462E-02  0.1226110E+00
         -3   -1    0    0    0  501 -0.00000000000E+00  0.00000000000E+00  0.34057547833E+02  0.34057547833E+02  0.00000000000E+00 0.  1.
          3   -1    0    0  501    0  0.00000000000E+00 -0.00000000000E+00 -0.51495168535E+03  0.51495168535E+03  0.00000000000E+00 0. -1.
         25    2    1    2    0    0 -0.41102739374E+01 -0.70531635535E+02 -0.26964115577E+03  0.30551066689E+03  0.12505522274E+03 0.  0.
          5    1    3    3  502    0 -0.49488842746E+02  0.86254727651E+01 -0.12056352320E+03  0.13067738849E+03  0.41800000000E+01 0.  1.
         -5    1    3    3    0  502  0.45378568808E+02 -0.79157108300E+02 -0.14907763257E+03  0.17483327839E+03  0.41800000000E+01 0.  1.
        -11    1    1    2    0    0  0.35232083904E+02  0.80108392219E+02 -0.16719562665E+03  0.18871415371E+03  0.00000000000E+00 0.  1.
         11    1    1    2    0    0 -0.31121809967E+02 -0.95767566838E+01 -0.44057355105E+02  0.54784412592E+02  0.00000000000E+00 0. -1.
</event>
<event>
 7    1  0.2899775E-009  0.1115117E+03  0.7561462E-02  0.1257796E+00
         -1   -1    0    0    0  501 -0.00000000000E+00  0.00000000000E+00  0.46990048941E+03  0.46990048941E+03  0.00000000000E+00 0.  1.
          1   -1    0    0  501    0  0.00000000000E+00 -0.00000000000E+00 -0.33177561012E+02  0.33177561012E+02  0.00000000000E+00 0. -1.
         25    2    1    2    0    0  0.56350826902E+02  0.25532208519E+02  0.26808132232E+03  0.30222996712E+03  0.12509215917E+03 0.  0.
          5    1    3    3  502    0 -0.13034032077E+02  0.59641119939E+02  0.10121327705E+03  0.11827319659E+03  0.41800000000E+01 0.  1.
         -5    1    3    3    0  502  0.69384858979E+02 -0.34108911419E+02  0.16686804526E+03  0.18395677053E+03  0.41800000000E+01 0.  1.
        -11    1    1    2    0    0 -0.23983507127E+02 -0.41789459162E+02  0.28237762514E+02  0.55847459593E+02  0.00000000000E+00 0.  1.
         11    1    1    2    0    0 -0.32367319775E+02  0.16257250643E+02  0.14040384357E+03  0.14500062371E+03  0.00000000000E+00 0. -1.
</event>
<event>
 7    1  0.2899775E-009  0.2491850E+03  0.7561462E-02  0.1113821E+00
         -1   -1    0    0    0  501 -0.00000000000E+00  0.00000000000E+00  0.11577517180E+03  0.11577517180E+03  0.00000000000E+00 0.  1.
          1   -1    0    0  501    0  0.00000000000E+00 -0.00000000000E+00 -0.67779348741E+03  0.67779348741E+03  0.00000000000E+00 0. -1.
         25    2    1    2    0    0 -0.18451848724E+03 -0.15272987973E+03 -0.14874333609E+03  0.30845632254E+03  0.12508890673E+03 0.  0.
          5    1    3    3  502    0 -0.12670200197E+03 -0.61894251291E+02 -0.14250054321E+03  0.20051975679E+03  0.41800000000E+01 0.  1.
         -5    1    3    3    0  502 -0.57816485272E+02 -0.90835628439E+02 -0.62427928727E+01  0.10793656575E+03  0.41800000000E+01 0.  1.
        -11    1    1    2    0    0  0.58292597560E+02  0.10245329189E+02 -0.14077068926E+03  0.15270684548E+03  0.00000000000E+00 0.  1.
         11    1    1    2    0    0  0.12622588968E+03  0.14248455054E+03 -0.27250429026E+03  0.33240549120E+03  0.00000000000E+00 0. -1.
</event>
<event>
 7    1  0.2899775E-009  0.1364772E+03  0.7561462E-02  0.1218149E+00
         -4   -1    0    0    0  501 -0.00000000000E+00  0.00000000000E+00  0.18454913787E+02  0.18454913787E+02  0.00000000000E+00 0.  1.
          4   -1    0    0  501    0  0.00000000000E+00 -0.00000000000E+00 -0.10937652405E+04  0.10937652405E+04  0.00000000000E+00 0. -1.
         25    2    1    2    0    0 -0.55058138610E+01  0.83493624374E+02 -0.72888345893E+03  0.74425819900E+03  0.12509065022E+03 0.  0.
          5    1    3    3  502    0 -0.49081363902E+02 -0.71787535403E+01 -0.23414256977E+03  0.23937570922E+03  0.41800000000E+01 0.  1.
         -5    1    3    3    0  502  0.43575550041E+02  0.90672377915E+02 -0.49474088916E+03  0.50488248978E+03  0.41800000000E+01 0.  1.
        -11    1    1    2    0    0 -0.23614937528E+02 -0.89663566504E+02 -0.23508606135E+03  0.25271065801E+03  0.00000000000E+00 0.  1.
         11    1    1    2    0    0  0.29120751389E+02  0.61699421295E+01 -0.11134080648E+03  0.11525129732E+03  0.00000000000E+00 0. -1.
</event>
<event>
 7    1  0.2899775E-009  0.1512807E+03  0.7561462E-02  0.1198908E+00
         -1   -1    0    0    0  501 -0.00000000000E+00  0.00000000000E+00  0.12232965509E+03  0.12232965509E+03  0.00000000000E+00 0.  1.
          1   -1    0    0  501    0  0.00000000000E+00 -0.00000000000E+00 -0.28308726401E+03  0.28308726401E+03  0.00000000000E+00 0. -1.
         25    2    1    2    0    0 -0.43356248927E+02 -0.96902319153E+02 -0.19811513545E+03  0.25723111400E+03  0.12509362628E+03 0.  0.
          5    1    3    3  502    0 -0.64263810134E+02 -0.11570262299E+00 -0.67789422055E+02  0.93502560513E+02  0.41800000000E+01 0. -1.
         -5    1    3    3    0  502  0.20907561207E+02 -0.96786616530E+02 -0.13032571339E+03  0.16372855348E+03  0.41800000000E+01 0. -1.
        -11    1    1    2    0    0  0.52279624606E+02  0.11941340884E+02  0.32312371052E+02  0.62608658300E+02  0.00000000000E+00 0.  1.
         11    1    1    2    0    0 -0.89233756795E+01  0.84960978268E+02  0.50451554785E+01  0.85577146807E+02  0.00000000000E+00 0. -1.
</event>
<event>
 7    1  0.2899775E-009  0.1130925E+03  0.7561462E-02  0.1254948E+00
          1   -1    0    0  501    0  0.00000000000E+00  0.00000000000E+00  0.17641160823E+03  0.17641160823E+03  0.00000000000E+00 0. -1.
         -1   -1    0    0    0  501 -0.00000000000E+00 -0.00000000000E+00 -0.74421718294E+02  0.74421718294E+02  0.00000000000E+00 0.  1.
         25    2    1    2    0    0 -0.26904191325E+02  0.26789534963E+02  0.52117728201E+02  0.14071035173E+03  0.12506650550E+03 0.  0.
          5    1    3    3  502    0 -0.73353161679E+02  0.34458386226E+02  0.20038255936E+02  0.83588700257E+02  0.41800000000E+01 0. -1.
         -5    1    3    3    0  502  0.46448970355E+02 -0.76688512625E+01  0.32079472265E+02  0.57121651477E+02  0.41800000000E+01 0. -1.
        -11    1    1    2    0    0 -0.81757284352E+01 -0.53222513116E+02  0.22432375333E+02  0.58332580098E+02  0.00000000000E+00 0. -1.
         11    1    1    2    0    0  0.35079919760E+02  0.26432978153E+02  0.27439786401E+02  0.51790394690E+02  0.00000000000E+00 0.  1.
</event>
<event>
 7    1  0.2899775E-009  0.1133099E+03  0.7561462E-02  0.1254560E+00
         -1   -1    0    0    0  501 -0.00000000000E+00  0.00000000000E+00  0.11979186273E+03  0.11979186273E+03  0.00000000000E+00 0.  1.
          1   -1    0    0  501    0  0.00000000000E+00 -0.00000000000E+00 -0.17757854404E+03  0.17757854404E+03  0.00000000000E+00 0. -1.
         25    2    1    2    0    0 -0.56508872615E+02  0.83571636614E+02 -0.21575950499E+02  0.16214202656E+03  0.12508814495E+03 0.  0.
          5    1    3    3  502    0 -0.36185528382E+02  0.49035455597E+02 -0.74044440656E+02  0.95989165858E+02  0.41800000000E+01 0.  1.
         -5    1    3    3    0  502 -0.20323344233E+02  0.34536181017E+02  0.52468490157E+02  0.66152860704E+02  0.41800000000E+01 0.  1.
        -11    1    1    2    0    0  0.44397840143E+02 -0.38005073733E+01  0.46220117457E+01  0.44799275197E+02  0.00000000000E+00 0.  1.
         11    1    1    2    0    0  0.12111032472E+02 -0.79771129241E+02 -0.40832742564E+02  0.90429105011E+02  0.00000000000E+00 0. -1.
</event>
<event>
 7    1  0.2899775E-009  0.1098493E+03  0.7561462E-02  0.1260849E+00
         -2   -1    0    0    0  501 -0.00000000000E+00  0.00000000000E+00  0.31499919116E+03  0.31499919116E+03  0.00000000000E+00 0.  1.
          2   -1    0    0  501    0  0.00000000000E+00 -0.00000000000E+00 -0.47090140167E+02  0.47090140167E+02  0.00000000000E+00 0. -1.
         25    2    1    2    0    0  0.49606234621E+02  0.16853208433E+02  0.12616928972E+03  0.18522964294E+03  0.12508605760E+03 0.  0.
          5    1    3    3  502    0  0.68981632623E+02 -0.28106487951E+02  0.11111999448E+03  0.13384157006E+03  0.41800000000E+01 0. -1.
         -5    1    3    3    0  502 -0.19375398002E+02  0.44959696384E+02  0.15049295246E+02  0.51388072877E+02  0.41800000000E+01 0. -1.
        -11    1    1    2    0    0 -0.22192010360E+02 -0.48951285810E+02  0.40892530277E+02  0.67534529974E+02  0.00000000000E+00 0. -1.
         11    1    1    2    0    0 -0.27414224261E+02  0.32098077377E+02  0.10084723099E+03  0.10932515841E+03  0.00000000000E+00 0.  1.
</event>
<event>
 7    1  0.2899775E-009  0.1063417E+03  0.7561462E-02  0.1267498E+00
         -3   -1    0    0    0  501 -0.00000000000E+00  0.00000000000E+00  0.12612923923E+03  0.12612923923E+03  0.00000000000E+00 0.  1.
          3   -1    0    0  501    0  0.00000000000E+00 -0.00000000000E+00 -0.11176052208E+03  0.11176052208E+03  0.00000000000E+00 0. -1.
         25    2    1    2    0    0  0.27615360654E+02  0.14858881157E+02 -0.28652586537E+02  0.13210554852E+03  0.12509001056E+03 0.  0.
          5    1    3    3  502    0 -0.16857359351E+02  0.57919154797E+02 -0.34785648423E+02  0.69758962097E+02  0.41800000000E+01 0. -1.
         -5    1    3    3    0  502  0.44472720005E+02 -0.43060273640E+02  0.61330618861E+01  0.62346586424E+02  0.41800000000E+01 0. -1.
        -11    1    1    2    0    0  0.21674056484E+02  0.20246086063E+02  0.33133131124E+02  0.44468787969E+02  0.00000000000E+00 0. -1.
         11    1    1    2    0    0 -0.49289417138E+02 -0.35104967219E+02  0.98881725650E+01  0.61315424829E+02  0.00000000000E+00 0.  1.
</event>
<event>
 7    1  0.2899775E-009  0.1143965E+03  0.7561462E-02  0.1252638E+00
         -4   -1    0    0    0  501 -0.00000000000E+00  0.00000000000E+00  0.14300097210E+03  0.14300097210E+03  0.00000000000E+00 0.  1.
          4   -1    0    0  501    0  0.00000000000E+00 -0.00000000000E+00 -0.11537243821E+03  0.11537243821E+03  0.00000000000E+00 0. -1.
         25    2    1    2    0    0  0.45136222937E+02  0.10803321296E+02 -0.36843001004E+02  0.13841476455E+03  0.12508896813E+03 0.  0.
          5    1    3    3  502    0 -0.28259286080E+02 -0.33337301785E+02 -0.28319407430E+02  0.52243891291E+02  0.41800000000E+01 0.  1.
         -5    1    3    3    0  502  0.73395509018E+02  0.44140623081E+02 -0.85235935744E+01  0.86170873254E+02  0.41800000000E+01 0.  1.
        -11    1    1    2    0    0 -0.68379929098E+02 -0.23932000552E+02  0.35890613062E+02  0.80849808038E+02  0.00000000000E+00 0. -1.
         11    1    1    2    0    0  0.23243706161E+02  0.13128679255E+02  0.28580921838E+02  0.39108837725E+02  0.00000000000E+00 0.  1.
</event>
<event>
 7    1  0.2899775E-009  0.9851509E+02  0.7561462E-02  0.1283450E+00
         -1   -1    0    0    0  501 -0.00000000000E+00  0.00000000000E+00  0.48778559272E+02  0.48778559272E+02  0.00000000000E+00 0.  1.
          1   -1    0    0  501    0  0.00000000000E+00 -0.00000000000E+00 -0.39154048149E+03  0.39154048149E+03  0.00000000000E+00 0. -1.
         25    2    1    2    0    0 -0.10810426169E+02  0.19126892202E+02 -0.31660986982E+03  0.34113372886E+03  0.12509079896E+03 0.  0.
          5    1    3    3  502    0 -0.96507728777E+01 -0.40407330473E+02 -0.38850423751E+02  0.57032601191E+02  0.41800000000E+01 0. -1.
         -5    1    3    3    0  502 -0.11596532914E+01  0.59534222674E+02 -0.27775944607E+03  0.28410112767E+03  0.41800000000E+01 0. -1.
        -11    1    1    2    0    0  0.26525530951E+02  0.32308244656E+02 -0.13584812009E+02  0.43954221440E+02  0.00000000000E+00 0.  1.
         11    1    1    2    0    0 -0.15715104782E+02 -0.51435136858E+02 -0.12567240388E+02  0.55231090455E+02  0.00000000000E+00 0. -1.
</event>
<event>
 7    1  0.2911775E-009  0.9963488E+02  0.7561462E-02  0.1281066E+00
         -1   -1    0    0    0  501 -0.00000000000E+00  0.00000000000E+00  0.10429872620E+03  0.10429872620E+03  0.00000000000E+00 0.  1.
          1   -1    0    0  501    0  0.00000000000E+00 -0.00000000000E+00 -0.20777854128E+03  0.20777854128E+03  0.00000000000E+00 0. -1.
         25    2    1    2    0    0  0.48431531821E+02  0.70794026707E+02 -0.33360832763E+01  0.15171718764E+03  0.12509823373E+03 0.  0.
          5    1    3    3  502    0  0.21750767294E+02 -0.96542661380E+01 -0.49522536158E+02  0.55102220645E+02  0.41800000000E+01 0.  1.
         -5    1    3    3    0  502  0.26680764527E+02  0.80448292845E+02  0.46186452882E+02  0.96614966994E+02  0.41800000000E+01 0.  1.
        -11    1    1    2    0    0 -0.36432953432E+02 -0.28415955058E+02  0.48932848670E+01  0.46462574557E+02  0.00000000000E+00 0.  1.
         11    1    1    2    0    0 -0.11998578389E+02 -0.42378071648E+02 -0.10503701667E+03  0.11389750528E+03  0.00000000000E+00 0. -1.
</event>
<event>
 7    1  0.2899775E-009  0.1199913E+03  0.7561462E-02  0.1243111E+00
          1   -1    0    0  501    0  0.00000000000E+00  0.00000000000E+00  0.77505748510E+02  0.77505748510E+02  0.00000000000E+00 0. -1.
         -1   -1    0    0    0  501 -0.00000000000E+00 -0.00000000000E+00 -0.23933404004E+03  0.23933404004E+03  0.00000000000E+00 0.  1.
         25    2    1    2    0    0 -0.68998819289E+02  0.48375951725E+01 -0.14142301131E+03  0.20108186739E+03  0.12509680201E+03 0.  0.
          5    1    3    3  502    0  0.14530545012E+02  0.41102473047E+02 -0.17316930235E+02  0.47094569768E+02  0.41800000000E+01 0.  1.
         -5    1    3    3    0  502 -0.83529364301E+02 -0.36264877874E+02 -0.12410608108E+03  0.15398729762E+03  0.41800000000E+01 0.  1.
        -11    1    1    2    0    0  0.77303964822E+02  0.19153454343E+02 -0.34417167681E+02  0.86760009346E+02  0.00000000000E+00 0.  1.
         11    1    1    2    0    0 -0.83051455331E+01 -0.23991049516E+02  0.14011887467E+02  0.28997911814E+02  0.00000000000E+00 0. -1.
</event>
<event>
 7    1  0.2899775E-009  0.1212476E+03  0.7561462E-02  0.1241053E+00
          2   -1    0    0  501    0  0.00000000000E+00  0.00000000000E+00  0.99673894971E+03  0.99673894971E+03  0.00000000000E+00 0. -1.
         -2   -1    0    0    0  501 -0.00000000000E+00 -0.00000000000E+00 -0.17910523003E+02  0.17910523003E+02  0.00000000000E+00 0.  1.
         25    2    1    2    0    0 -0.53452192749E+02 -0.21034574347E+02  0.73825326197E+03  0.75097580054E+03  0.12508870434E+03 0.  0.
          5    1    3    3  502    0 -0.92318203201E+02 -0.24322331052E+02  0.58651980941E+03  0.59425346921E+03  0.41800000000E+01 0.  1.
         -5    1    3    3    0  502  0.38866010453E+02  0.32877567051E+01  0.15173345256E+03  0.15672233133E+03  0.41800000000E+01 0.  1.
        -11    1    1    2    0    0  0.69901092565E+02 -0.11887416803E+02  0.16612907450E+03  0.18062763580E+03  0.00000000000E+00 0.  1.
         11    1    1    2    0    0 -0.16448899817E+02  0.32921991149E+02  0.74446090230E+02  0.83046036372E+02  0.00000000000E+00 0. -1.
</event>
<event>
 7    1  0.2899775E-009  0.1549925E+03  0.7561462E-02  0.1194469E+00
          2   -1    0    0  501    0  0.00000000000E+00  0.00000000000E+00  0.14183324150E+04  0.14183324150E+04  0.00000000000E+00 0. -1.
         -2   -1    0    0    0  501 -0.00000000000E+00 -0.00000000000E+00 -0.25886071870E+02  0.25886071870E+02  0.00000000000E+00 0.  1.
         25    2    1    2    0    0  0.12702512206E+03  0.27557578902E+02  0.10657026047E+04  0.10808626611E+04  0.12508896248E+03 0.  0.
          5    1    3    3  502    0  0.35108525668E+02 -0.48718712442E+02  0.40260737487E+03  0.40708266018E+03  0.41800000000E+01 0.  1.
         -5    1    3    3    0  502  0.91916596390E+02  0.76276291344E+02  0.66309522987E+03  0.67378000088E+03  0.41800000000E+01 0.  1.
        -11    1    1    2    0    0 -0.72977815620E+02 -0.11412091612E+02  0.74607763698E+02  0.10498721737E+03  0.00000000000E+00 0.  1.
         11    1    1    2    0    0 -0.54047306439E+02 -0.16145487290E+02  0.25213597471E+03  0.25836860845E+03  0.00000000000E+00 0. -1.
</event>
<event>
 7    1  0.2899775E-009  0.9731605E+02  0.7561462E-02  0.1286043E+00
          3   -1    0    0  501    0  0.00000000000E+00  0.00000000000E+00  0.40345779827E+03  0.40345779827E+03  0.00000000000E+00 0. -1.
         -3   -1    0    0    0  501 -0.00000000000E+00 -0.00000000000E+00 -0.35844579193E+02  0.35844579193E+02  0.00000000000E+00 0.  1.
         25    2    1    2    0    0  0.16026478180E+02 -0.53405995852E+02  0.20537671101E+03  0.24685256527E+03  0.12509015614E+03 0.  0.
          5    1    3    3  502    0  0.74040521501E+01 -0.70992504489E+02  0.21356482341E+03  0.22521581179E+03  0.41800000000E+01 0. -1.
         -5    1    3    3    0  502  0.86224260296E+01  0.17586508637E+02 -0.81881124016E+01  0.21636753485E+02  0.41800000000E+01 0. -1.
        -11    1    1    2    0    0 -0.74643559547E+01 -0.24047510435E+02  0.32548615024E+02  0.41151083922E+02  0.00000000000E+00 0. -1.
         11    1    1    2    0    0 -0.85621222251E+01  0.77453506287E+02  0.12968789305E+03  0.15129872827E+03  0.00000000000E+00 0.  1.
</event>
<event>
 7    1  0.2899775E-009  0.1029818E+03  0.7561462E-02  0.1274148E+00
         -2   -1    0    0    0  501 -0.00000000000E+00  0.00000000000E+00  0.49331139729E+02  0.49331139729E+02  0.00000000000E+00 0.  1.
          2   -1    0    0  501    0  0.00000000000E+00 -0.00000000000E+00 -0.31205573032E+03  0.31205573032E+03  0.00000000000E+00 0. -1.
         25    2    1    2    0    0 -0.48471385722E+02 -0.29214641584E+02 -0.12446859106E+03  0.18531732372E+03  0.12508840791E+03 0.  0.
          5    1    3    3  502    0 -0.63430824907E+02  0.20373223892E+01 -0.13469079180E+03  0.14895201249E+03  0.41800000000E+01 0. -1.
         -5    1    3    3    0  502  0.14959439185E+02 -0.31251963974E+02  0.10222200736E+02  0.36365311230E+02  0.41800000000E+01 0. -1.
        -11    1    1    2    0    0  0.75919019927E+02  0.22920526861E+02 -0.87995219448E+02  0.11845761598E+03  0.00000000000E+00 0.  1.
         11    1    1    2    0    0 -0.27447634204E+02  0.62941147231E+01 -0.50260780077E+02  0.57611930340E+02  0.00000000000E+00 0. -1.
</event>
<event>
 7    1  0.2899775E-009  0.1057359E+03  0.7561462E-02  0.1268677E+00
          1   -1    0    0  501    0  0.00000000000E+00  0.00000000000E+00  0.23414726995E+02  0.23414726995E+02  0.00000000000E+00 0. -1.
         -1   -1    0    0    0  501 -0.00000000000E+00 -0.00000000000E+00 -0.67991654293E+03  0.67991654293E+03  0.00000000000E+00 0.  1.
         25    2    1    2    0    0 -0.62918059819E+02  0.82797096895E+01 -0.34533375537E+03  0.37273282426E+03  0.12508844806E+03 0.  0.
          5    1    3    3  502    0 -0.81916492849E+02 -0.85042382645E+01 -0.33506629869E+03  0.34506453134E+03  0.41800000000E+01 0.  1.
         -5    1    3    3    0  502  0.18998433030E+02  0.16783947954E+02 -0.10267456680E+02  0.27668292921E+02  0.41800000000E+01 0.  1.
        -11    1    1    2    0    0  0.26354937360E+01  0.31164555867E+02 -0.16143097189E+03  0.16443276454E+03  0.00000000000E+00 0. -1.
         11    1    1    2    0    0  0.60282566083E+02 -0.39444265556E+02 -0.14973708867E+03  0.16616568112E+03  0.00000000000E+00 0.  1.
</event>
<event>
 7    1  0.2899775E-009  0.1177834E+03  0.7561462E-02  0.1246799E+00
          2   -1    0    0  501    0  0.00000000000E+00  0.00000000000E+00  0.14287317460E+03  0.14287317460E+03  0.00000000000E+00 0. -1.
         -2   -1    0    0    0  501 -0.00000000000E+00 -0.00000000000E+00 -0.17436600525E+03  0.17436600525E+03  0.00000000000E+00 0.  1.
         25    2    1    2    0    0 -0.83515887538E+01 -0.73298641338E+02  0.70288075626E+02  0.16132153029E+03  0.12506711280E+03 0.  0.
          5    1    3    3  502    0 -0.65259881221E+02 -0.52860252113E+02  0.34165638166E+02  0.90762445878E+02  0.41800000000E+01 0. -1.
         -5    1    3    3    0  502  0.56908292467E+02 -0.20438389226E+02  0.36122437460E+02  0.70559084417E+02  0.41800000000E+01 0. -1.
        -11    1    1    2    0    0 -0.22677217139E+02  0.30653932495E+02  0.33734486112E+01  0.38279236018E+02  0.00000000000E+00 0.  1.
         11    1    1    2    0    0  0.31028805893E+02  0.42644708843E+02 -0.10515435488E+03  0.11763841353E+03  0.00000000000E+00 0. -1.
</event>
<event>
 7    1  0.2899775E-009  0.1118557E+03  0.7561462E-02  0.1257171E+00
         -2   -1    0    0    0  501 -0.00000000000E+00  0.00000000000E+00  0.81348418003E+02  0.81348418003E+02  0.00000000000E+00 0.  1.
          2   -1    0    0  501    0  0.00000000000E+00 -0.00000000000E+00 -0.24811874256E+03  0.24811874256E+03  0.00000000000E+00 0. -1.
         25    2    1    2    0    0 -0.89862611758E+02  0.57133314266E+01 -0.91893073382E+02  0.17943143279E+03  0.12507346237E+03 0.  0.
          5    1    3    3  502    0 -0.83438487166E+02  0.36028009717E+02 -0.97056529375E+01  0.91496834501E+02  0.41800000000E+01 0. -1.
         -5    1    3    3    0  502 -0.64241245921E+01 -0.30314678290E+02 -0.82187420445E+02  0.87934598288E+02  0.41800000000E+01 0. -1.
        -11    1    1    2    0    0  0.19303988182E+02 -0.21773881377E+02  0.16518949884E+02  0.33460746783E+02  0.00000000000E+00 0.  1.
         11    1    1    2    0    0  0.70558623576E+02  0.16060549951E+02 -0.91396201063E+02  0.11657498100E+03  0.00000000000E+00 0. -1.
</event>
<event>
 7    1  0.2899775E-009  0.9504351E+02  0.7561462E-02  0.1291078E+00
          1   -1    0    0  501    0  0.00000000000E+00  0.00000000000E+00  0.47055718527E+03  0.47055718527E+03  0.00000000000E+00 0. -1.
         -1   -1    0    0    0  501 -0.00000000000E+00 -0.00000000000E+00 -0.29891624466E+02  0.29891624466E+02  0.00000000000E+00 0.  1.
         25    2    1    2    0    0  0.12393057121E+02  0.33940689925E+02  0.18466504377E+03  0.22595252700E+03  0.12509119781E+03 0.  0.
          5    1    3    3  502    0  0.11092812784E+02 -0.29038577395E+02  0.60945770051E+00  0.31370899115E+02  0.41800000000E+01 0. -1.
         -5    1    3    3    0  502  0.13002443370E+01  0.62979267321E+02  0.18405558607E+03  0.19458162788E+03  0.41800000000E+01 0. -1.
        -11    1    1    2    0    0  0.30221208040E+02  0.12372010234E+02  0.55982771365E+02  0.64810946161E+02  0.00000000000E+00 0.  1.
         11    1    1    2    0    0 -0.42614265161E+02 -0.46312700159E+02  0.20001774567E+03  0.20968533657E+03  0.00000000000E+00 0. -1.
</event>
<event>
 7    1  0.2899775E-009  0.1063982E+03  0.7561462E-02  0.1267389E+00
          1   -1    0    0  501    0  0.00000000000E+00  0.00000000000E+00  0.54280370889E+03  0.54280370889E+03  0.00000000000E+00 0. -1.
         -1   -1    0    0    0  501 -0.00000000000E+00 -0.00000000000E+00 -0.26377375938E+02  0.26377375938E+02  0.00000000000E+00 0.  1.
         25    2    1    2    0    0  0.37277446096E+02 -0.28955143696E+02  0.33948057717E+03  0.36485385078E+03  0.12507302596E+03 0.  0.
          5    1    3    3  502    0  0.79395031955E+02 -0.97566429386E+01  0.26696788052E+03  0.27872582372E+03  0.41800000000E+01 0.  1.
         -5    1    3    3    0  502 -0.42117585859E+02 -0.19198500757E+02  0.72512696652E+02  0.86128027062E+02  0.41800000000E+01 0.  1.
        -11    1    1    2    0    0 -0.49419692797E+02 -0.54648308199E+01  0.43774516232E+02  0.66244838919E+02  0.00000000000E+00 0.  1.
         11    1    1    2    0    0  0.12142246701E+02  0.34419974516E+02  0.13317123956E+03  0.13808239513E+03  0.00000000000E+00 0. -1.
</event>
<event>
 7    1  0.2899775E-009  0.1254448E+03  0.7561462E-02  0.1234376E+00
          1   -1    0    0  501    0  0.00000000000E+00  0.00000000000E+00  0.59401403628E+03  0.59401403628E+03  0.00000000000E+00 0. -1.
         -1   -1    0    0    0  501 -0.00000000000E+00 -0.00000000000E+00 -0.28336263766E+02  0.28336263766E+02  0.00000000000E+00 0.  1.
         25    2    1    2    0    0 -0.33838064614E+02 -0.54079689892E+02  0.38549175088E+03  0.41027014350E+03  0.12509225866E+03 0.  0.
          5    1    3    3  502    0  0.39850037030E+02 -0.52712011315E+02  0.16711036734E+03  0.17974962827E+03  0.41800000000E+01 0. -1.
         -5    1    3    3    0  502 -0.73688101644E+02 -0.13676785773E+01  0.21838138353E+03  0.23052051523E+03  0.41800000000E+01 0. -1.
        -11    1    1    2    0    0  0.19076011402E+02  0.79339790206E+02  0.14434696109E+03  0.16581538438E+03  0.00000000000E+00 0. -1.
         11    1    1    2    0    0  0.14762053212E+02 -0.25260100313E+02  0.35839060543E+02  0.46264772165E+02  0.00000000000E+00 0.  1.
</event>
<event>
 7    1  0.3608083E-009  0.1107330E+03  0.7561462E-02  0.1259218E+00
         -2   -1    0    0    0  501 -0.00000000000E+00  0.00000000000E+00  0.10759855432E+02  0.10759855432E+02  0.00000000000E+00 0.  1.
          2   -1    0    0  501    0  0.00000000000E+00 -0.00000000000E+00 -0.13959973884E+04  0.13959973884E+04  0.00000000000E+00 0. -1.
         25    2    1    2    0    0 -0.39535756484E+02  0.24683924452E+00 -0.10167544688E+04  0.10251835993E+04  0.12509446564E+03 0.  0.
          5    1    3    3  502    0  0.35832469437E+02 -0.26894487562E+02 -0.52551978616E+03  0.52744269582E+03  0.41800000000E+01 0. -1.
         -5    1    3    3    0  502 -0.75368225921E+02  0.27141326806E+02 -0.49123468266E+03  0.49774090343E+03  0.41800000000E+01 0. -1.
        -11    1    1    2    0    0  0.37817368730E+01  0.41281465208E+02 -0.11523549526E+03  0.12246501652E+03  0.00000000000E+00 0.  1.
         11    1    1    2    0    0  0.35754019611E+02 -0.41528304453E+02 -0.25324756890E+03  0.25910862808E+03  0.00000000000E+00 0. -1.
</event>
<event>
 7    1  0.2899775E-009  0.1430299E+03  0.7561462E-02  0.1209309E+00
         -1   -1    0    0    0  501 -0.00000000000E+00  0.00000000000E+00  0.34222280442E+02  0.34222280442E+02  0.00000000000E+00 0.  1.
          1   -1    0    0  501    0  0.00000000000E+00 -0.00000000000E+00 -0.73595441548E+03  0.73595441548E+03  0.00000000000E+00 0. -1.
         25    2    1    2    0    0 -0.43212426624E+02  0.10775287496E+03 -0.37316627799E+03  0.41034292293E+03  0.12510094922E+03 0.  0.
          5    1    3    3  502    0  0.10163829960E+02 -0.24524293914E+02 -0.77804514120E+02  0.82315000145E+02  0.41800000000E+01 0. -1.
         -5    1    3    3    0  502 -0.53376256584E+02  0.13227716887E+03 -0.29536176387E+03  0.32802792278E+03  0.41800000000E+01 0. -1.
        -11    1    1    2    0    0  0.25784012176E+02 -0.76113555306E+02 -0.30790729574E+03  0.31822160730E+03  0.00000000000E+00 0. -1.
         11    1    1    2    0    0  0.17428414447E+02 -0.31639319650E+02 -0.20658561315E+02  0.41612165693E+02  0.00000000000E+00 0.  1.
</event>
<event>
 7    1  0.2899775E-009  0.9475008E+02  0.7561462E-02  0.1291740E+00
         -3   -1    0    0    0  501 -0.00000000000E+00  0.00000000000E+00  0.82086455347E+02  0.82086455347E+02  0.00000000000E+00 0.  1.
          3   -1    0    0  501    0  0.00000000000E+00 -0.00000000000E+00 -0.18853088812E+03  0.18853088812E+03  0.00000000000E+00 0. -1.
         25    2    1    2    0    0  0.26290116757E+02 -0.50516528125E+02 -0.79396334290E+02  0.15872829836E+03  0.12509118654E+03 0.  0.
          5    1    3    3  502    0  0.15558195440E+02  0.37877973882E+02 -0.50220338611E+02  0.64933451787E+02  0.41800000000E+01 0.  1.
         -5    1    3    3    0  502  0.10731921317E+02 -0.88394502007E+02 -0.29175995678E+02  0.93794846575E+02  0.41800000000E+01 0.  1.
        -11    1    1    2    0    0  0.12733462362E+01  0.10672187628E+02  0.33015396040E+02  0.34720791683E+02  0.00000000000E+00 0.  1.
         11    1    1    2    0    0 -0.27563462993E+02  0.39844340497E+02 -0.60063494526E+02  0.77168253424E+02  0.00000000000E+00 0. -1.
</event>
<event>
 7    1  0.2899775E-009  0.8529385E+02  0.7561462E-02  0.1314666E+00
          2   -1    0    0  501    0  0.00000000000E+00  0.00000000000E+00  0.25113878542E+02  0.25113878542E+02  0.00000000000E+00 0. -1.
         -2   -1    0    0    0  501 -0.00000000000E+00 -0.00000000000E+00 -0.61449743155E+03  0.61449743155E+03  0.00000000000E+00 0.  1.
         25    2    1    2    0    0 -0.58463693130E+02  0.50968790926E+01 -0.36242212179E+03  0.38786745256E+03  0.12508950718E+03 0.  0.
          5    1    3    3  502    0 -0.73856662092E+02  0.30187300017E+02 -0.34339912227E+03  0.35257128242E+03  0.41800000000E+01 0. -1.
         -5    1    3    3    0  502  0.15392968962E+02 -0.25090420924E+02 -0.19022999521E+02  0.35296170138E+02  0.41800000000E+01 0. -1.
        -11    1    1    2    0    0  0.42323985365E+02  0.38621082727E+01 -0.22923811256E+03  0.23314447853E+03  0.00000000000E+00 0.  1.
         11    1    1    2    0    0  0.16139707765E+02 -0.89589873653E+01  0.22766813383E+01  0.18599379002E+02  0.00000000000E+00 0. -1.
</event>
<event>
 7    1  0.2899775E-009  0.1614836E+03  0.7561462E-02  0.1187032E+00
          2   -1    0    0  501    0  0.00000000000E+00  0.00000000000E+00  0.14487286517E+03  0.14487286517E+03  0.00000000000E+00 0. -1.
         -2   -1    0    0    0  501 -0.00000000000E+00 -0.00000000000E+00 -0.18471281080E+03  0.18471281080E+03  0.00000000000E+00 0.  1.
         25    2    1    2    0    0 -0.98999465538E+02  0.66683087248E+02  0.32161393494E+01  0.17293034014E+03  0.12508809171E+03 0.  0.
          5    1    3    3  502    0 -0.88945432337E+02  0.10221068366E+03 -0.76093732304E+00  0.13555945269E+03  0.41800000000E+01 0. -1.
         -5    1    3    3    0  502 -0.10054033201E+02 -0.35527596412E+02  0.39770766724E+01  0.37370887456E+02  0.41800000000E+01 0. -1.
        -11    1    1    2    0    0  0.61579794391E+02 -0.87832003885E+02 -0.25724206946E+02  0.11030986722E+03  0.00000000000E+00 0.  1.
         11    1    1    2    0    0  0.37419671147E+02  0.21148916637E+02 -0.17331878033E+02  0.46345468601E+02  0.00000000000E+00 0. -1.
</event>
<event>
 7    1  0.2954079E-009  0.9262449E+02  0.7561462E-02  0.1296618E+00
         -3   -1    0    0    0  501 -0.00000000000E+00  0.00000000000E+00  0.15346606689E+03  0.15346606689E+03  0.00000000000E+00 0.  1.
          3   -1    0    0  501    0  0.00000000000E+00 -0.00000000000E+00 -0.86368724549E+02  0.86368724549E+02  0.00000000000E+00 0. -1.
         25    2    1    2    0    0 -0.12535401541E+02  0.30595521896E+02  0.61289482764E+02  0.14316877531E+03  0.12509066821E+03 0.  0.
          5    1    3    3  502    0 -0.43717183399E+02 -0.35113683096E+02  0.31594464230E+02  0.64496863760E+02  0.41800000000E+01 0. -1.
         -5    1    3    3    0  502  0.31181781859E+02  0.65709204992E+02  0.29695018534E+02  0.78671911546E+02  0.41800000000E+01 0. -1.
        -11    1    1    2    0    0  0.14770670408E+02  0.84779385813E+01  0.40771564773E+02  0.44185615770E+02  0.00000000000E+00 0.  1.
         11    1    1    2    0    0 -0.22352688676E+01 -0.39073460478E+02 -0.34963705199E+02  0.52480400359E+02  0.00000000000E+00 0. -1.
</event>
<event>
 7    1  0.3156517E-009  0.9779971E+02  0.7561462E-02  0.1284992E+00
          1   -1    0    0  501    0  0.00000000000E+00  0.00000000000E+00  0.23078619364E+03  0.23078619364E+03  0.00000000000E+00 0. -1.
         -1   -1    0    0    0  501 -0.00000000000E+00 -0.00000000000E+00 -0.86749182538E+02  0.86749182538E+02  0.00000000000E+00 0.  1.
         25    2    1    2    0    0 -0.44034517835E+02 -0.70106908091E+01 -0.10099769918E+02  0.13320367477E+03  0.12511205007E+03 0.  0.
          5    1    3    3  502    0 -0.43966880113E+01 -0.61395692581E+02  0.10755819618E+02  0.62625250408E+02  0.41800000000E+01 0. -1.
         -5    1    3    3    0  502 -0.39637829824E+02  0.54385001772E+02 -0.20855589536E+02  0.70578424364E+02  0.41800000000E+01 0. -1.
        -11    1    1    2    0    0  0.18679052370E+02 -0.21395266878E+02  0.31013446382E+01  0.28570662939E+02  0.00000000000E+00 0.  1.
         11    1    1    2    0    0  0.25355465465E+02  0.28405957687E+02  0.15103543638E+03  0.15576103847E+03  0.00000000000E+00 0. -1.
</event>
<event>
 7    1  0.2899775E-009  0.1164078E+03  0.7561462E-02  0.1249143E+00
         -2   -1    0    0    0  501 -0.00000000000E+00  0.00000000000E+00  0.53442164631E+02  0.53442164631E+02  0.00000000000E+00 0.  1.
          2   -1    0    0  501    0  0.00000000000E+00 -0.00000000000E+00 -0.28682480628E+03  0.28682480628E+03  0.00000000000E+00 0. -1.
         25    2    1    2    0    0 -0.18168912463E+02 -0.54801187056E+02 -0.12743948988E+03  0.18767427215E+03  0.12509008499E+03 0.  0.
          5    1    3    3  502    0  0.21958045192E+02 -0.84537705712E+02 -0.85930711215E+02  0.12259828288E+03  0.41800000000E+01 0. -1.
         -5    1    3    3    0  502 -0.40126957656E+02  0.29736518656E+02 -0.41508778664E+02  0.65075989263E+02  0.41800000000E+01 0. -1.
        -11    1    1    2    0    0 -0.28220060699E+02  0.79412210105E+01 -0.18522656586E+01  0.29374575828E+02  0.00000000000E+00 0.  1.
         11    1    1    2    0    0  0.46388973162E+02  0.46859966046E+02 -0.10409088612E+03  0.12321812294E+03  0.00000000000E+00 0. -1.
</event>
<event>
 7    1  0.2899775E-009  0.1671845E+03  0.7561462E-02  0.1180816E+00
         -1   -1    0    0    0  501 -0.00000000000E+00  0.00000000000E+00  0.44855175218E+02  0.44855175218E+02  0.00000000000E+00 0.  1.
          1   -1    0    0  501    0  0.00000000000E+00 -0.00000000000E+00 -0.74281944208E+03  0.74281944208E+03  0.00000000000E+00 0. -1.
         25    2    1    2    0    0 -0.13956412495E+03 -0.41676563304E+02 -0.39191138078E+03  0.43641409908E+03  0.12509058551E+03 0.  0.
          5    1    3    3  502    0 -0.78218462233E+02  0.37060980314E+02 -0.23426991304E+03  0.24978292306E+03  0.41800000000E+01 0. -1.
         -5    1    3    3    0  502 -0.61345662721E+02 -0.78737543618E+02 -0.15764146774E+03  0.18663117601E+03  0.41800000000E+01 0. -1.
        -11    1    1    2    0    0  0.12316226012E+03  0.27643738668E+02 -0.30449172829E+03  0.32961846308E+03  0.00000000000E+00 0. -1.
         11    1    1    2    0    0  0.16401864829E+02  0.14032824636E+02 -0.15611577909E+01  0.21642055142E+02  0.00000000000E+00 0.  1.
</event>
<event>
 7    1  0.2899775E-009  0.1332017E+03  0.7561462E-02  0.1222781E+00
         -2   -1    0    0    0  501 -0.00000000000E+00  0.00000000000E+00  0.83345117164E+02  0.83345117164E+02  0.00000000000E+00 0.  1.
          2   -1    0    0  501    0  0.00000000000E+00 -0.00000000000E+00 -0.32646929150E+03  0.32646929150E+03  0.00000000000E+00 0. -1.
         25    2    1    2    0    0  0.82765780443E+02 -0.89710523853E+02 -0.10197193359E+03  0.20233101574E+03  0.12506563152E+03 0.  0.
          5    1    3    3  502    0 -0.10292634051E+02 -0.25485421689E+02  0.21286250271E+02  0.35014595314E+02  0.41800000000E+01 0. -1.
         -5    1    3    3    0  502  0.93058414494E+02 -0.64225102164E+02 -0.12325818386E+03  0.16731642043E+03  0.41800000000E+01 0. -1.
        -11    1    1    2    0    0 -0.15813435569E+02  0.33207351700E+01  0.11431488917E+02  0.19793205031E+02  0.00000000000E+00 0.  1.
         11    1    1    2    0    0 -0.66952344874E+02  0.86389788683E+02 -0.15258372966E+03  0.18769018789E+03  0.00000000000E+00 0. -1.
</event>
<event>
 7    1  0.2899775E-009  0.5462490E+02  0.7561462E-02  0.1421881E+00
         -1   -1    0    0    0  501 -0.00000000000E+00  0.00000000000E+00  0.46727972233E+02  0.46727972233E+02  0.00000000000E+00 0.  1.
          1   -1    0    0  501    0  0.00000000000E+00 -0.00000000000E+00 -0.27772013618E+03  0.27772013618E+03  0.00000000000E+00 0. -1.
         25    2    1    2    0    0  0.24049894731E+02 -0.22711987653E+02 -0.14790605398E+03  0.19652343419E+03  0.12510406692E+03 0.  0.
          5    1    3    3  502    0  0.26543422362E+02 -0.10880077327E+02  0.15325438794E+02  0.32791322443E+02  0.41800000000E+01 0.  1.
         -5    1    3    3    0  502 -0.24935276306E+01 -0.11831910326E+02 -0.16323149278E+03  0.16373211174E+03  0.41800000000E+01 0.  1.
        -11    1    1    2    0    0  0.13104975211E+02  0.27051604630E+02 -0.85310503166E+02  0.90451156094E+02  0.00000000000E+00 0. -1.
         11    1    1    2    0    0 -0.37154869942E+02 -0.43396169764E+01  0.22243932053E+01  0.37473518130E+02  0.00000000000E+00 0.  1.
</event>
<event>
 7    1  0.2899775E-009  0.6892295E+02  0.7561462E-02  0.1363794E+00
         -1   -1    0    0    0  501 -0.00000000000E+00  0.00000000000E+00  0.37844575745E+03  0.37844575745E+03  0.00000000000E+00 0.  1.
          1   -1    0    0  501    0  0.00000000000E+00 -0.00000000000E+00 -0.36323488891E+02  0.36323488891E+02  0.00000000000E+00 0. -1.
         25    2    1    2    0    0 -0.22426124348E+02 -0.30044603443E+02  0.24683521262E+03  0.27925042833E+03  0.12509024857E+03 0.  0.
          5    1    3    3  502    0 -0.10752803496E+02 -0.27642232509E+02 -0.20704275262E+01  0.30024571125E+02  0.41800000000E+01 0. -1.
         -5    1    3    3    0  502 -0.11673320853E+02 -0.24023709337E+01  0.24890564014E+03  0.24922585721E+03  0.41800000000E+01 0. -1.
        -11    1    1    2    0    0  0.31464462011E+02  0.57944231705E+02  0.56096031598E+02  0.86569689375E+02  0.00000000000E+00 0.  1.
         11    1    1    2    0    0 -0.90383376624E+01 -0.27899628262E+02  0.39191024348E+02  0.48949128637E+02  0.00000000000E+00 0. -1.
</event>
<event>
 7    1  0.2899775E-009  0.9540334E+02  0.7561462E-02  0.1290270E+00
         -2   -1    0    0    0  501 -0.00000000000E+00  0.00000000000E+00  0.36820074238E+02  0.36820074238E+02  0.00000000000E+00 0.  1.
          2   -1    0    0  501    0  0.00000000000E+00 -0.00000000000E+00 -0.38119660657E+03  0.38119660657E+03  0.00000000000E+00 0. -1.
         25    2    1    2    0    0  0.13352110850E+02 -0.43804044369E+02 -0.22738580834E+03  0.26353120181E+03  0.12508922945E+03 0.  0.
          5    1    3    3  502    0  0.83831693543E+01  0.38407036284E+02 -0.13021204297E+03  0.13608095568E+03  0.41800000000E+01 0.  1.
         -5    1    3    3    0  502  0.49689414959E+01 -0.82211080653E+02 -0.97173765371E+02  0.12745024613E+03  0.41800000000E+01 0.  1.
        -11    1    1    2    0    0 -0.49876290973E+01  0.54780120468E+02 -0.12635451431E+03  0.13780856769E+03  0.00000000000E+00 0. -1.
         11    1    1    2    0    0 -0.83644817530E+01 -0.10976076099E+02  0.93637903216E+01  0.16676911306E+02  0.00000000000E+00 0.  1.
</event>
<event>
 7    1  0.2899775E-009  0.1094454E+03  0.7561462E-02  0.1261600E+00
         -2   -1    0    0    0  501 -0.00000000000E+00  0.00000000000E+00  0.61179292542E+02  0.61179292542E+02  0.00000000000E+00 0.  1.
          2   -1    0    0  501    0  0.00000000000E+00 -0.00000000000E+00 -0.35611353739E+03  0.35611353739E+03  0.00000000000E+00 0. -1.
         25    2    1    2    0    0  0.32447170371E+02  0.94314337424E+02 -0.17934505991E+03  0.24032544607E+03  0.12507460336E+03 0.  0.
          5    1    3    3  502    0 -0.97871364276E+01  0.54531474848E+02 -0.41381987601E+01  0.55714153296E+02  0.41800000000E+01 0. -1.
         -5    1    3    3    0  502  0.42234306799E+02  0.39782862576E+02 -0.17520686115E+03  0.18461129277E+03  0.41800000000E+01 0. -1.
        -11    1    1    2    0    0 -0.30994333134E+02 -0.38954832582E+02 -0.11069443903E+03  0.12137292326E+03  0.00000000000E+00 0. -1.
         11    1    1    2    0    0 -0.14528372368E+01 -0.55359504842E+02 -0.48947459074E+01  0.55594460604E+02  0.00000000000E+00 0.  1.
</event>
<event>
 7    1  0.2899775E-009  0.2010397E+03  0.7561462E-02  0.1148865E+00
          1   -1    0    0  501    0  0.00000000000E+00  0.00000000000E+00  0.98584170281E+02  0.98584170281E+02  0.00000000000E+00 0. -1.
         -1   -1    0    0    0  501 -0.00000000000E+00 -0.00000000000E+00 -0.55930405277E+03  0.55930405277E+03  0.00000000000E+00 0.  1.
         25    2    1    2    0    0 -0.65672881003E+02 -0.17520104482E+03 -0.36850748334E+03  0.43180077696E+03  0.12508322148E+03 0.  0.
          5    1    3    3  502    0  0.34487163261E+01 -0.97014132688E+02 -0.83000070465E+02  0.12778935669E+03  0.41800000000E+01 0. -1.
         -5    1    3    3    0  502 -0.69121597329E+02 -0.78186912132E+02 -0.28550741288E+03  0.30401142027E+03  0.41800000000E+01 0. -1.
        -11    1    1    2    0    0  0.71523963086E+02  0.89492904211E+02 -0.79022106344E+02  0.13917309543E+03  0.00000000000E+00 0.  1.
         11    1    1    2    0    0 -0.58510820834E+01  0.85708140609E+02 -0.13190292806E+02  0.86914350670E+02  0.00000000000E+00 0. -1.
</event>
<event>
 7    1  0.2899775E-009  0.9314739E+02  0.7561462E-02  0.1295404E+00
          2   -1    0    0  501    0  0.00000000000E+00  0.00000000000E+00  0.15305290016E+03  0.15305290016E+03  0.00000000000E+00 0.  1.
         -2   -1    0    0    0  501 -0.00000000000E+00 -0.00000000000E+00 -0.11345660392E+03  0.11345660392E+03  0.00000000000E+00 0. -1.
         25    2    1    2    0    0  0.29722446309E+02 -0.58301113849E+02  0.59023728532E+02  0.15301574061E+03  0.12509025803E+03 0.  0.
          5    1    3    3  502    0 -0.83075613280E+01 -0.16414402081E+02  0.87520639185E+02  0.89530904464E+02  0.41800000000E+01 0. -1.
         -5    1    3    3    0  502  0.38030007637E+02 -0.41886711768E+02 -0.28496910653E+02  0.63484836145E+02  0.41800000000E+01 0. -1.
        -11    1    1    2    0    0  0.25150810760E+02  0.48952284496E+02 -0.17668807329E+02  0.57802043144E+02  0.00000000000E+00 0. -1.
         11    1    1    2    0    0 -0.54873257069E+02  0.93488293534E+01 -0.17586249683E+01  0.55691720331E+02  0.00000000000E+00 0.  1.
</event>
<event>
 7    1  0.2899775E-009  0.1282981E+03  0.7561462E-02  0.1230003E+00
          1   -1    0    0  501    0  0.00000000000E+00  0.00000000000E+00  0.68767107524E+03  0.68767107524E+03  0.00000000000E+00 0. -1.
         -1   -1    0    0    0  501 -0.00000000000E+00 -0.00000000000E+00 -0.28794574104E+02  0.28794574104E+02  0.00000000000E+00 0.  1.
         25    2    1    2    0    0 -0.78176447387E+01 -0.74280955841E+02  0.23530873916E+03  0.27676947706E+03  0.12510941107E+03 0.  0.
          5    1    3    3  502    0 -0.10882438058E+02  0.32438366188E+02  0.31701860331E+02  0.46831137158E+02  0.41800000000E+01 0.  1.
         -5    1    3    3    0  502  0.30647933195E+01 -0.10671932203E+03  0.20360687883E+03  0.22993833990E+03  0.41800000000E+01 0.  1.
        -11    1    1    2    0    0  0.19770826546E+02 -0.15242001774E+02  0.13622146779E+03  0.13849004473E+03  0.00000000000E+00 0. -1.
         11    1    1    2    0    0 -0.11953181807E+02  0.89522957615E+02  0.28734629419E+03  0.30120612756E+03  0.00000000000E+00 0.  1.
</event>
<event>
 7    1  0.2899775E-009  0.1363586E+03  0.7561462E-02  0.1218314E+00
         -2   -1    0    0    0  501 -0.00000000000E+00  0.00000000000E+00  0.21282724443E+02  0.21282724443E+02  0.00000000000E+00 0.  1.
          2   -1    0    0  501    0  0.00000000000E+00 -0.00000000000E+00 -0.96698744563E+03  0.96698744563E+03  0.00000000000E+00 0. -1.
         25    2    1    2    0    0 -0.45665161517E+02 -0.79142899973E+02 -0.59083028272E+03  0.61079917458E+03  0.12508518338E+03 0.  0.
          5    1    3    3  502    0  0.38180932920E+02 -0.47191181914E+02 -0.17200867434E+03  0.18245341251E+03  0.41800000000E+01 0. -1.
         -5    1    3    3    0  502 -0.83846094436E+02 -0.31951718060E+02 -0.41882160838E+03  0.42834576207E+03  0.41800000000E+01 0. -1.
        -11    1    1    2    0    0  0.67762337375E+02  0.44885283930E+02 -0.17383472056E+03  0.19189823645E+03  0.00000000000E+00 0.  1.
         11    1    1    2    0    0 -0.22097175859E+02  0.34257616043E+02 -0.18103971791E+03  0.18557275905E+03  0.00000000000E+00 0. -1.
</event>
<event>
 7    1  0.2899775E-009  0.8651484E+02  0.7561462E-02  0.1311518E+00
         -2   -1    0    0    0  501 -0.00000000000E+00  0.00000000000E+00  0.35897966286E+02  0.35897966286E+02  0.00000000000E+00 0. -1.
          2   -1    0    0  501    0  0.00000000000E+00 -0.00000000000E+00 -0.47449124241E+03  0.47449124241E+03  0.00000000000E+00 0.  1.
         25    2    1    2    0    0  0.27939973780E+02  0.17686838842E+02 -0.36500828763E+03  0.38725944180E+03  0.12508140879E+03 0.  0.
          5    1    3    3  502    0  0.66964542885E+01 -0.40905593785E+02 -0.27231585414E+03  0.27548413188E+03  0.41800000000E+01 0. -1.
         -5    1    3    3    0  502  0.21243519491E+02  0.58592432628E+02 -0.92692433483E+02  0.11177530992E+03  0.41800000000E+01 0. -1.
        -11    1    1    2    0    0 -0.46925714913E+02 -0.16988140355E+02 -0.29597559379E+01  0.49993797496E+02  0.00000000000E+00 0. -1.
         11    1    1    2    0    0  0.18985741133E+02 -0.69869848770E+00 -0.70625232563E+02  0.73135969403E+02  0.00000000000E+00 0.  1.
</event>
<event>
 7    1  0.2899775E-009  0.1177606E+03  0.7561462E-02  0.1246838E+00
          2   -1    0    0  501    0  0.00000000000E+00  0.00000000000E+00  0.48921652654E+03  0.48921652654E+03  0.00000000000E+00 0. -1.
         -2   -1    0    0    0  501 -0.00000000000E+00 -0.00000000000E+00 -0.48601543181E+02  0.48601543181E+02  0.00000000000E+00 0.  1.
         25    2    1    2    0    0 -0.86155058871E+02  0.56646035511E+02  0.17294986222E+03  0.23704617970E+03  0.12509104268E+03 0.  0.
          5    1    3    3  502    0 -0.10655433695E+02 -0.97809660168E+01  0.12438533226E+03  0.12529321149E+03  0.41800000000E+01 0.  1.
         -5    1    3    3    0  502 -0.75499625176E+02  0.66427001528E+02  0.48564529962E+02  0.11175296821E+03  0.41800000000E+01 0.  1.
        -11    1    1    2    0    0  0.30800077841E+02 -0.56627097546E+02  0.21466699838E+03  0.22413655027E+03  0.00000000000E+00 0. -1.
         11    1    1    2    0    0  0.55354981031E+02 -0.18937965813E-01  0.52998122756E+02  0.76635339754E+02  0.00000000000E+00 0.  1.
</event>
<event>
 7    1  0.2899775E-009  0.9492684E+02  0.7561462E-02  0.1291341E+00
         -1   -1    0    0    0  501 -0.00000000000E+00  0.00000000000E+00  0.14356877096E+02  0.14356877096E+02  0.00000000000E+00 0.  1.
          1   -1    0    0  501    0  0.00000000000E+00 -0.00000000000E+00 -0.74183008078E+03  0.74183008078E+03  0.00000000000E+00 0. -1.
         25    2    1    2    0    0 -0.13036185649E+02  0.14124736356E+02 -0.44801854626E+03  0.46555106003E+03  0.12509085256E+03 0.  0.
          5    1    3    3  502    0  0.42598026889E+02 -0.29009752231E+02 -0.25154985220E+03  0.25680918628E+03  0.41800000000E+01 0. -1.
         -5    1    3    3    0  502 -0.55634212538E+02  0.43134488587E+02 -0.19646869406E+03  0.20874187375E+03  0.41800000000E+01 0. -1.
        -11    1    1    2    0    0 -0.24079827064E+02  0.67945987549E+01 -0.38310855145E+02  0.45757253694E+02  0.00000000000E+00 0.  1.
         11    1    1    2    0    0  0.37116012713E+02 -0.20919335111E+02 -0.24114380228E+03  0.24487864415E+03  0.00000000000E+00 0. -1.
</event>
<event>
 7    1  0.2899775E-009  0.8442354E+02  0.7561462E-02  0.1316947E+00
         -2   -1    0    0    0  501 -0.00000000000E+00  0.00000000000E+00  0.13450753758E+03  0.13450753758E+03  0.00000000000E+00 0.  1.
          2   -1    0    0  501    0  0.00000000000E+00 -0.00000000000E+00 -0.13299522484E+03  0.13299522484E+03  0.00000000000E+00 0. -1.
         25    2    1    2    0    0 -0.21225129066E+02 -0.30892606921E+02  0.68726586769E+02  0.14758320062E+03  0.12511034374E+03 0.  0.
          5    1    3    3  502    0  0.50593946403E+02 -0.25134447859E+02  0.18259971091E+02  0.59517953813E+02  0.41800000000E+01 0.  1.
         -5    1    3    3    0  502 -0.71819075470E+02 -0.57581590622E+01  0.50466615678E+02  0.88065246806E+02  0.41800000000E+01 0.  1.
        -11    1    1    2    0    0  0.14998543459E+01  0.13937286120E+02  0.22500712281E+02  0.26509989827E+02  0.00000000000E+00 0.  1.
         11    1    1    2    0    0  0.19725274720E+02  0.16955320801E+02 -0.89714986310E+02  0.93409571966E+02  0.00000000000E+00 0. -1.
</event>
<event>
 7    1  0.2899775E-009  0.6831711E+02  0.7561462E-02  0.1365911E+00
         -1   -1    0    0    0  501 -0.00000000000E+00  0.00000000000E+00  0.24954086261E+02  0.24954086261E+02  0.00000000000E+00 0.  1.
          1   -1    0    0  501    0  0.00000000000E+00 -0.00000000000E+00 -0.48332867117E+03  0.48332867117E+03  0.00000000000E+00 0. -1.
         25    2    1    2    0    0 -0.16767709485E+01 -0.75293937854E+01 -0.30781271650E+03  0.33234874232E+03  0.12509002659E+03 0.  0.
          5    1    3    3  502    0  0.63304743464E+01  0.21464400968E+02 -0.30017202308E+03  0.30103406992E+03  0.41800000000E+01 0.  1.
         -5    1    3    3    0  502 -0.80072452949E+01 -0.28993794753E+02 -0.76406934196E+01  0.31314672397E+02  0.41800000000E+01 0.  1.
        -11    1    1    2    0    0 -0.28033083609E+02  0.33750664639E+02 -0.43540375171E+02  0.61812016714E+02  0.00000000000E+00 0.  1.
         11    1    1    2    0    0  0.29709854558E+02 -0.26221270853E+02 -0.10702149324E+03  0.11412199840E+03  0.00000000000E+00 0. -1.
</event>
<event>
 7    1  0.2899775E-009  0.1229317E+03  0.7561462E-02  0.1238338E+00
          2   -1    0    0  501    0  0.00000000000E+00  0.00000000000E+00  0.74811574301E+03  0.74811574301E+03  0.00000000000E+00 0. -1.
         -2   -1    0    0    0  501 -0.00000000000E+00 -0.00000000000E+00 -0.31493606702E+02  0.31493606702E+02  0.00000000000E+00 0.  1.
         25    2    1    2    0    0  0.60802306053E+02  0.83005579972E+02  0.47389703296E+03  0.50081201000E+03  0.12508966695E+03 0.  0.
          5    1    3    3  502    0  0.22671504115E+02  0.68070141550E+02  0.44439180619E+03  0.45016562627E+03  0.41800000000E+01 0. -1.
         -5    1    3    3    0  502  0.38130801938E+02  0.14935438422E+02  0.29505226773E+02  0.50646383723E+02  0.41800000000E+01 0. -1.
        -11    1    1    2    0    0 -0.29403386121E+02  0.12757574949E+02  0.32404871666E+02  0.45578399946E+02  0.00000000000E+00 0.  1.
         11    1    1    2    0    0 -0.31398919932E+02 -0.95763154921E+02  0.21032023168E+03  0.23321893977E+03  0.00000000000E+00 0. -1.
</event>
<event>
 7    1  0.2899775E-009  0.1032593E+03  0.7561462E-02  0.1273588E+00
         -2   -1    0    0    0  501 -0.00000000000E+00  0.00000000000E+00  0.94428510936E+02  0.94428510936E+02  0.00000000000E+00 0.  1.
          2   -1    0    0  501    0  0.00000000000E+00 -0.00000000000E+00 -0.35267681065E+03  0.35267681065E+03  0.00000000000E+00 0. -1.
         25    2    1    2    0    0 -0.60296316296E+02  0.23384656946E+02 -0.29620572106E+03  0.32797497956E+03  0.12508904863E+03 0.  0.
          5    1    3    3  502    0 -0.71260909839E+02 -0.23977731261E+02 -0.24879263252E+03  0.25993902220E+03  0.41800000000E+01 0.  1.
         -5    1    3    3    0  502  0.10964593543E+02  0.47362388206E+02 -0.47413088547E+02  0.68035957359E+02  0.41800000000E+01 0.  1.
        -11    1    1    2    0    0  0.25385110972E+02 -0.37065691018E+02 -0.20737802286E+02  0.49480559348E+02  0.00000000000E+00 0. -1.
         11    1    1    2    0    0  0.34911205324E+02  0.13681034073E+02  0.58695223633E+02  0.69649782683E+02  0.00000000000E+00 0.  1.
</event>
<event>
 7    1  0.2899775E-009  0.2559966E+03  0.7561462E-02  0.1109573E+00
          2   -1    0    0  501    0  0.00000000000E+00  0.00000000000E+00  0.18909020625E+03  0.18909020625E+03  0.00000000000E+00 0. -1.
         -2   -1    0    0    0  501 -0.00000000000E+00 -0.00000000000E+00 -0.35732750859E+03  0.35732750859E+03  0.00000000000E+00 0.  1.
         25    2    1    2    0    0  0.22747526338E+03 -0.30136114543E+02 -0.13228208804E+03  0.29291375763E+03  0.12508692076E+03 0.  0.
          5    1    3    3  502    0  0.24310520894E+03 -0.29607988051E+02 -0.12109651188E+03  0.27323728362E+03  0.41800000000E+01 0.  1.
         -5    1    3    3    0  502 -0.15629945557E+02 -0.52812649224E+00 -0.11185576158E+02  0.19676474016E+02  0.41800000000E+01 0.  1.
        -11    1    1    2    0    0 -0.11873698058E+03  0.66648476396E+02 -0.22560928605E+02  0.13801987344E+03  0.00000000000E+00 0.  1.
         11    1    1    2    0    0 -0.10873828280E+03 -0.36512361853E+02 -0.13394285695E+02  0.11548408377E+03  0.00000000000E+00 0. -1.
</event>
<event>
 7    1  0.2899775E-009  0.1431395E+03  0.7561462E-02  0.1209166E+00
          1   -1    0    0  501    0  0.00000000000E+00  0.00000000000E+00  0.34741719150E+03  0.34741719150E+03  0.00000000000E+00 0. -1.
         -1   -1    0    0    0  501 -0.00000000000E+00 -0.00000000000E+00 -0.80897856189E+02  0.80897856189E+02  0.00000000000E+00 0.  1.
         25    2    1    2    0    0 -0.12578537352E+03 -0.11645275441E+02  0.16768535782E+03  0.24438350139E+03  0.12508934364E+03 0.  0.
          5    1    3    3  502    0 -0.13484109234E+03 -0.10536098475E+02  0.18206756863E+03  0.22684620671E+03  0.41800000000E+01 0. -1.
         -5    1    3    3    0  502  0.90557188152E+01 -0.11091769669E+01 -0.14382210810E+02  0.17537294677E+02  0.41800000000E+01 0. -1.
        -11    1    1    2    0    0  0.36456694272E+02  0.32897104116E+02  0.74000260770E+02  0.88810746031E+02  0.00000000000E+00 0. -1.
         11    1    1    2    0    0  0.89328679249E+02 -0.21251828675E+02  0.24833716728E+02  0.95120800274E+02  0.00000000000E+00 0.  1.
</event>
<event>
 7    1  0.2899775E-009  0.7856383E+02  0.7561462E-02  0.1333177E+00
          1   -1    0    0  501    0  0.00000000000E+00  0.00000000000E+00  0.55971305544E+02  0.55971305544E+02  0.00000000000E+00 0. -1.
         -1   -1    0    0    0  501 -0.00000000000E+00 -0.00000000000E+00 -0.51789152684E+03  0.51789152684E+03  0.00000000000E+00 0.  1.
         25    2    1    2    0    0 -0.50770632170E+01  0.11419764655E+02 -0.46493319189E+03  0.48162926268E+03  0.12509071168E+03 0.  0.
          5    1    3    3  502    0 -0.54857517314E+02  0.32023721312E+02 -0.33349707713E+03  0.33951824515E+03  0.41800000000E+01 0.  1.
         -5    1    3    3    0  502  0.49780454097E+02 -0.20603956657E+02 -0.13143611476E+03  0.14211101753E+03  0.41800000000E+01 0.  1.
        -11    1    1    2    0    0 -0.15488934890E+02  0.79965954710E+00 -0.40063211417E+02  0.42960533847E+02  0.00000000000E+00 0.  1.
         11    1    1    2    0    0  0.20565998107E+02 -0.12219424202E+02  0.43076182013E+02  0.49273035859E+02  0.00000000000E+00 0. -1.
</event>
<event>
 7    1  0.2899775E-009  0.1131670E+03  0.7561462E-02  0.1254815E+00
         -2   -1    0    0    0  501 -0.00000000000E+00  0.00000000000E+00  0.24271032336E+03  0.24271032336E+03  0.00000000000E+00 0.  1.
          2   -1    0    0  501    0  0.00000000000E+00 -0.00000000000E+00 -0.55396930063E+02  0.55396930063E+02  0.00000000000E+00 0. -1.
         25    2    1    2    0    0  0.34200206480E+02 -0.16174973812E+02  0.88601620526E+02  0.15788777349E+03  0.12508804082E+03 0.  0.
          5    1    3    3  502    0 -0.41808710738E+02  0.16060205859E+02  0.48017059505E+02  0.65795204304E+02  0.41800000000E+01 0. -1.
         -5    1    3    3    0  502  0.76008917219E+02 -0.32235179671E+02  0.40584561021E+02  0.92092569182E+02  0.41800000000E+01 0. -1.
        -11    1    1    2    0    0 -0.58051474573E+02 -0.14493102021E+02  0.68864611877E+02  0.91226961340E+02  0.00000000000E+00 0. -1.
         11    1    1    2    0    0  0.23851268093E+02  0.30668075833E+02  0.29847160891E+02  0.48992518594E+02  0.00000000000E+00 0.  1.
</event>
<event>
 7    1  0.2899775E-009  0.1311049E+03  0.7561462E-02  0.1225825E+00
          2   -1    0    0  501    0  0.00000000000E+00  0.00000000000E+00  0.56239759000E+03  0.56239759000E+03  0.00000000000E+00 0. -1.
         -2   -1    0    0    0  501 -0.00000000000E+00 -0.00000000000E+00 -0.65895056851E+02  0.65895056851E+02  0.00000000000E+00 0.  1.
         25    2    1    2    0    0  0.46244770814E+02 -0.59754966542E+02  0.48826745990E+03  0.50966871856E+03  0.12509138830E+03 0.  0.
          5    1    3    3  502    0  0.81640279949E+02 -0.65147451675E+01  0.28164286607E+03  0.29333897392E+03  0.41800000000E+01 0.  1.
         -5    1    3    3    0  502 -0.35395509135E+02 -0.53240221374E+02  0.20662459383E+03  0.21632974464E+03  0.41800000000E+01 0.  1.
        -11    1    1    2    0    0 -0.16953103961E+02  0.79188228287E+02  0.16185425701E+02  0.82584206955E+02  0.00000000000E+00 0. -1.
         11    1    1    2    0    0 -0.29291666853E+02 -0.19433261745E+02 -0.79503524619E+01  0.36039721328E+02  0.00000000000E+00 0.  1.
</event>
<event>
 7    1  0.2899775E-009  0.1030500E+03  0.7561462E-02  0.1274010E+00
          2   -1    0    0  501    0  0.00000000000E+00  0.00000000000E+00  0.25676136895E+03  0.25676136895E+03  0.00000000000E+00 0. -1.
         -2   -1    0    0    0  501 -0.00000000000E+00 -0.00000000000E+00 -0.11596968231E+03  0.11596968231E+03  0.00000000000E+00 0.  1.
         25    2    1    2    0    0 -0.47927703071E+02  0.32790233001E+02 -0.55194759675E+02  0.14854875906E+03  0.12509199903E+03 0.  0.
          5    1    3    3  502    0  0.55158244262E+01 -0.37584112811E+02 -0.45702457667E+02  0.59574968667E+02  0.41800000000E+01 0. -1.
         -5    1    3    3    0  502 -0.53443527498E+02  0.70374345812E+02 -0.94923020084E+01  0.88973790395E+02  0.41800000000E+01 0. -1.
        -11    1    1    2    0    0  0.31531646626E+02  0.10414366534E+02  0.13349533991E+02  0.35789856482E+02  0.00000000000E+00 0.  1.
         11    1    1    2    0    0  0.16396056445E+02 -0.43204599535E+02  0.18263691233E+03  0.18839243571E+03  0.00000000000E+00 0. -1.
</event>
<event>
 7    1  0.2899775E-009  0.8952515E+02  0.7561462E-02  0.1304006E+00
          2   -1    0    0  501    0  0.00000000000E+00  0.00000000000E+00  0.52698803009E+02  0.52698803009E+02  0.00000000000E+00 0.  1.
         -2   -1    0    0    0  501 -0.00000000000E+00 -0.00000000000E+00 -0.32636579947E+03  0.32636579947E+03  0.00000000000E+00 0. -1.
         25    2    1    2    0    0 -0.24109245471E+02  0.22810077719E+02 -0.57614821139E+02  0.14166422349E+03  0.12509088391E+03 0.  0.
          5    1    3    3  502    0  0.10477062900E+02  0.54527068840E+02  0.12617562788E+02  0.57093304108E+02  0.41800000000E+01 0.  1.
         -5    1    3    3    0  502 -0.34586308371E+02 -0.31716991121E+02 -0.70232383927E+02  0.84570919379E+02  0.41800000000E+01 0.  1.
        -11    1    1    2    0    0 -0.12556322618E+02  0.17645377179E+02 -0.93152367125E+01  0.23575288089E+02  0.00000000000E+00 0.  1.
         11    1    1    2    0    0  0.36665568089E+02 -0.40455454899E+02 -0.20673693861E+03  0.21382509091E+03  0.00000000000E+00 0. -1.
</event>
<event>
 7    1  0.2899775E-009  0.1995112E+03  0.7561462E-02  0.1150152E+00
         -3   -1    0    0    0  501 -0.00000000000E+00  0.00000000000E+00  0.43927451149E+03  0.43927451149E+03  0.00000000000E+00 0.  1.
          3   -1    0    0  501    0  0.00000000000E+00 -0.00000000000E+00 -0.14470472015E+03  0.14470472015E+03  0.00000000000E+00 0. -1.
         25    2    1    2    0    0  0.15411081190E+03  0.80417349469E+02 -0.18587671442E+02  0.21496701019E+03  0.12509285152E+03 0.  0.
          5    1    3    3  502    0 -0.10780475814E+02  0.35705689077E+02 -0.22991155432E+02  0.44013412949E+02  0.41800000000E+01 0.  1.
         -5    1    3    3    0  502  0.16489128771E+03  0.44711660392E+02  0.44034839900E+01  0.17095359724E+03  0.41800000000E+01 0.  1.
        -11    1    1    2    0    0 -0.12957303665E+03 -0.27778468276E+02  0.17805653222E+03  0.22195707646E+03  0.00000000000E+00 0.  1.
         11    1    1    2    0    0 -0.24537775252E+02 -0.52638881193E+02  0.13510093056E+03  0.14705514499E+03  0.00000000000E+00 0. -1.
</event>
<event>
 7    1  0.2899775E-009  0.9231331E+02  0.7561462E-02  0.1297344E+00
         -2   -1    0    0    0  501 -0.00000000000E+00  0.00000000000E+00  0.11331750596E+03  0.11331750596E+03  0.00000000000E+00 0.  1.
          2   -1    0    0  501    0  0.00000000000E+00 -0.00000000000E+00 -0.79464198590E+02  0.79464198590E+02  0.00000000000E+00 0. -1.
         25    2    1    2    0    0 -0.28115686637E+02 -0.21557527958E+02  0.17209586054E+02  0.13115030284E+03  0.12509601607E+03 0.  0.
          5    1    3    3  502    0  0.74011098968E+01  0.49549033856E+02  0.35947165170E+01  0.50401166362E+02  0.41800000000E+01 0.  1.
         -5    1    3    3    0  502 -0.35516796533E+02 -0.71106561814E+02  0.13614869537E+02  0.80749136475E+02  0.41800000000E+01 0.  1.
        -11    1    1    2    0    0 -0.52205276163E+01  0.20769131563E+02  0.18407715097E+02  0.28239240598E+02  0.00000000000E+00 0.  1.
         11    1    1    2    0    0  0.33336214253E+02  0.78839639449E+00 -0.17639937840E+01  0.33392161111E+02  0.00000000000E+00 0. -1.
</event>
<event>
 7    1  0.2899775E-009  0.3897645E+03  0.7561462E-02  0.1047383E+00
          2   -1    0    0  501    0  0.00000000000E+00  0.00000000000E+00  0.83749050884E+03  0.83749050884E+03  0.00000000000E+00 0. -1.
         -2   -1    0    0    0  501 -0.00000000000E+00 -0.00000000000E+00 -0.31611010376E+03  0.31611010376E+03  0.00000000000E+00 0.  1.
         25    2    1    2    0    0 -0.35995024794E+03  0.11525357562E+03  0.63405497802E+03  0.74868021822E+03  0.12509510908E+03 0.  0.
          5    1    3    3  502    0  0.36485214111E+00 -0.99784240862E+01  0.49431058628E+02  0.50602411221E+02  0.41800000000E+01 0.  1.
         -5    1    3    3    0  502 -0.36031510008E+03  0.12523199971E+03  0.58462391939E+03  0.69807780699E+03  0.41800000000E+01 0.  1.
        -11    1    1    2    0    0  0.19296034359E+03 -0.10557345615E+03 -0.45175953514E+02  0.22454468512E+03  0.00000000000E+00 0.  1.
         11    1    1    2    0    0  0.16698990435E+03 -0.96801194719E+01 -0.67498619422E+02  0.18037570926E+03  0.00000000000E+00 0. -1.
</event>
<event>
 7    1  0.2899775E-009  0.1351069E+03  0.7561462E-02  0.1220069E+00
          3   -1    0    0  501    0  0.00000000000E+00  0.00000000000E+00  0.22595038938E+02  0.22595038938E+02  0.00000000000E+00 0. -1.
         -3   -1    0    0    0  501 -0.00000000000E+00 -0.00000000000E+00 -0.97030221375E+03  0.97030221375E+03  0.00000000000E+00 0.  1.
         25    2    1    2    0    0 -0.11378478408E+02  0.86690782365E+02 -0.68026432549E+03  0.69717478208E+03  0.12509341598E+03 0.  0.
          5    1    3    3  502    0  0.21253085097E+02  0.10470868752E+03 -0.58684280592E+03  0.59650444603E+03  0.41800000000E+01 0. -1.
         -5    1    3    3    0  502 -0.32631563505E+02 -0.18017905159E+02 -0.93421519564E+02  0.10067033605E+03  0.41800000000E+01 0. -1.
        -11    1    1    2    0    0  0.44862670837E+02 -0.16126055652E+02 -0.89889758239E+02  0.10174909111E+03  0.00000000000E+00 0.  1.
         11    1    1    2    0    0 -0.33484192429E+02 -0.70564726713E+02 -0.17755309108E+03  0.19397337949E+03  0.00000000000E+00 0. -1.
</event>
<event>
 7    1  0.2899775E-009  0.1659757E+03  0.7561462E-02  0.1182111E+00
         -2   -1    0    0    0  501 -0.00000000000E+00  0.00000000000E+00  0.31723428075E+03  0.31723428075E+03  0.00000000000E+00 0.  1.
          2   -1    0    0  501    0  0.00000000000E+00 -0.00000000000E+00 -0.11996940913E+03  0.11996940913E+03  0.00000000000E+00 0. -1.
         25    2    1    2    0    0  0.11278752603E+03  0.86412266768E+02  0.18834954061E+03  0.26703770230E+03  0.12508188968E+03 0.  0.
          5    1    3    3  502    0 -0.19092876611E+02  0.72219308910E+01  0.69624375405E+02  0.72675444778E+02  0.41800000000E+01 0. -1.
         -5    1    3    3    0  502  0.13188040264E+03  0.79190335877E+02  0.11872516521E+03  0.19436225753E+03  0.41800000000E+01 0. -1.
        -11    1    1    2    0    0 -0.57859154051E+02 -0.84317536832E+02 -0.25398009646E+02  0.10536691900E+03  0.00000000000E+00 0. -1.
         11    1    1    2    0    0 -0.54928371977E+02 -0.20947299369E+01  0.34313340658E+02  0.64799068579E+02  0.00000000000E+00 0.  1.
</event>
<event>
 7    1  0.2899775E-009  0.9754721E+02  0.7561462E-02  0.1285540E+00
          2   -1    0    0  501    0  0.00000000000E+00  0.00000000000E+00  0.22998636430E+03  0.22998636430E+03  0.00000000000E+00 0. -1.
         -2   -1    0    0    0  501 -0.00000000000E+00 -0.00000000000E+00 -0.59934722916E+02  0.59934722916E+02  0.00000000000E+00 0.  1.
         25    2    1    2    0    0  0.71235588456E+01  0.40205179578E+02  0.12291127221E+03  0.18006329640E+03  0.12509359824E+03 0.  0.
          5    1    3    3  502    0 -0.44026119346E+02 -0.22967171573E+02  0.53266533906E+02  0.72942348393E+02  0.41800000000E+01 0. -1.
         -5    1    3    3    0  502  0.51149678191E+02  0.63172351151E+02  0.69644738301E+02  0.10712094801E+03  0.41800000000E+01 0. -1.
        -11    1    1    2    0    0 -0.16846495129E+02  0.50468375537E+01  0.59423255308E+02  0.61970946731E+02  0.00000000000E+00 0. -1.
         11    1    1    2    0    0  0.97229362832E+01 -0.45252017132E+02 -0.12282886131E+02  0.47886844082E+02  0.00000000000E+00 0.  1.
</event>
<event>
 7    1  0.2899775E-009  0.1228556E+03  0.7561462E-02  0.1238459E+00
          2   -1    0    0  501    0  0.00000000000E+00  0.00000000000E+00  0.22297011900E+03  0.22297011900E+03  0.00000000000E+00 0. -1.
         -2   -1    0    0    0  501 -0.00000000000E+00 -0.00000000000E+00 -0.71023592614E+02  0.71023592614E+02  0.00000000000E+00 0.  1.
         25    2    1    2    0    0 -0.26994114948E+02 -0.62434370006E+02  0.11312830211E+03  0.18186589054E+03  0.12510178498E+03 0.  0.
          5    1    3    3  502    0 -0.75022927902E+02 -0.54355496158E+02  0.82914484330E+02  0.12439953290E+03  0.41800000000E+01 0.  1.
         -5    1    3    3    0  502  0.48028812954E+02 -0.80788738478E+01  0.30213817777E+02  0.57466357646E+02  0.41800000000E+01 0.  1.
        -11    1    1    2    0    0 -0.28131838259E+02  0.19802209545E+02  0.20598694244E+02  0.40097805816E+02  0.00000000000E+00 0. -1.
         11    1    1    2    0    0  0.55125953207E+02  0.42632160461E+02  0.18219530032E+02  0.72030015252E+02  0.00000000000E+00 0.  1.
</event>
<event>
 7    1  0.2899775E-009  0.1063893E+03  0.7561462E-02  0.1267406E+00
          1   -1    0    0  501    0  0.00000000000E+00  0.00000000000E+00  0.59051459187E+02  0.59051459187E+02  0.00000000000E+00 0. -1.
         -1   -1    0    0    0  501 -0.00000000000E+00 -0.00000000000E+00 -0.31048731096E+03  0.31048731096E+03  0.00000000000E+00 0.  1.
         25    2    1    2    0    0 -0.76290615831E+02 -0.25646495154E+02 -0.13395775400E+03  0.20017434206E+03  0.12508831514E+03 0.  0.
          5    1    3    3  502    0 -0.37552631314E+02  0.31386891400E+02 -0.12005796537E+03  0.12971786507E+03  0.41800000000E+01 0.  1.
         -5    1    3    3    0  502 -0.38737984518E+02 -0.57033386554E+02 -0.13899788636E+02  0.70456476994E+02  0.41800000000E+01 0.  1.
        -11    1    1    2    0    0  0.45274815141E+01  0.22289770814E+02 -0.89371602124E+02  0.92220470819E+02  0.00000000000E+00 0.  1.
         11    1    1    2    0    0  0.71763134317E+02  0.33567243404E+01 -0.28106495650E+02  0.77143957268E+02  0.00000000000E+00 0. -1.
</event>
<event>
 7    1  0.2899775E-009  0.1251844E+03  0.7561462E-02  0.1234781E+00
         -2   -1    0    0    0  501 -0.00000000000E+00  0.00000000000E+00  0.35814924079E+03  0.35814924079E+03  0.00000000000E+00 0.  1.
          2   -1    0    0  501    0  0.00000000000E+00 -0.00000000000E+00 -0.60157497700E+02  0.60157497700E+02  0.00000000000E+00 0. -1.
         25    2    1    2    0    0  0.48621228182E+02 -0.83820406037E+02  0.18545957678E+03  0.24378897126E+03  0.12509166075E+03 0.  0.
          5    1    3    3  502    0  0.78074501952E+02 -0.75697202527E+02  0.83217249013E+02  0.13699736223E+03  0.41800000000E+01 0. -1.
         -5    1    3    3    0  502 -0.29453273770E+02 -0.81232035102E+01  0.10224232777E+03  0.10679160902E+03  0.41800000000E+01 0. -1.
        -11    1    1    2    0    0  0.98762634498E+01  0.28614230539E+02 -0.64002613839E+01  0.30939911358E+02  0.00000000000E+00 0. -1.
         11    1    1    2    0    0 -0.58497491632E+02  0.55206175498E+02  0.11893242770E+03  0.14357785588E+03  0.00000000000E+00 0.  1.
</event>
<event>
 7    1  0.2899775E-009  0.7210378E+02  0.7561462E-02  0.1353082E+00
          2   -1    0    0  501    0  0.00000000000E+00  0.00000000000E+00  0.32145784040E+03  0.32145784040E+03  0.00000000000E+00 0.  1.
         -2   -1    0    0    0  501 -0.00000000000E+00 -0.00000000000E+00 -0.48343166974E+02  0.48343166974E+02  0.00000000000E+00 0. -1.
         25    2    1    2    0    0  0.69852045765E+02  0.52032445528E+01  0.20883164306E+03  0.25330739764E+03  0.12509036937E+03 0.  0.
          5    1    3    3  502    0  0.21454844284E+02  0.11353759484E+02  0.20243288592E+03  0.20392587845E+03  0.41800000000E+01 0.  1.
         -5    1    3    3    0  502  0.48397201481E+02 -0.61505149309E+01  0.63987571314E+01  0.49381519195E+02  0.41800000000E+01 0.  1.
        -11    1    1    2    0    0 -0.20568022975E+02 -0.56328156947E+01 -0.12895024874E+02  0.24920951993E+02  0.00000000000E+00 0. -1.
         11    1    1    2    0    0 -0.49284022790E+02  0.42957114189E+00  0.77178055248E+02  0.91572657740E+02  0.00000000000E+00 0.  1.
</event>
<event>
 7    1  0.2899775E-009  0.1908433E+03  0.7561462E-02  0.1157703E+00
          1   -1    0    0  501    0  0.00000000000E+00  0.00000000000E+00  0.50223216634E+03  0.50223216634E+03  0.00000000000E+00 0. -1.
         -1   -1    0    0    0  501 -0.00000000000E+00 -0.00000000000E+00 -0.90474582082E+02  0.90474582082E+02  0.00000000000E+00 0.  1.
         25    2    1    2    0    0  0.12956393479E+03 -0.98226856947E+02  0.96669894411E+02  0.22677591743E+03  0.12508764773E+03 0.  0.
          5    1    3    3  502    0 -0.13989758620E+02 -0.45504390844E+02  0.44047347645E+02  0.64992339294E+02  0.41800000000E+01 0. -1.
         -5    1    3    3    0  502  0.14355369341E+03 -0.52722466103E+02  0.52622546765E+02  0.16178357813E+03  0.41800000000E+01 0. -1.
        -11    1    1    2    0    0 -0.14426588099E+01  0.40261241346E+02  0.11101272883E+03  0.11809688726E+03  0.00000000000E+00 0. -1.
         11    1    1    2    0    0 -0.12812127598E+03  0.57965615600E+02  0.20407496102E+03  0.24783394373E+03  0.00000000000E+00 0.  1.
</event>
<event>
 7    1  0.2899775E-009  0.1167344E+03  0.7561462E-02  0.1248584E+00
          1   -1    0    0  501    0  0.00000000000E+00  0.00000000000E+00  0.32054831957E+03  0.32054831957E+03  0.00000000000E+00 0.  1.
         -1   -1    0    0    0  501 -0.00000000000E+00 -0.00000000000E+00 -0.68198990767E+02  0.68198990767E+02  0.00000000000E+00 0. -1.
         25    2    1    2    0    0  0.56540650454E+02 -0.41971717372E+02  0.22945727362E+03  0.27066930341E+03  0.12511099545E+03 0.  0.
          5    1    3    3  502    0  0.29043762780E+02 -0.71997823445E+02  0.21266315232E+03  0.22642949343E+03  0.41800000000E+01 0. -1.
         -5    1    3    3    0  502  0.27496887674E+02  0.30026106073E+02  0.16794121292E+02  0.44239809986E+02  0.41800000000E+01 0. -1.
        -11    1    1    2    0    0 -0.73222488123E+02  0.40153484163E+01  0.22172894069E+02  0.76611311313E+02  0.00000000000E+00 0. -1.
         11    1    1    2    0    0  0.16681837668E+02  0.37956368956E+02  0.71916112114E+00  0.41466695612E+02  0.00000000000E+00 0.  1.
</event>
<event>
 7    1  0.2899775E-009  0.1753347E+03  0.7561462E-02  0.1172396E+00
         -2   -1    0    0    0  501 -0.00000000000E+00  0.00000000000E+00  0.38489475828E+02  0.38489475828E+02  0.00000000000E+00 0.  1.
          2   -1    0    0  501    0  0.00000000000E+00 -0.00000000000E+00 -0.13787049516E+04  0.13787049516E+04  0.00000000000E+00 0. -1.
         25    2    1    2    0    0 -0.16752190624E+03  0.39696191023E+01 -0.10431772512E+04  0.10639292815E+04  0.12508953427E+03 0.  0.
          5    1    3    3  502    0 -0.11079007566E+03  0.34587282827E+02 -0.37341778898E+03  0.39106142552E+03  0.41800000000E+01 0. -1.
         -5    1    3    3    0  502 -0.56731830575E+02 -0.30617663724E+02 -0.66975946224E+03  0.67286785597E+03  0.41800000000E+01 0. -1.
        -11    1    1    2    0    0  0.15183571231E+03 -0.11994943987E+02 -0.29897866050E+03  0.33553867385E+03  0.00000000000E+00 0. -1.
         11    1    1    2    0    0  0.15686193926E+02  0.80253248851E+01  0.19404359978E+01  0.17726472048E+02  0.00000000000E+00 0.  1.
</event>
<event>
 7    1  0.2899775E-009  0.1243160E+03  0.7561462E-02  0.1236142E+00
          1   -1    0    0  501    0  0.00000000000E+00  0.00000000000E+00  0.64031373727E+03  0.64031373727E+03  0.00000000000E+00 0. -1.
         -1   -1    0    0    0  501 -0.00000000000E+00 -0.00000000000E+00 -0.35022389946E+02  0.35022389946E+02  0.00000000000E+00 0.  1.
         25    2    1    2    0    0  0.96382314724E+02  0.24292923417E+02  0.39328524167E+03  0.42450159542E+03  0.12509447021E+03 0.  0.
          5    1    3    3  502    0  0.11124151047E+02 -0.16303027757E+02  0.26175018186E+03  0.26252650448E+03  0.41800000000E+01 0.  1.
         -5    1    3    3    0  502  0.85258163677E+02  0.40595951174E+02  0.13153505981E+03  0.16197509094E+03  0.41800000000E+01 0.  1.
        -11    1    1    2    0    0 -0.16246860138E+02  0.32078830751E+02  0.61750780898E+02  0.71457475384E+02  0.00000000000E+00 0.  1.
         11    1    1    2    0    0 -0.80135454586E+02 -0.56371754168E+02  0.15025532476E+03  0.17937705641E+03  0.00000000000E+00 0. -1.
</event>
<event>
 6    1  0.2899775E-009  0.2454408E+03  0.7561462E-02  0.1116220E+00
         -1   -1    0    0    0  501 -0.00000000000E+00  0.00000000000E+00  0.28919881174E+02  0.28919881174E+02  0.00000000000E+00 0. -1.
          1   -1    0    0  501    0  0.00000000000E+00 -0.00000000000E+00 -0.22569390942E+04  0.22569390942E+04  0.00000000000E+00 0.  1.
          5    1    1    2  502    0  0.38522512371E+02 -0.51852443009E+02 -0.50098231996E+03  0.50514692626E+03  0.41800000000E+01 0. -1.
         -5    1    1    2    0  502  0.18653457677E+03 -0.46479841224E+01 -0.69959747590E+03  0.72406550309E+03  0.41800000000E+01 0. -1.
        -11    1    1    2    0    0 -0.11818273432E+03 -0.92410536924E+00 -0.63413522393E+03  0.64505464489E+03  0.00000000000E+00 0.  1.
         11    1    1    2    0    0 -0.10687435483E+03  0.57424532501E+02 -0.39330419324E+03  0.41159190112E+03  0.00000000000E+00 0. -1.
</event>
<event>
 7    1  0.2899775E-009  0.7835601E+02  0.7561462E-02  0.1333783E+00
          2   -1    0    0  501    0  0.00000000000E+00  0.00000000000E+00  0.61636952485E+03  0.61636952485E+03  0.00000000000E+00 0. -1.
         -2   -1    0    0    0  501 -0.00000000000E+00 -0.00000000000E+00 -0.26621447604E+02  0.26621447604E+02  0.00000000000E+00 0.  1.
         25    2    1    2    0    0  0.52647560875E+02  0.13990646171E+02  0.43053807279E+03  0.45163158398E+03  0.12506219125E+03 0.  0.
          5    1    3    3  502    0  0.21711199400E+02  0.35651126362E+02  0.40181892320E+03  0.40400284458E+03  0.41800000000E+01 0.  1.
         -5    1    3    3    0  502  0.30936361475E+02 -0.21660480191E+02  0.28719149593E+02  0.47628739399E+02  0.41800000000E+01 0.  1.
        -11    1    1    2    0    0 -0.74864241649E+01 -0.28392858549E+02  0.13495459725E+03  0.13811207146E+03  0.00000000000E+00 0. -1.
         11    1    1    2    0    0 -0.45161136710E+02  0.14402212378E+02  0.24255407199E+02  0.53247317009E+02  0.00000000000E+00 0.  1.
</event>
<event>
 7    1  0.2899775E-009  0.1298012E+03  0.7561462E-02  0.1227751E+00
          1   -1    0    0  501    0  0.00000000000E+00  0.00000000000E+00  0.42445814835E+03  0.42445814835E+03  0.00000000000E+00 0. -1.
         -1   -1    0    0    0  501 -0.00000000000E+00 -0.00000000000E+00 -0.48938966470E+02  0.48938966470E+02  0.00000000000E+00 0.  1.
         25    2    1    2    0    0 -0.81657849133E+02 -0.28847787823E+02  0.26843306093E+03  0.30855124152E+03  0.12508941304E+03 0.  0.
          5    1    3    3  502    0 -0.11703337398E+00  0.32148820606E+02  0.15656409321E+02  0.36002165435E+02  0.41800000000E+01 0.  1.
         -5    1    3    3    0  502 -0.81540815759E+02 -0.60996608430E+02  0.25277665161E+03  0.27254907608E+03  0.41800000000E+01 0.  1.
        -11    1    1    2    0    0  0.82299211699E+02 -0.13081202510E+02  0.73633000569E+02  0.11120295355E+03  0.00000000000E+00 0.  1.
         11    1    1    2    0    0 -0.64136256627E+00  0.41928990333E+02  0.33453120379E+02  0.53642919751E+02  0.00000000000E+00 0. -1.
</event>
<event>
 7    1  0.2899775E-009  0.1722940E+03  0.7561462E-02  0.1175476E+00
          1   -1    0    0  501    0  0.00000000000E+00  0.00000000000E+00  0.18550504495E+03  0.18550504495E+03  0.00000000000E+00 0. -1.
         -1   -1    0    0    0  501 -0.00000000000E+00 -0.00000000000E+00 -0.22318893726E+03  0.22318893726E+03  0.00000000000E+00 0.  1.
         25    2    1    2    0    0  0.16319755775E+03 -0.25614571224E+02 -0.73268329118E+02  0.21978575030E+03  0.12509188171E+03 0.  0.
          5    1    3    3  502    0  0.35757347247E+02 -0.12672557468E+02 -0.82896721930E+02  0.91260728145E+02  0.41800000000E+01 0.  1.
         -5    1    3    3    0  502  0.12744021050E+03 -0.12942013756E+02  0.96283928118E+01  0.12852502216E+03  0.41800000000E+01 0.  1.
        -11    1    1    2    0    0 -0.27127663356E+02  0.32107492849E+02 -0.13441284848E+02  0.44130141112E+02  0.00000000000E+00 0.  1.
         11    1    1    2    0    0 -0.13606989439E+03 -0.64929216253E+01  0.49025721654E+02  0.14477809080E+03  0.00000000000E+00 0. -1.
</event>
<event>
 6    1  0.2899775E-009  0.1623638E+03  0.7561462E-02  0.1186054E+00
          1   -1    0    0  501    0  0.00000000000E+00  0.00000000000E+00  0.63073184677E+03  0.63073184677E+03  0.00000000000E+00 0. -1.
         -1   -1    0    0    0  501 -0.00000000000E+00 -0.00000000000E+00 -0.75827816771E+02  0.75827816771E+02  0.00000000000E+00 0.  1.
          5    1    1    2  502    0 -0.13530351304E+03  0.24645652964E+02  0.31585629069E+03  0.34452448043E+03  0.41800000000E+01 0. -1.
         -5    1    1    2    0  502  0.13037459454E+02  0.44123356653E+02  0.17922621024E+03  0.18508471786E+03  0.41800000000E+01 0. -1.
        -11    1    1    2    0    0  0.38658147850E+02 -0.29143563760E+02  0.68654132381E+02  0.84007080635E+02  0.00000000000E+00 0. -1.
         11    1    1    2    0    0  0.83607905742E+02 -0.39625445858E+02 -0.88326033016E+01  0.92943384611E+02  0.00000000000E+00 0.  1.
</event>
<event>
 7    1  0.2899775E-009  0.1411038E+03  0.7561462E-02  0.1211851E+00
         -1   -1    0    0    0  501 -0.00000000000E+00  0.00000000000E+00  0.25191483983E+03  0.25191483983E+03  0.00000000000E+00 0.  1.
          1   -1    0    0  501    0  0.00000000000E+00 -0.00000000000E+00 -0.11057872747E+03  0.11057872747E+03  0.00000000000E+00 0. -1.
         25    2    1    2    0    0 -0.10373810984E+03 -0.44760146541E+02  0.15869543560E+02  0.16930759292E+03  0.12509257554E+03 0.  0.
          5    1    3    3  502    0 -0.82221972942E+02  0.36867577343E+01 -0.40492053176E+02  0.91821151089E+02  0.41800000000E+01 0. -1.
         -5    1    3    3    0  502 -0.21516136900E+02 -0.48446904275E+02  0.56361596735E+02  0.77486441830E+02  0.41800000000E+01 0. -1.
        -11    1    1    2    0    0  0.12033194903E+03  0.29088083951E+02  0.11006613828E+03  0.16565159034E+03  0.00000000000E+00 0.  1.
         11    1    1    2    0    0 -0.16593839185E+02  0.15672062591E+02  0.15400430518E+02  0.27534384048E+02  0.00000000000E+00 0. -1.
</event>
<event>
 7    1  0.2899775E-009  0.1219884E+03  0.7561462E-02  0.1239852E+00
          2   -1    0    0  501    0  0.00000000000E+00  0.00000000000E+00  0.53556461572E+03  0.53556461572E+03  0.00000000000E+00 0. -1.
         -2   -1    0    0    0  501 -0.00000000000E+00 -0.00000000000E+00 -0.31665658613E+02  0.31665658613E+02  0.00000000000E+00 0.  1.
         25    2    1    2    0    0  0.35538573197E+02 -0.58708869762E+02  0.34312680956E+03  0.37161063749E+03  0.12509491149E+03 0.  0.
          5    1    3    3  502    0  0.83634084799E+01  0.38035964566E+02  0.65382529082E+02  0.76216984400E+02  0.41800000000E+01 0.  1.
         -5    1    3    3    0  502  0.27175164717E+02 -0.96744834328E+02  0.27774428048E+03  0.29539365309E+03  0.41800000000E+01 0.  1.
        -11    1    1    2    0    0 -0.13319695294E+02 -0.19115566016E+02  0.71122729524E+02  0.74841578028E+02  0.00000000000E+00 0. -1.
         11    1    1    2    0    0 -0.22218877903E+02  0.77824435778E+02  0.89649418018E+02  0.12077805881E+03  0.00000000000E+00 0.  1.
</event>
<event>
 7    1  0.2899775E-009  0.8300687E+02  0.7561462E-02  0.1320729E+00
          2   -1    0    0  501    0  0.00000000000E+00  0.00000000000E+00  0.20605140010E+03  0.20605140010E+03  0.00000000000E+00 0. -1.
         -2   -1    0    0    0  501 -0.00000000000E+00 -0.00000000000E+00 -0.69128842897E+02  0.69128842897E+02  0.00000000000E+00 0.  1.
         25    2    1    2    0    0 -0.25786503000E+02 -0.22774652514E+02  0.11711306694E+03  0.17477580882E+03  0.12508990514E+03 0.  0.
          5    1    3    3  502    0 -0.23927126874E+02  0.36296828212E+02  0.10579604121E+03  0.11445628805E+03  0.41800000000E+01 0. -1.
         -5    1    3    3    0  502 -0.18593761260E+01 -0.59071480726E+02  0.11317025727E+02  0.60319520771E+02  0.41800000000E+01 0. -1.
        -11    1    1    2    0    0  0.28467269629E+02  0.38084685512E+02 -0.24470647014E+02  0.53475613844E+02  0.00000000000E+00 0.  1.
         11    1    1    2    0    0 -0.26807666289E+01 -0.15310032998E+02  0.44280137280E+02  0.46928820331E+02  0.00000000000E+00 0. -1.
</event>
<event>
 7    1  0.2899775E-009  0.1369087E+03  0.7561462E-02  0.1217550E+00
          2   -1    0    0  501    0  0.00000000000E+00  0.00000000000E+00  0.17592066906E+03  0.17592066906E+03  0.00000000000E+00 0. -1.
         -2   -1    0    0    0  501 -0.00000000000E+00 -0.00000000000E+00 -0.15992755763E+03  0.15992755763E+03  0.00000000000E+00 0.  1.
         25    2    1    2    0    0 -0.12314778072E+03 -0.11715938556E+02 -0.22947464268E+02  0.17741765297E+03  0.12509116018E+03 0.  0.
          5    1    3    3  502    0 -0.80664585950E+01 -0.29781260572E+02  0.35332978264E+02  0.47094405066E+02  0.41800000000E+01 0.  1.
         -5    1    3    3    0  502 -0.11508132213E+03  0.18065322016E+02 -0.58280442531E+02  0.13032324790E+03  0.41800000000E+01 0.  1.
        -11    1    1    2    0    0  0.64195051583E+02 -0.62177611728E+01 -0.25423216621E+02  0.69325357158E+02  0.00000000000E+00 0.  1.
         11    1    1    2    0    0  0.58952729137E+02  0.17933699728E+02  0.64363792315E+02  0.89105216569E+02  0.00000000000E+00 0. -1.
</event>
<event>
 7    1  0.2899775E-009  0.9700182E+02  0.7561462E-02  0.1286730E+00
          1   -1    0    0  501    0  0.00000000000E+00  0.00000000000E+00  0.72459251750E+02  0.72459251750E+02  0.00000000000E+00 0. -1.
         -1   -1    0    0    0  501 -0.00000000000E+00 -0.00000000000E+00 -0.16746884524E+03  0.16746884524E+03  0.00000000000E+00 0.  1.
         25    2    1    2    0    0 -0.49097954018E+01 -0.20864753459E+02 -0.56358059787E+02  0.13886662630E+03  0.12509302526E+03 0.  0.
          5    1    3    3  502    0 -0.42993462591E+02  0.19087249219E+02  0.14081629892E+02  0.49280073141E+02  0.41800000000E+01 0. -1.
         -5    1    3    3    0  502  0.38083667190E+02 -0.39952002679E+02 -0.70439689679E+02  0.89586553158E+02  0.41800000000E+01 0. -1.
        -11    1    1    2    0    0  0.11259137165E+02 -0.34194646636E+02 -0.53334815164E+01  0.36393516639E+02  0.00000000000E+00 0.  1.
         11    1    1    2    0    0 -0.63493417636E+01  0.55059400095E+02 -0.33318052187E+02  0.64667954052E+02  0.00000000000E+00 0. -1.
</event>
<event>
 7    1  0.2899775E-009  0.1034775E+03  0.7561462E-02  0.1273149E+00
         -2   -1    0    0    0  501 -0.00000000000E+00  0.00000000000E+00  0.10464442942E+03  0.10464442942E+03  0.00000000000E+00 0.  1.
          2   -1    0    0  501    0  0.00000000000E+00 -0.00000000000E+00 -0.20127988130E+03  0.20127988130E+03  0.00000000000E+00 0. -1.
         25    2    1    2    0    0  0.60125153033E+02  0.28688977124E+02 -0.12369711739E+03  0.18812162009E+03  0.12510266048E+03 0.  0.
          5    1    3    3  502    0  0.22084122478E+01  0.36751454160E+02  0.13092146973E+02  0.39299149862E+02  0.41800000000E+01 0.  1.
         -5    1    3    3    0  502  0.57916740785E+02 -0.80624770355E+01 -0.13678926436E+03  0.14882247023E+03  0.41800000000E+01 0.  1.
        -11    1    1    2    0    0 -0.61125625671E+02  0.18664860644E+02  0.29465999949E+02  0.70377299533E+02  0.00000000000E+00 0.  1.
         11    1    1    2    0    0  0.10004726387E+01 -0.47353837768E+02 -0.24043344384E+01  0.47425391100E+02  0.00000000000E+00 0. -1.
</event>
<event>
 7    1  0.2899775E-009  0.4466597E+02  0.7561462E-02  0.1476438E+00
         -4   -1    0    0    0  501 -0.00000000000E+00  0.00000000000E+00  0.16934581481E+03  0.16934581481E+03  0.00000000000E+00 0.  1.
          4   -1    0    0  501    0  0.00000000000E+00 -0.00000000000E+00 -0.66173249839E+02  0.66173249839E+02  0.00000000000E+00 0. -1.
         25    2    1    2    0    0 -0.14227713950E+02  0.30558855267E+01  0.66571038269E+02  0.14245019611E+03  0.12509432024E+03 0.  0.
          5    1    3    3  502    0 -0.83825674288E+01  0.31782239037E+02 -0.27982085758E+02  0.43368740796E+02  0.41800000000E+01 0. -1.
         -5    1    3    3    0  502 -0.58451465208E+01 -0.28726353510E+02  0.94553124027E+02  0.99081455314E+02  0.41800000000E+01 0. -1.
        -11    1    1    2    0    0  0.69890869072E+01  0.96787645467E+01 -0.26088443748E+02  0.28690289579E+02  0.00000000000E+00 0. -1.
         11    1    1    2    0    0  0.72386270423E+01 -0.12734650073E+02  0.62689970447E+02  0.64378578958E+02  0.00000000000E+00 0.  1.
</event>
<event>
 7    1  0.2899775E-009  0.1143369E+03  0.7561462E-02  0.1252743E+00
          3   -1    0    0  501    0  0.00000000000E+00  0.00000000000E+00  0.36966152892E+03  0.36966152892E+03  0.00000000000E+00 0. -1.
         -3   -1    0    0    0  501 -0.00000000000E+00 -0.00000000000E+00 -0.39162566373E+02  0.39162566373E+02  0.00000000000E+00 0.  1.
         25    2    1    2    0    0  0.39238953718E+02  0.24917634026E+02  0.22131406023E+03  0.25843365556E+03  0.12508979614E+03 0.  0.
          5    1    3    3  502    0  0.69299521477E+02 -0.25296875248E+02  0.10845344204E+03  0.13123253051E+03  0.41800000000E+01 0. -1.
         -5    1    3    3    0  502 -0.30060567759E+02  0.50214509274E+02  0.11286061819E+03  0.12720112505E+03  0.41800000000E+01 0. -1.
        -11    1    1    2    0    0 -0.56010382873E+02 -0.43617475904E+02  0.52204454046E+02  0.88118966268E+02  0.00000000000E+00 0.  1.
         11    1    1    2    0    0  0.16771429155E+02  0.18699841879E+02  0.56980448265E+02  0.62271473458E+02  0.00000000000E+00 0. -1.
</event>
<event>
 7    1  0.2899775E-009  0.8487562E+02  0.7561462E-02  0.1315758E+00
         -1   -1    0    0    0  501 -0.00000000000E+00  0.00000000000E+00  0.15919552681E+02  0.15919552681E+02  0.00000000000E+00 0.  1.
          1   -1    0    0  501    0  0.00000000000E+00 -0.00000000000E+00 -0.91893333316E+03  0.91893333316E+03  0.00000000000E+00 0. -1.
         25    2    1    2    0    0 -0.29535171979E+02  0.11989323737E+02 -0.68248393291E+03  0.69458320324E+03  0.12508172239E+03 0.  0.
          5    1    3    3  502    0  0.37183499735E+02  0.29977891393E+01 -0.80382629528E+02  0.88715494262E+02  0.41800000000E+01 0.  1.
         -5    1    3    3    0  502 -0.66718671713E+02  0.89915345976E+01 -0.60210130338E+03  0.60586770898E+03  0.41800000000E+01 0.  1.
        -11    1    1    2    0    0  0.42552756277E+02  0.55571988207E+01 -0.21281626002E+03  0.21709993103E+03  0.00000000000E+00 0. -1.
         11    1    1    2    0    0 -0.13017584299E+02 -0.17546522558E+02 -0.77135875493E+01  0.23169751568E+02  0.00000000000E+00 0.  1.
</event>
<event>
 7    1  0.2899775E-009  0.1388088E+03  0.7561462E-02  0.1214941E+00
          1   -1    0    0  501    0  0.00000000000E+00  0.00000000000E+00  0.11980017667E+04  0.11980017667E+04  0.00000000000E+00 0. -1.
         -1   -1    0    0    0  501 -0.00000000000E+00 -0.00000000000E+00 -0.18486224263E+02  0.18486224263E+02  0.00000000000E+00 0.  1.
         25    2    1    2    0    0 -0.43593230602E+02 -0.88190092559E+02  0.75161510836E+03  0.76827777472E+03  0.12509039063E+03 0.  0.
          5    1    3    3  502    0 -0.22683482511E+02 -0.11242962116E+03  0.68137829371E+03  0.69097670846E+03  0.41800000000E+01 0.  1.
         -5    1    3    3    0  502 -0.20909748091E+02  0.24239528606E+02  0.70236814658E+02  0.77301066264E+02  0.41800000000E+01 0.  1.
        -11    1    1    2    0    0 -0.25669681316E+02  0.34098173273E+02  0.18618995277E+03  0.19101915210E+03  0.00000000000E+00 0.  1.
         11    1    1    2    0    0  0.69262911918E+02  0.54091919286E+02  0.24171048130E+03  0.25719106413E+03  0.00000000000E+00 0. -1.
</event>
<event>
 7    1  0.2899775E-009  0.1507031E+03  0.7561462E-02  0.1199612E+00
          2   -1    0    0  501    0  0.00000000000E+00  0.00000000000E+00  0.18866779774E+03  0.18866779774E+03  0.00000000000E+00 0.  1.
         -2   -1    0    0    0  501 -0.00000000000E+00 -0.00000000000E+00 -0.13467345479E+03  0.13467345479E+03  0.00000000000E+00 0. -1.
         25    2    1    2    0    0 -0.10458254730E+03  0.33052804656E+02  0.64772284476E+02  0.17853141019E+03  0.12509204009E+03 0.  0.
          5    1    3    3  502    0 -0.12475102916E+03 -0.17901252975E+01  0.40041549329E+02  0.13109851982E+03  0.41800000000E+01 0. -1.
         -5    1    3    3    0  502  0.20168481860E+02  0.34842929954E+02  0.24730735147E+02  0.47432890374E+02  0.41800000000E+01 0. -1.
        -11    1    1    2    0    0  0.67960786577E+02  0.20709901192E+02 -0.29788256393E+02  0.77038358877E+02  0.00000000000E+00 0. -1.
         11    1    1    2    0    0  0.36621760725E+02 -0.53762705849E+02  0.19010314868E+02  0.67771483458E+02  0.00000000000E+00 0.  1.
</event>
<event>
 7    1  0.2899775E-009  0.1837660E+03  0.7561462E-02  0.1164207E+00
         -1   -1    0    0    0  501 -0.00000000000E+00  0.00000000000E+00  0.46091984746E+02  0.46091984746E+02  0.00000000000E+00 0.  1.
          1   -1    0    0  501    0  0.00000000000E+00 -0.00000000000E+00 -0.11294492595E+04  0.11294492595E+04  0.00000000000E+00 0. -1.
         25    2    1    2    0    0  0.10492791989E+03 -0.14899840470E+03 -0.80057379674E+03  0.83052743397E+03  0.12508805527E+03 0.  0.
          5    1    3    3  502    0  0.20102850103E+02 -0.13201616153E+02 -0.37528740755E+03  0.37608046735E+03  0.41800000000E+01 0. -1.
         -5    1    3    3    0  502  0.84825069792E+02 -0.13579678855E+03 -0.42528638918E+03  0.45444696662E+03  0.41800000000E+01 0. -1.
        -11    1    1    2    0    0 -0.73057098257E+02  0.90211703136E+02 -0.11074686918E+03  0.16043802548E+03  0.00000000000E+00 0.  1.
         11    1    1    2    0    0 -0.31870821637E+02  0.58786701565E+02 -0.17203660887E+03  0.18457578483E+03  0.00000000000E+00 0. -1.
</event>
<event>
 7    1  0.2899775E-009  0.2771976E+03  0.7561462E-02  0.1097229E+00
         -4   -1    0    0    0  501 -0.00000000000E+00  0.00000000000E+00  0.14455071665E+03  0.14455071665E+03  0.00000000000E+00 0.  1.
          4   -1    0    0  501    0  0.00000000000E+00 -0.00000000000E+00 -0.59290650010E+03  0.59290650010E+03  0.00000000000E+00 0. -1.
         25    2    1    2    0    0  0.15758606167E+03  0.21068898283E+03 -0.14789516334E+03  0.32671675197E+03  0.12509053665E+03 0.  0.
          5    1    3    3  502    0  0.13561788920E+03  0.22520313228E+03 -0.14401183016E+03  0.29977582005E+03  0.41800000000E+01 0. -1.
         -5    1    3    3    0  502  0.21968172465E+02 -0.14514149456E+02 -0.38833331811E+01  0.26940931916E+02  0.41800000000E+01 0. -1.
        -11    1    1    2    0    0 -0.68712669821E+02 -0.67710217941E+02 -0.49187177187E+02  0.10828426944E+03  0.00000000000E+00 0.  1.
         11    1    1    2    0    0 -0.88873391849E+02 -0.14297876489E+03 -0.25127344292E+03  0.30245619534E+03  0.00000000000E+00 0. -1.
</event>
<event>
 7    1  0.2899775E-009  0.2024011E+03  0.7561462E-02  0.1147729E+00
          1   -1    0    0  501    0  0.00000000000E+00  0.00000000000E+00  0.64320979413E+02  0.64320979413E+02  0.00000000000E+00 0. -1.
         -1   -1    0    0    0  501 -0.00000000000E+00 -0.00000000000E+00 -0.65975654914E+03  0.65975654914E+03  0.00000000000E+00 0.  1.
         25    2    1    2    0    0 -0.36872318669E+02 -0.16990265158E+03 -0.33930739627E+03  0.40125239782E+03  0.12508996243E+03 0.  0.
          5    1    3    3  502    0  0.37591103714E+02 -0.12788519462E+02 -0.72487732271E+02  0.82756154081E+02  0.41800000000E+01 0. -1.
         -5    1    3    3    0  502 -0.74463422383E+02 -0.15711413211E+03 -0.26681966400E+03  0.31849624374E+03  0.41800000000E+01 0. -1.
        -11    1    1    2    0    0  0.37610259692E+02  0.23064964077E+02 -0.95472733248E+02  0.10517398441E+03  0.00000000000E+00 0.  1.
         11    1    1    2    0    0 -0.73794102368E+00  0.14683768750E+03 -0.16065544022E+03  0.21765114633E+03  0.00000000000E+00 0. -1.
</event>
<event>
 7    1  0.2899775E-009  0.1003703E+03  0.7561462E-02  0.1279519E+00
         -1   -1    0    0    0  501 -0.00000000000E+00  0.00000000000E+00  0.37735239623E+03  0.37735239623E+03  0.00000000000E+00 0.  1.
          1   -1    0    0  501    0  0.00000000000E+00 -0.00000000000E+00 -0.60545678081E+02  0.60545678081E+02  0.00000000000E+00 0. -1.
         25    2    1    2    0    0  0.27098875062E+02  0.36546684237E+02  0.35604090433E+02  0.13778548548E+03  0.12508868692E+03 0.  0.
          5    1    3    3  502    0  0.31551847449E+02  0.65275287252E+02  0.64099139891E+02  0.96863586234E+02  0.41800000000E+01 0. -1.
         -5    1    3    3    0  502 -0.44529723869E+01 -0.28728603015E+02 -0.28495049458E+02  0.40921899246E+02  0.41800000000E+01 0. -1.
        -11    1    1    2    0    0 -0.58548195455E+02 -0.14427267175E+02  0.21751797722E+03  0.22572130525E+03  0.00000000000E+00 0.  1.
         11    1    1    2    0    0  0.31449320392E+02 -0.22119417062E+02  0.63684650493E+02  0.74391283581E+02  0.00000000000E+00 0. -1.
</event>
<event>
 7    1  0.2963128E-009  0.1247728E+03  0.7561462E-02  0.1235425E+00
          2   -1    0    0  501    0  0.00000000000E+00  0.00000000000E+00  0.54386352096E+03  0.54386352096E+03  0.00000000000E+00 0. -1.
         -2   -1    0    0    0  501 -0.00000000000E+00 -0.00000000000E+00 -0.37038974350E+02  0.37038974350E+02  0.00000000000E+00 0.  1.
         25    2    1    2    0    0  0.37424463002E+02  0.78936838868E+02  0.32725157629E+03  0.36107126145E+03  0.12508895515E+03 0.  0.
          5    1    3    3  502    0 -0.14335250465E+02  0.69520536546E+02  0.28421004520E+03  0.29297000973E+03  0.41800000000E+01 0. -1.
         -5    1    3    3    0  502  0.51759713467E+02  0.94163023219E+01  0.43041531090E+02  0.68101251723E+02  0.41800000000E+01 0. -1.
        -11    1    1    2    0    0 -0.66672694814E+02 -0.43028331503E+02  0.98773959849E+02  0.12670035789E+03  0.00000000000E+00 0.  1.
         11    1    1    2    0    0  0.29248231813E+02 -0.35908507365E+02  0.80799010470E+02  0.93130875966E+02  0.00000000000E+00 0. -1.
</event>
<event>
 7    1  0.2899775E-009  0.1893532E+03  0.7561462E-02  0.1159046E+00
         -1   -1    0    0    0  501 -0.00000000000E+00  0.00000000000E+00  0.10183719027E+03  0.10183719027E+03  0.00000000000E+00 0.  1.
          1   -1    0    0  501    0  0.00000000000E+00 -0.00000000000E+00 -0.43444302529E+03  0.43444302529E+03  0.00000000000E+00 0. -1.
         25    2    1    2    0    0 -0.34233611948E+02  0.15814202745E+03 -0.61851082902E+02  0.21366339452E+03  0.12508256740E+03 0.  0.
          5    1    3    3  502    0 -0.64058487655E+02  0.16100316587E+03 -0.59749779820E+02  0.18333853345E+03  0.41800000000E+01 0. -1.
         -5    1    3    3    0  502  0.29824875707E+02 -0.28611384190E+01 -0.21013030813E+01  0.30324861065E+02  0.41800000000E+01 0. -1.
        -11    1    1    2    0    0 -0.16494159575E+02 -0.81934157537E+02 -0.13863109278E+03  0.16187601230E+03  0.00000000000E+00 0.  1.
         11    1    1    2    0    0  0.50727771524E+02 -0.76207869909E+02 -0.13212365933E+03  0.16074080874E+03  0.00000000000E+00 0. -1.
</event>
<event>
 7    1  0.2899775E-009  0.9232151E+02  0.7561462E-02  0.1297325E+00
          1   -1    0    0  501    0  0.00000000000E+00  0.00000000000E+00  0.18194636137E+03  0.18194636137E+03  0.00000000000E+00 0. -1.
         -1   -1    0    0    0  501 -0.00000000000E+00 -0.00000000000E+00 -0.67952109053E+02  0.67952109053E+02  0.00000000000E+00 0.  1.
         25    2    1    2    0    0 -0.11635882129E+02 -0.18159381474E+02  0.83226245762E+02  0.15178738357E+03  0.12509054696E+03 0.  0.
          5    1    3    3  502    0 -0.15584224292E+02 -0.65879184700E+02  0.16941705678E+02  0.69910148153E+02  0.41800000000E+01 0.  1.
         -5    1    3    3    0  502  0.39483421633E+01  0.47719803225E+02  0.66284540084E+02  0.81877235419E+02  0.41800000000E+01 0.  1.
        -11    1    1    2    0    0  0.30860942446E+02  0.32461666506E+02  0.50187969311E+02  0.67268044602E+02  0.00000000000E+00 0. -1.
         11    1    1    2    0    0 -0.19225060317E+02 -0.14302285032E+02 -0.19419962759E+02  0.30843042245E+02  0.00000000000E+00 0.  1.
</event>
<event>
 7    1  0.2899775E-009  0.1261343E+03  0.7561462E-02  0.1233307E+00
          1   -1    0    0  501    0  0.00000000000E+00  0.00000000000E+00  0.58402775553E+02  0.58402775553E+02  0.00000000000E+00 0. -1.
         -1   -1    0    0    0  501 -0.00000000000E+00 -0.00000000000E+00 -0.31985026998E+03  0.31985026998E+03  0.00000000000E+00 0.  1.
         25    2    1    2    0    0 -0.77318456168E+02  0.23417701351E+02 -0.12546487240E+03  0.19472118206E+03  0.12509345361E+03 0.  0.
          5    1    3    3  502    0 -0.10219811229E+03  0.18063451887E+02 -0.13214589644E+03  0.16807960256E+03  0.41800000000E+01 0. -1.
         -5    1    3    3    0  502  0.24879656125E+02  0.53542494631E+01  0.66810240407E+01  0.26641579504E+02  0.41800000000E+01 0. -1.
        -11    1    1    2    0    0  0.51061770443E+02  0.32714169985E+02 -0.57876392048E+02  0.83828384662E+02  0.00000000000E+00 0.  1.
         11    1    1    2    0    0  0.26256685725E+02 -0.56131871335E+02 -0.78106229974E+02  0.99703478804E+02  0.00000000000E+00 0. -1.
</event>
<event>
 7    1  0.2899775E-009  0.1369836E+03  0.7561462E-02  0.1217446E+00
          1   -1    0    0  501    0  0.00000000000E+00  0.00000000000E+00  0.46887741195E+03  0.46887741195E+03  0.00000000000E+00 0. -1.
         -1   -1    0    0    0  501 -0.00000000000E+00 -0.00000000000E+00 -0.60047444186E+02  0.60047444186E+02  0.00000000000E+00 0.  1.
         25    2    1    2    0    0 -0.90815174786E+02  0.89617006181E+02  0.23244359606E+03  0.29318279719E+03  0.12509006134E+03 0.  0.
          5    1    3    3  502    0 -0.25862424447E+02  0.50069563257E+02  0.20432921888E+03  0.21199935908E+03  0.41800000000E+01 0.  1.
         -5    1    3    3    0  502 -0.64952750339E+02  0.39547442924E+02  0.28114377188E+02  0.81183438108E+02  0.41800000000E+01 0.  1.
        -11    1    1    2    0    0  0.17378775197E+02 -0.59396219771E+02  0.12948577576E+03  0.14351480368E+03  0.00000000000E+00 0. -1.
         11    1    1    2    0    0  0.73436399589E+02 -0.30220786409E+02  0.46900595942E+02  0.92227255274E+02  0.00000000000E+00 0.  1.
</event>
<event>
 7    1  0.2899775E-009  0.1115424E+03  0.7561462E-02  0.1257740E+00
          1   -1    0    0  501    0  0.00000000000E+00  0.00000000000E+00  0.16347570496E+03  0.16347570496E+03  0.00000000000E+00 0. -1.
         -1   -1    0    0    0  501 -0.00000000000E+00 -0.00000000000E+00 -0.12382787681E+03  0.12382787681E+03  0.00000000000E+00 0.  1.
         25    2    1    2    0    0  0.52993291118E+02 -0.63395871247E+02  0.29251265374E+02  0.15274124431E+03  0.12508767243E+03 0.  0.
          5    1    3    3  502    0 -0.36849892014E+01 -0.66376831123E+01  0.64461887219E+02  0.65041873331E+02  0.41800000000E+01 0. -1.
         -5    1    3    3    0  502  0.56678280319E+02 -0.56758188135E+02 -0.35210621845E+02  0.87699370984E+02  0.41800000000E+01 0. -1.
        -11    1    1    2    0    0 -0.32949020207E+02 -0.26319349121E+02  0.51791268730E+01  0.42487285461E+02  0.00000000000E+00 0. -1.
         11    1    1    2    0    0 -0.20044270911E+02  0.89715220368E+02  0.52174359074E+01  0.92075051993E+02  0.00000000000E+00 0.  1.
</event>
<event>
 7    1  0.2899775E-009  0.6316954E+02  0.7561462E-02  0.1384992E+00
          4   -1    0    0  501    0  0.00000000000E+00  0.00000000000E+00  0.23150550284E+03  0.23150550284E+03  0.00000000000E+00 0. -1.
         -4   -1    0    0    0  501 -0.00000000000E+00 -0.00000000000E+00 -0.80901553014E+02  0.80901553014E+02  0.00000000000E+00 0.  1.
         25    2    1    2    0    0 -0.14869575916E+02 -0.47749173600E+02  0.16115654042E+03  0.21005849913E+03  0.12510817188E+03 0.  0.
          5    1    3    3  502    0 -0.16098918976E+02 -0.44008943111E+02 -0.17221095318E+01  0.47078661060E+02  0.41800000000E+01 0. -1.
         -5    1    3    3    0  502  0.12293430592E+01 -0.37402304887E+01  0.16287864995E+03  0.16297983807E+03  0.41800000000E+01 0. -1.
        -11    1    1    2    0    0 -0.16216908736E+02 -0.41786685071E+00 -0.36106710151E+02  0.39583547840E+02  0.00000000000E+00 0.  1.
         11    1    1    2    0    0  0.31086484653E+02  0.48167040451E+02  0.25554119562E+02  0.62765008886E+02  0.00000000000E+00 0. -1.
</event>
<event>
 7    1  0.2899775E-009  0.2531268E+03  0.7561462E-02  0.1111345E+00
         -2   -1    0    0    0  501 -0.00000000000E+00  0.00000000000E+00  0.12015228472E+03  0.12015228472E+03  0.00000000000E+00 0. -1.
          2   -1    0    0  501    0  0.00000000000E+00 -0.00000000000E+00 -0.56983011885E+03  0.56983011885E+03  0.00000000000E+00 0.  1.
         25    2    1    2    0    0 -0.23288917716E+03  0.32092936068E+02 -0.27678388537E+03  0.38408875743E+03  0.12509008353E+03 0.  0.
          5    1    3    3  502    0 -0.18600943798E+03 -0.25650250896E+02 -0.22636400733E+03  0.29413531342E+03  0.41800000000E+01 0. -1.
         -5    1    3    3    0  502 -0.46879739184E+02  0.57743186964E+02 -0.50419878038E+02  0.89953444004E+02  0.41800000000E+01 0. -1.
        -11    1    1    2    0    0  0.76485960500E+02 -0.41939855545E+02 -0.10106527506E+03  0.13350372077E+03  0.00000000000E+00 0.  1.
         11    1    1    2    0    0  0.15640321666E+03  0.98469194768E+01 -0.71828673709E+02  0.17238992538E+03  0.00000000000E+00 0. -1.
</event>
<event>
 7    1  0.2899775E-009  0.1295052E+03  0.7561462E-02  0.1228192E+00
          1   -1    0    0  501    0  0.00000000000E+00  0.00000000000E+00  0.53071111333E+02  0.53071111333E+02  0.00000000000E+00 0. -1.
         -1   -1    0    0    0  501 -0.00000000000E+00 -0.00000000000E+00 -0.38639273151E+03  0.38639273151E+03  0.00000000000E+00 0.  1.
         25    2    1    2    0    0 -0.76406189921E+02 -0.52507895695E+02 -0.16727432032E+03  0.22852418496E+03  0.12509044690E+03 0.  0.
          5    1    3    3  502    0  0.26628961471E+02  0.10521849069E+02 -0.61295801282E+02  0.67782435422E+02  0.41800000000E+01 0.  1.
         -5    1    3    3    0  502 -0.10303515139E+03 -0.63029744764E+02 -0.10597851903E+03  0.16074174954E+03  0.41800000000E+01 0.  1.
        -11    1    1    2    0    0  0.29900167643E+02 -0.98018699738E+01 -0.11177574909E+03  0.11612025993E+03  0.00000000000E+00 0.  1.
         11    1    1    2    0    0  0.46506022278E+02  0.62309765669E+02 -0.54271550763E+02  0.94819397952E+02  0.00000000000E+00 0. -1.
</event>
<event>
 7    1  0.2899775E-009  0.8193530E+02  0.7561462E-02  0.1323647E+00
          4   -1    0    0  501    0  0.00000000000E+00  0.00000000000E+00  0.58955110667E+02  0.58955110667E+02  0.00000000000E+00 0. -1.
         -4   -1    0    0    0  501 -0.00000000000E+00 -0.00000000000E+00 -0.23295575931E+03  0.23295575931E+03  0.00000000000E+00 0.  1.
         25    2    1    2    0    0  0.35038026904E+01 -0.25158023902E+02 -0.14638487527E+03  0.19421716442E+03  0.12508626002E+03 0.  0.
          5    1    3    3  502    0 -0.32484850859E+02 -0.36733766034E+02 -0.14818082775E+03  0.15613988989E+03  0.41800000000E+01 0. -1.
         -5    1    3    3    0  502  0.35988653549E+02  0.11575742132E+02  0.17959524773E+01  0.38077274528E+02  0.41800000000E+01 0. -1.
        -11    1    1    2    0    0 -0.16427927856E+02 -0.22151130834E+02 -0.38596523882E+02  0.47436705900E+02  0.00000000000E+00 0.  1.
         11    1    1    2    0    0  0.12924125166E+02  0.47309154736E+02  0.10980750509E+02  0.50256999661E+02  0.00000000000E+00 0. -1.
</event>
<event>
 7    1  0.2899775E-009  0.9990215E+02  0.7561462E-02  0.1280502E+00
          2   -1    0    0  501    0  0.00000000000E+00  0.00000000000E+00  0.50186096206E+03  0.50186096206E+03  0.00000000000E+00 0.  1.
         -2   -1    0    0    0  501 -0.00000000000E+00 -0.00000000000E+00 -0.35330014233E+02  0.35330014233E+02  0.00000000000E+00 0. -1.
         25    2    1    2    0    0  0.11801060817E+02 -0.60987498689E+02  0.34234337176E+03  0.36973780394E+03  0.12509324299E+03 0.  0.
          5    1    3    3  502    0 -0.13604767941E+02  0.80269708727E+01  0.25481671079E+03  0.25534006828E+03  0.41800000000E+01 0.  1.
         -5    1    3    3    0  502  0.25405828758E+02 -0.69014469562E+02  0.87526660972E+02  0.11439773566E+03  0.41800000000E+01 0.  1.
        -11    1    1    2    0    0 -0.50252723467E+02  0.47232694170E+02  0.60197590160E+02  0.91542413533E+02  0.00000000000E+00 0. -1.
         11    1    1    2    0    0  0.38451662650E+02  0.13754804519E+02  0.63989985907E+02  0.75910758818E+02  0.00000000000E+00 0.  1.
</event>
<event>
 7    1  0.2899775E-009  0.1354475E+03  0.7561462E-02  0.1219589E+00
         -3   -1    0    0    0  501 -0.00000000000E+00  0.00000000000E+00  0.36189709114E+03  0.36189709114E+03  0.00000000000E+00 0.  1.
          3   -1    0    0  501    0  0.00000000000E+00 -0.00000000000E+00 -0.53657932511E+02  0.53657932511E+02  0.00000000000E+00 0. -1.
         25    2    1    2    0    0  0.70873979504E+02  0.32023905517E+02  0.19795164059E+03  0.24673925625E+03  0.12508699799E+03 0.  0.
          5    1    3    3  502    0 -0.33664963205E+02  0.56708071681E+00  0.24888793745E+02  0.42078210302E+02  0.41800000000E+01 0. -1.
         -5    1    3    3    0  502  0.10453894271E+03  0.31456824800E+02  0.17306284684E+03  0.20466104594E+03  0.41800000000E+01 0. -1.
        -11    1    1    2    0    0 -0.23123504080E+02  0.37092877270E+02  0.40818652763E+02  0.59805855888E+02  0.00000000000E+00 0.  1.
         11    1    1    2    0    0 -0.47750475424E+02 -0.69116782787E+02  0.69468865274E+02  0.10900991151E+03  0.00000000000E+00 0. -1.
</event>
<event>
 7    1  0.2899775E-009  0.1093694E+03  0.7561462E-02  0.1261742E+00
          2   -1    0    0  501    0  0.00000000000E+00  0.00000000000E+00  0.25668665383E+03  0.25668665383E+03  0.00000000000E+00 0. -1.
         -2   -1    0    0    0  501 -0.00000000000E+00 -0.00000000000E+00 -0.72734546415E+02  0.72734546415E+02  0.00000000000E+00 0.  1.
         25    2    1    2    0    0  0.29508196449E+01 -0.71971830604E+02  0.15011524816E+03  0.20825941350E+03  0.12509493932E+03 0.  0.
          5    1    3    3  502    0 -0.28864769677E+01  0.21591487773E+02  0.98895482310E+02  0.10135241938E+03  0.41800000000E+01 0. -1.
         -5    1    3    3    0  502  0.58372966125E+01 -0.93563318376E+02  0.51219765852E+02  0.10690699412E+03  0.41800000000E+01 0. -1.
        -11    1    1    2    0    0  0.30387815455E+02  0.93800327915E+01  0.38685180476E+02  0.50079412255E+02  0.00000000000E+00 0. -1.
         11    1    1    2    0    0 -0.33338635100E+02  0.62591797812E+02 -0.48483212278E+01  0.71082374485E+02  0.00000000000E+00 0.  1.
</event>
<event>
 7    1  0.2899775E-009  0.7955936E+02  0.7561462E-02  0.1330307E+00
         -2   -1    0    0    0  501 -0.00000000000E+00  0.00000000000E+00  0.37150369534E+02  0.37150369534E+02  0.00000000000E+00 0.  1.
          2   -1    0    0  501    0  0.00000000000E+00 -0.00000000000E+00 -0.74670190587E+03  0.74670190587E+03  0.00000000000E+00 0. -1.
         25    2    1    2    0    0  0.73706514473E+02 -0.11313390834E+02 -0.62677094249E+03  0.64346816149E+03  0.12509523340E+03 0.  0.
          5    1    3    3  502    0  0.69474246686E+02 -0.21391643648E+02 -0.15186757377E+03  0.16842062146E+03  0.41800000000E+01 0. -1.
         -5    1    3    3    0  502  0.42322677869E+01  0.10078252814E+02 -0.47490336872E+03  0.47504754003E+03  0.41800000000E+01 0. -1.
        -11    1    1    2    0    0 -0.32240285429E+02  0.60644559267E+01  0.13459619066E+02  0.35459483578E+02  0.00000000000E+00 0.  1.
         11    1    1    2    0    0 -0.41466229044E+02  0.52489349078E+01 -0.96240212915E+02  0.10492463033E+03  0.00000000000E+00 0. -1.
</event>
<event>
 7    1  0.2899775E-009  0.8875337E+02  0.7561462E-02  0.1305899E+00
         -1   -1    0    0    0  501 -0.00000000000E+00  0.00000000000E+00  0.21612064597E+03  0.21612064597E+03  0.00000000000E+00 0.  1.
          1   -1    0    0  501    0  0.00000000000E+00 -0.00000000000E+00 -0.59002595453E+02  0.59002595453E+02  0.00000000000E+00 0. -1.
         25    2    1    2    0    0 -0.17048578518E+02  0.23305053460E+02  0.10250631496E+03  0.16428304416E+03  0.12509034514E+03 0.  0.
          5    1    3    3  502    0  0.44034657426E+00  0.49284034925E+02  0.11883499575E+03  0.12871805864E+03  0.41800000000E+01 0. -1.
         -5    1    3    3    0  502 -0.17488925092E+02 -0.25978981466E+02 -0.16328680795E+02  0.35564985525E+02  0.41800000000E+01 0. -1.
        -11    1    1    2    0    0 -0.12842268072E+02 -0.52869549241E+02  0.31293416300E+02  0.62764567950E+02  0.00000000000E+00 0.  1.
         11    1    1    2    0    0  0.29890846590E+02  0.29564495781E+02  0.23318319258E+02  0.48075629311E+02  0.00000000000E+00 0. -1.
</event>
<event>
 7    1  0.2899775E-009  0.1282334E+03  0.7561462E-02  0.1230101E+00
         -1   -1    0    0    0  501 -0.00000000000E+00  0.00000000000E+00  0.28769935505E+03  0.28769935505E+03  0.00000000000E+00 0.  1.
          1   -1    0    0  501    0  0.00000000000E+00 -0.00000000000E+00 -0.69715231245E+02  0.69715231245E+02  0.00000000000E+00 0. -1.
         25    2    1    2    0    0  0.68023410678E+02  0.43443605998E+02  0.16995844565E+03  0.22593696809E+03  0.12508840475E+03 0.  0.
          5    1    3    3  502    0  0.10441727908E+03  0.32726353670E+02  0.11284297351E+03  0.15724182480E+03  0.41800000000E+01 0. -1.
         -5    1    3    3    0  502 -0.36393868404E+02  0.10717252327E+02  0.57115472140E+02  0.68695143297E+02  0.41800000000E+01 0. -1.
        -11    1    1    2    0    0  0.46898330413E+01 -0.35316721880E+02 -0.11199226771E+02  0.37345522604E+02  0.00000000000E+00 0. -1.
         11    1    1    2    0    0 -0.72713243720E+02 -0.81268841183E+01  0.59224904933E+02  0.94132095600E+02  0.00000000000E+00 0.  1.
</event>
<event>
 6    1  0.2899775E-009  0.1112965E+03  0.7561462E-02  0.1258188E+00
         -1   -1    0    0    0  501 -0.00000000000E+00  0.00000000000E+00  0.12012799874E+03  0.12012799874E+03  0.00000000000E+00 0.  1.
          1   -1    0    0  501    0  0.00000000000E+00 -0.00000000000E+00 -0.49346490055E+03  0.49346490055E+03  0.00000000000E+00 0. -1.
          5    1    1    2  502    0  0.15289872364E+02 -0.36228408469E+02 -0.12087288659E+03  0.12717706117E+03  0.41800000000E+01 0. -1.
         -5    1    1    2    0  502 -0.59807453933E+01  0.10193398220E+03 -0.33311289609E+03  0.34843647912E+03  0.41800000000E+01 0. -1.
        -11    1    1    2    0    0  0.25019387905E+01 -0.68638530072E+02  0.96218386301E+02  0.11821795706E+03  0.00000000000E+00 0.  1.
         11    1    1    2    0    0 -0.11811065761E+02  0.29329563356E+01 -0.15569505436E+02  0.19761401944E+02  0.00000000000E+00 0. -1.
</event>
<event>
 7    1  0.2899775E-009  0.1205087E+03  0.7561462E-02  0.1242260E+00
         -2   -1    0    0    0  501 -0.00000000000E+00  0.00000000000E+00  0.12166480453E+03  0.12166480453E+03  0.00000000000E+00 0.  1.
          2   -1    0    0  501    0  0.00000000000E+00 -0.00000000000E+00 -0.14183082433E+03  0.14183082433E+03  0.00000000000E+00 0. -1.
         25    2    1    2    0    0 -0.43971112246E+02 -0.45192781716E+02  0.27870741210E+02  0.14282765849E+03  0.12508843105E+03 0.  0.
          5    1    3    3  502    0 -0.72582732834E+02  0.46071040454E+01 -0.10539376120E+02  0.73607264331E+02  0.41800000000E+01 0. -1.
         -5    1    3    3    0  502  0.28611620587E+02 -0.49799885762E+02  0.38410117330E+02  0.69220394161E+02  0.41800000000E+01 0. -1.
        -11    1    1    2    0    0 -0.24784573990E+02 -0.52166555107E+01 -0.13304059763E+02  0.28609204965E+02  0.00000000000E+00 0.  1.
         11    1    1    2    0    0  0.68755686236E+02  0.50409437227E+02 -0.34732701241E+02  0.92058765399E+02  0.00000000000E+00 0. -1.
</event>
<event>
 7    1  0.2899775E-009  0.1160084E+03  0.7561462E-02  0.1249831E+00
          1   -1    0    0  501    0  0.00000000000E+00  0.00000000000E+00  0.57265632337E+03  0.57265632337E+03  0.00000000000E+00 0. -1.
         -1   -1    0    0    0  501 -0.00000000000E+00 -0.00000000000E+00 -0.25539938067E+02  0.25539938067E+02  0.00000000000E+00 0.  1.
         25    2    1    2    0    0  0.14040400384E+02 -0.38620880265E+02  0.22529352140E+03  0.26094749109E+03  0.12509083534E+03 0.  0.
          5    1    3    3  502    0  0.65494299606E+02 -0.44410140630E+02  0.12503339339E+03  0.14802900302E+03  0.41800000000E+01 0. -1.
         -5    1    3    3    0  502 -0.51453899222E+02  0.57892603647E+01  0.10026012801E+03  0.11291848807E+03  0.41800000000E+01 0. -1.
        -11    1    1    2    0    0 -0.31675741745E+02  0.63131525689E+02  0.22438702360E+03  0.23524131974E+03  0.00000000000E+00 0.  1.
         11    1    1    2    0    0  0.17635341361E+02 -0.24510645424E+02  0.97435840298E+02  0.10200745060E+03  0.00000000000E+00 0. -1.
</event>
<event>
 7    1  0.2899775E-009  0.1594701E+03  0.7561462E-02  0.1189296E+00
          2   -1    0    0  501    0  0.00000000000E+00  0.00000000000E+00  0.36459589899E+03  0.36459589899E+03  0.00000000000E+00 0. -1.
         -2   -1    0    0    0  501 -0.00000000000E+00 -0.00000000000E+00 -0.89280011803E+02  0.89280011803E+02  0.00000000000E+00 0.  1.
         25    2    1    2    0    0  0.73221801031E+02 -0.10802079602E+03  0.22497084662E+03  0.28859911455E+03  0.12509053751E+03 0.  0.
          5    1    3    3  502    0  0.60733423138E+02 -0.73349540689E+01  0.28883875766E+02  0.67779797259E+02  0.41800000000E+01 0. -1.
         -5    1    3    3    0  502  0.12488377893E+02 -0.10068584195E+03  0.19608697085E+03  0.22081931729E+03  0.41800000000E+01 0. -1.
        -11    1    1    2    0    0  0.93851777873E+01  0.59584841864E+02  0.90587570794E+01  0.60995868892E+02  0.00000000000E+00 0. -1.
         11    1    1    2    0    0 -0.82606978819E+02  0.48435954159E+02  0.41286283494E+02  0.10428092735E+03  0.00000000000E+00 0.  1.
</event>
<event>
 7    1  0.2899775E-009  0.1830570E+03  0.7561462E-02  0.1164877E+00
         -2   -1    0    0    0  501 -0.00000000000E+00  0.00000000000E+00  0.46709140013E+02  0.46709140013E+02  0.00000000000E+00 0.  1.
          2   -1    0    0  501    0  0.00000000000E+00 -0.00000000000E+00 -0.73459428983E+03  0.73459428983E+03  0.00000000000E+00 0. -1.
         25    2    1    2    0    0  0.13704086046E+03 -0.77422352355E+02 -0.33160749143E+03  0.38779455136E+03  0.12508664041E+03 0.  0.
          5    1    3    3  502    0  0.12061433013E+03 -0.11001120263E+03 -0.28476916596E+03  0.32827005897E+03  0.41800000000E+01 0. -1.
         -5    1    3    3    0  502  0.16426530331E+02  0.32588850272E+02 -0.46838325473E+02  0.59524492387E+02  0.41800000000E+01 0. -1.
        -11    1    1    2    0    0 -0.91847883156E+02  0.21779934709E+02 -0.22351542853E+03  0.24263047209E+03  0.00000000000E+00 0.  1.
         11    1    1    2    0    0 -0.45192977307E+02  0.55642417646E+02 -0.13276222985E+03  0.15087840639E+03  0.00000000000E+00 0. -1.
</event>
<event>
 7    1  0.2899775E-009  0.1866568E+03  0.7561462E-02  0.1161512E+00
          3   -1    0    0  501    0  0.00000000000E+00  0.00000000000E+00  0.40572715772E+03  0.40572715772E+03  0.00000000000E+00 0. -1.
         -3   -1    0    0    0  501 -0.00000000000E+00 -0.00000000000E+00 -0.99739848614E+02  0.99739848614E+02  0.00000000000E+00 0.  1.
         25    2    1    2    0    0 -0.15236785541E+03 -0.57669098059E+02  0.10567284786E+03  0.23098749509E+03  0.12508710517E+03 0.  0.
          5    1    3    3  502    0 -0.39338733482E+01 -0.49320527241E+02  0.20022376074E+01  0.49693773476E+02  0.41800000000E+01 0.  1.
         -5    1    3    3    0  502 -0.14843398206E+03 -0.83485708177E+01  0.10367061025E+03  0.18129372161E+03  0.41800000000E+01 0.  1.
        -11    1    1    2    0    0  0.12829215692E+03  0.19443454470E+02  0.97907741788E+02  0.16255107305E+03  0.00000000000E+00 0.  1.
         11    1    1    2    0    0  0.24075698493E+02  0.38225643589E+02  0.10240671946E+03  0.11192843819E+03  0.00000000000E+00 0. -1.
</event>
<event>
 7    1  0.2899775E-009  0.5991448E+02  0.7561462E-02  0.1398191E+00
          1   -1    0    0  501    0  0.00000000000E+00  0.00000000000E+00  0.21690298170E+03  0.21690298170E+03  0.00000000000E+00 0. -1.
         -1   -1    0    0    0  501 -0.00000000000E+00 -0.00000000000E+00 -0.58062126303E+02  0.58062126303E+02  0.00000000000E+00 0.  1.
         25    2    1    2    0    0 -0.93367876075E+01 -0.30142853858E+02  0.10562767524E+03  0.16673513683E+03  0.12509049858E+03 0.  0.
          5    1    3    3  502    0 -0.21085289406E+02  0.15956146410E+02 -0.19292456863E+02  0.32997868558E+02  0.41800000000E+01 0.  1.
         -5    1    3    3    0  502  0.11748501799E+02 -0.46099000268E+02  0.12492013210E+03  0.13373726827E+03  0.41800000000E+01 0.  1.
        -11    1    1    2    0    0 -0.12160836686E+02  0.88102658892E+01  0.71360490173E+02  0.72923427592E+02  0.00000000000E+00 0. -1.
         11    1    1    2    0    0  0.21497624294E+02  0.21332587969E+02 -0.18147310008E+02  0.35306543590E+02  0.00000000000E+00 0.  1.
</event>
<event>
 7    1  0.2899775E-009  0.9048301E+02  0.7561462E-02  0.1301686E+00
          2   -1    0    0  501    0  0.00000000000E+00  0.00000000000E+00  0.13519566023E+03  0.13519566023E+03  0.00000000000E+00 0. -1.
         -2   -1    0    0    0  501 -0.00000000000E+00 -0.00000000000E+00 -0.10474717306E+03  0.10474717306E+03  0.00000000000E+00 0.  1.
         25    2    1    2    0    0  0.28745180632E+02 -0.31041200082E+02 -0.10449608289E+02  0.13246678895E+03  0.12509362234E+03 0.  0.
          5    1    3    3  502    0  0.41221816106E+02  0.32350602972E+02 -0.35079751254E+02  0.63197001383E+02  0.41800000000E+01 0. -1.
         -5    1    3    3    0  502 -0.12476635474E+02 -0.63391803054E+02  0.24630142965E+02  0.69269787568E+02  0.41800000000E+01 0. -1.
        -11    1    1    2    0    0 -0.12433845077E+02  0.42133964154E+02 -0.16389054421E+02  0.46887872031E+02  0.00000000000E+00 0.  1.
         11    1    1    2    0    0 -0.16311335555E+02 -0.11092764072E+02  0.57287149884E+02  0.60588172312E+02  0.00000000000E+00 0. -1.
</event>
<event>
 7    1  0.2899775E-009  0.1290078E+03  0.7561462E-02  0.1228935E+00
         -1   -1    0    0    0  501 -0.00000000000E+00  0.00000000000E+00  0.20416555509E+03  0.20416555509E+03  0.00000000000E+00 0.  1.
          1   -1    0    0  501    0  0.00000000000E+00 -0.00000000000E+00 -0.11394525037E+03  0.11394525037E+03  0.00000000000E+00 0. -1.
         25    2    1    2    0    0  0.49527347188E+02 -0.24121501113E+02  0.13053762607E+03  0.18899941935E+03  0.12508358708E+03 0.  0.
          5    1    3    3  502    0 -0.13648365670E+02 -0.61437251733E+02  0.64102804103E+02  0.89930282330E+02  0.41800000000E+01 0. -1.
         -5    1    3    3    0  502  0.63175712858E+02  0.37315750620E+02  0.66434821969E+02  0.99069137018E+02  0.41800000000E+01 0. -1.
        -11    1    1    2    0    0 -0.69517755735E+02 -0.20564949334E+02 -0.32849743635E+02  0.79591087193E+02  0.00000000000E+00 0. -1.
         11    1    1    2    0    0  0.19990408547E+02  0.44686450447E+02 -0.74675777191E+01  0.49520298913E+02  0.00000000000E+00 0.  1.
</event>
<event>
 7    1  0.2899775E-009  0.1057588E+03  0.7561462E-02  0.1268632E+00
         -2   -1    0    0    0  501 -0.00000000000E+00  0.00000000000E+00  0.27236242192E+02  0.27236242192E+02  0.00000000000E+00 0.  1.
          2   -1    0    0  501    0  0.00000000000E+00 -0.00000000000E+00 -0.57154303755E+03  0.57154303755E+03  0.00000000000E+00 0. -1.
         25    2    1    2    0    0  0.21990830178E+02  0.35425253605E+02 -0.19128963682E+03  0.23233066394E+03  0.12508903648E+03 0.  0.
          5    1    3    3  502    0 -0.44685391648E+01 -0.41470583652E+02 -0.29670353000E+02  0.51357369460E+02  0.41800000000E+01 0.  1.
         -5    1    3    3    0  502  0.26459369343E+02  0.76895837257E+02 -0.16161928382E+03  0.18097329448E+03  0.41800000000E+01 0.  1.
        -11    1    1    2    0    0 -0.21920146939E+02  0.21817376811E+02 -0.56064653961E+02  0.64029182382E+02  0.00000000000E+00 0.  1.
         11    1    1    2    0    0 -0.70683238602E-01 -0.57242630416E+02 -0.29695250458E+03  0.30241943342E+03  0.00000000000E+00 0. -1.
</event>
<event>
 7    1  0.2899775E-009  0.1066885E+03  0.7561462E-02  0.1266828E+00
         -2   -1    0    0    0  501 -0.00000000000E+00  0.00000000000E+00  0.11457808259E+02  0.11457808259E+02  0.00000000000E+00 0.  1.
          2   -1    0    0  501    0  0.00000000000E+00 -0.00000000000E+00 -0.14908589725E+04  0.14908589725E+04  0.00000000000E+00 0. -1.
         25    2    1    2    0    0  0.65547852221E+02  0.10421661372E+02 -0.97350223087E+03  0.98374800893E+03  0.12509364338E+03 0.  0.
          5    1    3    3  502    0  0.31032993176E+02  0.45109016858E+02 -0.16792780793E+03  0.17667793055E+03  0.41800000000E+01 0. -1.
         -5    1    3    3    0  502  0.34514859046E+02 -0.34687355486E+02 -0.80557442294E+03  0.80707007838E+03  0.41800000000E+01 0. -1.
        -11    1    1    2    0    0 -0.47727008428E+02 -0.48045768009E+02 -0.37936330089E+03  0.38536058078E+03  0.00000000000E+00 0. -1.
         11    1    1    2    0    0 -0.17820843793E+02  0.37624106636E+02 -0.12653563245E+03  0.13320819101E+03  0.00000000000E+00 0.  1.
</event>
<event>
 7    1  0.2899775E-009  0.1083328E+03  0.7561462E-02  0.1263689E+00
          1   -1    0    0  501    0  0.00000000000E+00  0.00000000000E+00  0.37479034719E+03  0.37479034719E+03  0.00000000000E+00 0. -1.
         -1   -1    0    0    0  501 -0.00000000000E+00 -0.00000000000E+00 -0.39411281233E+02  0.39411281233E+02  0.00000000000E+00 0.  1.
         25    2    1    2    0    0 -0.39526114017E+01  0.42029558245E+02  0.13190117301E+03  0.18661774252E+03  0.12508459328E+03 0.  0.
          5    1    3    3  502    0  0.55129841287E+02  0.46736948170E+02  0.67267838561E+02  0.98823459913E+02  0.41800000000E+01 0. -1.
         -5    1    3    3    0  502 -0.59082452689E+02 -0.47073899251E+01  0.64633334452E+02  0.87794282604E+02  0.41800000000E+01 0. -1.
        -11    1    1    2    0    0  0.38832634608E+02 -0.22072927246E+02  0.42463927029E+02  0.61630939685E+02  0.00000000000E+00 0.  1.
         11    1    1    2    0    0 -0.34880023206E+02 -0.19956630999E+02  0.16101396591E+03  0.16595294622E+03  0.00000000000E+00 0. -1.
</event>
<event>
 7    1  0.3358677E-009  0.8002340E+02  0.7561462E-02  0.1328985E+00
         -2   -1    0    0    0  501 -0.00000000000E+00  0.00000000000E+00  0.45009539231E+02  0.45009539231E+02  0.00000000000E+00 0.  1.
          2   -1    0    0  501    0  0.00000000000E+00 -0.00000000000E+00 -0.37973563933E+03  0.37973563933E+03  0.00000000000E+00 0. -1.
         25    2    1    2    0    0  0.13039360231E+02 -0.29810100104E+02 -0.28883746829E+03  0.31643826846E+03  0.12508967852E+03 0.  0.
          5    1    3    3  502    0  0.35010787974E+02 -0.57577705443E+02 -0.26520131567E+03  0.27366066153E+03  0.41800000000E+01 0.  1.
         -5    1    3    3    0  502 -0.21971427743E+02  0.27767605339E+02 -0.23636152621E+02  0.42777606923E+02  0.41800000000E+01 0.  1.
        -11    1    1    2    0    0  0.13864042306E+02  0.26318718345E+02  0.20809090313E+02  0.36302959164E+02  0.00000000000E+00 0.  1.
         11    1    1    2    0    0 -0.26903402537E+02  0.34913817591E+01 -0.66697722123E+02  0.72003950941E+02  0.00000000000E+00 0. -1.
</event>
<event>
 7    1  0.2899775E-009  0.3378006E+03  0.7561462E-02  0.1067737E+00
          2   -1    0    0  501    0  0.00000000000E+00  0.00000000000E+00  0.26051481612E+04  0.26051481612E+04  0.00000000000E+00 0. -1.
         -2   -1    0    0    0  501 -0.00000000000E+00 -0.00000000000E+00 -0.46316726886E+02  0.46316726886E+02  0.00000000000E+00 0.  1.
         25    2    1    2    0    0 -0.55656571317E+01  0.32108157472E+03  0.10156843411E+04  0.10725635008E+04  0.12511366202E+03 0.  0.
          5    1    3    3  502    0 -0.62533871724E+02  0.18676064322E+03  0.63502825772E+03  0.66488223278E+03  0.41800000000E+01 0.  1.
         -5    1    3    3    0  502  0.56968214593E+02  0.13432093150E+03  0.38065608334E+03  0.40768126802E+03  0.41800000000E+01 0.  1.
        -11    1    1    2    0    0 -0.40230612794E+02 -0.12643085118E+03  0.68914494863E+03  0.70180055754E+03  0.00000000000E+00 0. -1.
         11    1    1    2    0    0  0.45796269925E+02 -0.19465072354E+03  0.85400214460E+03  0.87710082972E+03  0.00000000000E+00 0.  1.
</event>
<event>
 7    1  0.2899775E-009  0.9924056E+02  0.7561462E-02  0.1281901E+00
         -1   -1    0    0    0  501 -0.00000000000E+00  0.00000000000E+00  0.19273336839E+03  0.19273336839E+03  0.00000000000E+00 0.  1.
          1   -1    0    0  501    0  0.00000000000E+00 -0.00000000000E+00 -0.76793390418E+02  0.76793390418E+02  0.00000000000E+00 0. -1.
         25    2    1    2    0    0 -0.48493326678E+02 -0.23003063966E+02  0.53656774197E+02  0.14631499443E+03  0.12509310330E+03 0.  0.
          5    1    3    3  502    0 -0.13212124415E+02  0.47535903027E+02 -0.22241109251E+01  0.49564517324E+02  0.41800000000E+01 0. -1.
         -5    1    3    3    0  502 -0.35281202263E+02 -0.70538966992E+02  0.55880885122E+02  0.96750477102E+02  0.41800000000E+01 0. -1.
        -11    1    1    2    0    0  0.50241163948E+02  0.34552483419E+01 -0.73249780077E+01  0.50889769098E+02  0.00000000000E+00 0. -1.
         11    1    1    2    0    0 -0.17478372701E+01  0.19547815624E+02  0.69608181787E+02  0.72321995288E+02  0.00000000000E+00 0.  1.
</event>
<event>
 7    1  0.2899775E-009  0.1098164E+03  0.7561462E-02  0.1260910E+00
          4   -1    0    0  501    0  0.00000000000E+00  0.00000000000E+00  0.12590021292E+03  0.12590021292E+03  0.00000000000E+00 0. -1.
         -4   -1    0    0    0  501 -0.00000000000E+00 -0.00000000000E+00 -0.19977678223E+03  0.19977678223E+03  0.00000000000E+00 0.  1.
         25    2    1    2    0    0  0.45507316168E+02  0.51501370566E+02  0.57006496685E+02  0.15369822437E+03  0.12510034579E+03 0.  0.
          5    1    3    3  502    0  0.32724977421E+02 -0.19290690437E+02 -0.24119108965E+02  0.45191356496E+02  0.41800000000E+01 0.  1.
         -5    1    3    3    0  502  0.12782338748E+02  0.70792061002E+02  0.81125605650E+02  0.10850686788E+03  0.41800000000E+01 0.  1.
        -11    1    1    2    0    0 -0.25128137763E+02  0.21805973781E+02 -0.56532209181E+02  0.65595841902E+02  0.00000000000E+00 0.  1.
         11    1    1    2    0    0 -0.20379178406E+02 -0.73307344347E+02 -0.74350856806E+02  0.10638292887E+03  0.00000000000E+00 0. -1.
</event>
<event>
 7    1  0.2899775E-009  0.3830324E+03  0.7561462E-02  0.1049819E+00
          2   -1    0    0  501    0  0.00000000000E+00  0.00000000000E+00  0.25811905438E+04  0.25811905438E+04  0.00000000000E+00 0. -1.
         -2   -1    0    0    0  501 -0.00000000000E+00 -0.00000000000E+00 -0.85307479238E+02  0.85307479238E+02  0.00000000000E+00 0.  1.
         25    2    1    2    0    0  0.17251631894E+03  0.32691981699E+03  0.20187139603E+04  0.20560866480E+04  0.12509118075E+03 0.  0.
          5    1    3    3  502    0  0.15019710944E+03  0.16813725757E+03  0.13267465159E+04  0.13457723057E+04  0.41800000000E+01 0. -1.
         -5    1    3    3    0  502  0.22319209499E+02  0.15878255941E+03  0.69196744442E+03  0.71031434226E+03  0.41800000000E+01 0. -1.
        -11    1    1    2    0    0 -0.17396424659E+03 -0.25760072151E+03  0.40181479326E+03  0.50801261687E+03  0.00000000000E+00 0.  1.
         11    1    1    2    0    0  0.14479276475E+01 -0.69319095474E+02  0.75354311037E+02  0.10239875821E+03  0.00000000000E+00 0. -1.
</event>
<event>
 7    1  0.2899775E-009  0.1093813E+03  0.7561462E-02  0.1261720E+00
          1   -1    0    0  501    0  0.00000000000E+00  0.00000000000E+00  0.35050206358E+03  0.35050206358E+03  0.00000000000E+00 0. -1.
         -1   -1    0    0    0  501 -0.00000000000E+00 -0.00000000000E+00 -0.36746053622E+02  0.36746053622E+02  0.00000000000E+00 0.  1.
         25    2    1    2    0    0 -0.25150573905E+02  0.23909744273E+02  0.15513518748E+03  0.20228255976E+03  0.12508829021E+03 0.  0.
          5    1    3    3  502    0  0.18613474025E+02  0.64725637894E+02  0.62856384751E+02  0.92218583377E+02  0.41800000000E+01 0. -1.
         -5    1    3    3    0  502 -0.43764047930E+02 -0.40815893622E+02  0.92278802731E+02  0.11006397638E+03  0.41800000000E+01 0. -1.
        -11    1    1    2    0    0  0.52546136503E+02  0.33433126473E+01  0.64773347966E+02  0.83473713273E+02  0.00000000000E+00 0.  1.
         11    1    1    2    0    0 -0.27395562598E+02 -0.27253056920E+02  0.93847474513E+02  0.10149184417E+03  0.00000000000E+00 0. -1.
</event>
<event>
 7    1  0.2899775E-009  0.9235854E+02  0.7561462E-02  0.1297239E+00
         -2   -1    0    0    0  501 -0.00000000000E+00  0.00000000000E+00  0.28220257389E+03  0.28220257389E+03  0.00000000000E+00 0.  1.
          2   -1    0    0  501    0  0.00000000000E+00 -0.00000000000E+00 -0.56765867141E+02  0.56765867141E+02  0.00000000000E+00 0. -1.
         25    2    1    2    0    0  0.43110633510E+02  0.72894155377E+01  0.61603544464E+02  0.14613282131E+03  0.12509253564E+03 0.  0.
          5    1    3    3  502    0 -0.20179216833E+02  0.22192874462E+02  0.73866309842E+02  0.79833756010E+02  0.41800000000E+01 0. -1.
         -5    1    3    3    0  502  0.63289850343E+02 -0.14903458924E+02 -0.12262765379E+02  0.66299065296E+02  0.41800000000E+01 0. -1.
        -11    1    1    2    0    0 -0.86191131052E+01  0.34230648531E+02  0.23307362127E+02  0.42299639938E+02  0.00000000000E+00 0. -1.
         11    1    1    2    0    0 -0.34491520405E+02 -0.41520064069E+02  0.14052580016E+03  0.15053597979E+03  0.00000000000E+00 0.  1.
</event>
<event>
 7    1  0.2899775E-009  0.1068868E+03  0.7561462E-02  0.1266446E+00
         -2   -1    0    0    0  501 -0.00000000000E+00  0.00000000000E+00  0.14117515633E+03  0.14117515633E+03  0.00000000000E+00 0. -1.
          2   -1    0    0  501    0  0.00000000000E+00 -0.00000000000E+00 -0.12871095048E+03  0.12871095048E+03  0.00000000000E+00 0.  1.
         25    2    1    2    0    0  0.13652818707E+02  0.65627934399E+02  0.49322175089E+02  0.15024474460E+03  0.12508949233E+03 0.  0.
          5    1    3    3  502    0  0.66250070622E+02  0.14846729074E+02  0.16494809731E+02  0.69993202311E+02  0.41800000000E+01 0.  1.
         -5    1    3    3    0  502 -0.52597251915E+02  0.50781205325E+02  0.32827365358E+02  0.80251542288E+02  0.41800000000E+01 0.  1.
        -11    1    1    2    0    0  0.83779372073E+01 -0.12966876461E+02 -0.57042175768E+02  0.59094327421E+02  0.00000000000E+00 0.  1.
         11    1    1    2    0    0 -0.22030755914E+02 -0.52661057938E+02  0.20184206531E+02  0.60547034796E+02  0.00000000000E+00 0. -1.
</event>
<event>
 7    1  0.2899775E-009  0.1247474E+03  0.7561462E-02  0.1235465E+00
         -1   -1    0    0    0  501 -0.00000000000E+00  0.00000000000E+00  0.18268512402E+03  0.18268512402E+03  0.00000000000E+00 0.  1.
          1   -1    0    0  501    0  0.00000000000E+00 -0.00000000000E+00 -0.20819142904E+03  0.20819142904E+03  0.00000000000E+00 0. -1.
         25    2    1    2    0    0  0.68402676531E+02  0.10691486066E+02 -0.15950078677E+03  0.21419405540E+03  0.12508140693E+03 0.  0.
          5    1    3    3  502    0  0.69734405808E+02 -0.46573304428E+02 -0.78832359232E+02  0.11516932448E+03  0.41800000000E+01 0. -1.
         -5    1    3    3    0  502 -0.13317292766E+01  0.57264790494E+02 -0.80668427534E+02  0.99024730922E+02  0.41800000000E+01 0. -1.
        -11    1    1    2    0    0  0.76482436723E+01 -0.28905047841E+02  0.12971891640E+02  0.32592443828E+02  0.00000000000E+00 0.  1.
         11    1    1    2    0    0 -0.76050920204E+02  0.18213561775E+02  0.12102259011E+03  0.14409005383E+03  0.00000000000E+00 0. -1.
</event>
<event>
 7    1  0.2899775E-009  0.1029995E+03  0.7561462E-02  0.1274112E+00
         -1   -1    0    0    0  501 -0.00000000000E+00  0.00000000000E+00  0.32736608390E+02  0.32736608390E+02  0.00000000000E+00 0.  1.
          1   -1    0    0  501    0  0.00000000000E+00 -0.00000000000E+00 -0.50663181175E+03  0.50663181175E+03  0.00000000000E+00 0. -1.
         25    2    1    2    0    0 -0.24001668297E+01  0.68084374849E+02 -0.26684198776E+03  0.30247897917E+03  0.12509054124E+03 0.  0.
          5    1    3    3  502    0 -0.43501463791E+02  0.59430424239E+02 -0.24310838841E+03  0.25405415484E+03  0.41800000000E+01 0.  1.
         -5    1    3    3    0  502  0.41101296961E+02  0.86539506104E+01 -0.23733599351E+02  0.48424824328E+02  0.41800000000E+01 0.  1.
        -11    1    1    2    0    0  0.14461747664E+02  0.54863528913E+01  0.13755096295E+01  0.15528497683E+02  0.00000000000E+00 0.  1.
         11    1    1    2    0    0 -0.12061580834E+02 -0.73570727740E+02 -0.20842872523E+03  0.22136094329E+03  0.00000000000E+00 0. -1.
</event>
<event>
 7    1  0.2899775E-009  0.2118298E+03  0.7561462E-02  0.1140125E+00
          1   -1    0    0  501    0  0.00000000000E+00  0.00000000000E+00  0.68475421807E+02  0.68475421807E+02  0.00000000000E+00 0. -1.
         -1   -1    0    0    0  501 -0.00000000000E+00 -0.00000000000E+00 -0.10633361300E+04  0.10633361300E+04  0.00000000000E+00 0.  1.
         25    2    1    2    0    0  0.18780737535E+03 -0.90883077560E+02 -0.78453694013E+03  0.82138747500E+03  0.12509128522E+03 0.  0.
          5    1    3    3  502    0  0.10762757778E+03 -0.34741032817E+02 -0.20996968796E+03  0.23852751859E+03  0.41800000000E+01 0.  1.
         -5    1    3    3    0  502  0.80179797561E+02 -0.56142044743E+02 -0.57456725217E+03  0.58285995641E+03  0.41800000000E+01 0.  1.
        -11    1    1    2    0    0 -0.53839370017E+02  0.66035628260E+01 -0.11106006137E+03  0.12359863283E+03  0.00000000000E+00 0. -1.
         11    1    1    2    0    0 -0.13396800533E+03  0.84279514734E+02 -0.99263706718E+02  0.18682544400E+03  0.00000000000E+00 0.  1.
</event>
<event>
 7    1  0.2899775E-009  0.1122806E+03  0.7561462E-02  0.1256404E+00
          1   -1    0    0  501    0  0.00000000000E+00  0.00000000000E+00  0.32109905859E+03  0.32109905859E+03  0.00000000000E+00 0. -1.
         -1   -1    0    0    0  501 -0.00000000000E+00 -0.00000000000E+00 -0.48898354725E+02  0.48898354725E+02  0.00000000000E+00 0.  1.
         25    2    1    2    0    0  0.12142878887E+02  0.53601279036E+02  0.10311938726E+03  0.17115021695E+03  0.12505295724E+03 0.  0.
          5    1    3    3  502    0  0.22938439538E+02  0.87267438398E+02  0.10097994320E+03  0.13548505136E+03  0.41800000000E+01 0.  1.
         -5    1    3    3    0  502 -0.10795560651E+02 -0.33666159362E+02  0.21394440545E+01  0.35665165594E+02  0.41800000000E+01 0.  1.
        -11    1    1    2    0    0 -0.31068849204E+02 -0.68059193864E+02  0.94351642224E+02  0.12041411732E+03  0.00000000000E+00 0.  1.
         11    1    1    2    0    0  0.18925970317E+02  0.14457914829E+02  0.74729674382E+02  0.78433079035E+02  0.00000000000E+00 0. -1.
</event>
<event>
 7    1  0.2899775E-009  0.7279002E+02  0.7561462E-02  0.1350854E+00
          2   -1    0    0  501    0  0.00000000000E+00  0.00000000000E+00  0.14260177401E+03  0.14260177401E+03  0.00000000000E+00 0. -1.
         -2   -1    0    0    0  501 -0.00000000000E+00 -0.00000000000E+00 -0.89389804587E+02  0.89389804587E+02  0.00000000000E+00 0.  1.
         25    2    1    2    0    0 -0.20576067455E+02  0.20557920164E+02  0.37267379977E+02  0.13372517274E+03  0.12509021377E+03 0.  0.
          5    1    3    3  502    0 -0.65474023770E+02  0.18571086096E+02 -0.93666293143E+01  0.68825425333E+02  0.41800000000E+01 0. -1.
         -5    1    3    3    0  502  0.44897956315E+02  0.19868340678E+01  0.46634009291E+02  0.64899747407E+02  0.41800000000E+01 0. -1.
        -11    1    1    2    0    0  0.10375563012E+01 -0.99937877232E+01 -0.38328775823E+02  0.39623823292E+02  0.00000000000E+00 0.  1.
         11    1    1    2    0    0  0.19538511154E+02 -0.10564132441E+02  0.54273365266E+02  0.58642582563E+02  0.00000000000E+00 0. -1.
</event>
<event>
 7    1  0.2899775E-009  0.9375629E+02  0.7561462E-02  0.1294002E+00
          1   -1    0    0  501    0  0.00000000000E+00  0.00000000000E+00  0.46287379325E+02  0.46287379325E+02  0.00000000000E+00 0.  1.
         -1   -1    0    0    0  501 -0.00000000000E+00 -0.00000000000E+00 -0.39503120208E+03  0.39503120208E+03  0.00000000000E+00 0. -1.
         25    2    1    2    0    0 -0.30108551633E+02 -0.80347486895E+02 -0.23930009065E+03  0.28332243532E+03  0.12507927663E+03 0.  0.
          5    1    3    3  502    0 -0.45765729723E+01 -0.64403615894E+02 -0.24412337539E+03  0.25255190669E+03  0.41800000000E+01 0.  1.
         -5    1    3    3    0  502 -0.25531978661E+02 -0.15943871001E+02  0.48232847403E+01  0.30770528636E+02  0.41800000000E+01 0.  1.
        -11    1    1    2    0    0  0.14603632810E+02  0.74392087146E+02 -0.38296068088E+02  0.84935490534E+02  0.00000000000E+00 0.  1.
         11    1    1    2    0    0  0.15504918823E+02  0.59553997487E+01 -0.71147664020E+02  0.73060655550E+02  0.00000000000E+00 0. -1.
</event>
<event>
 7    1  0.2899775E-009  0.1027046E+03  0.7561462E-02  0.1274709E+00
          1   -1    0    0  501    0  0.00000000000E+00  0.00000000000E+00  0.67885491838E+03  0.67885491838E+03  0.00000000000E+00 0. -1.
         -1   -1    0    0    0  501 -0.00000000000E+00 -0.00000000000E+00 -0.17848925495E+02  0.17848925495E+02  0.00000000000E+00 0.  1.
         25    2    1    2    0    0 -0.11491702520E+02  0.88194619501E+01  0.34044225805E+03  0.36298522436E+03  0.12508996723E+03 0.  0.
          5    1    3    3  502    0 -0.66110861945E+02 -0.71126200225E+01  0.21701586273E+03  0.22701231797E+03  0.41800000000E+01 0. -1.
         -5    1    3    3    0  502  0.54619159425E+02  0.15932081973E+02  0.12342639532E+03  0.13597290639E+03  0.41800000000E+01 0. -1.
        -11    1    1    2    0    0 -0.91135357467E+01  0.33473240096E+02  0.63247493909E+02  0.72137090475E+02  0.00000000000E+00 0.  1.
         11    1    1    2    0    0  0.20605238266E+02 -0.42292702046E+02  0.25731624092E+03  0.26158152904E+03  0.00000000000E+00 0. -1.
</event>
<event>
 7    1  0.2899775E-009  0.1339342E+03  0.7561462E-02  0.1221732E+00
          2   -1    0    0  501    0  0.00000000000E+00  0.00000000000E+00  0.10214085625E+04  0.10214085625E+04  0.00000000000E+00 0.  1.
         -2   -1    0    0    0  501 -0.00000000000E+00 -0.00000000000E+00 -0.23763808395E+02  0.23763808395E+02  0.00000000000E+00 0. -1.
         25    2    1    2    0    0  0.86996769199E+02  0.67500549650E+02  0.59254184703E+03  0.61553078561E+03  0.12509014948E+03 0.  0.
          5    1    3    3  502    0  0.66883712055E+02  0.12830627734E+02  0.50926950859E+03  0.51381996918E+03  0.41800000000E+01 0.  1.
         -5    1    3    3    0  502  0.20113057144E+02  0.54669921916E+02  0.83272338439E+02  0.10171081643E+03  0.41800000000E+01 0.  1.
        -11    1    1    2    0    0 -0.26235058992E+02 -0.75519069949E+02  0.19414704380E+03  0.20996305119E+03  0.00000000000E+00 0.  1.
         11    1    1    2    0    0 -0.60761710207E+02  0.80185202985E+01  0.21095586330E+03  0.21967853413E+03  0.00000000000E+00 0. -1.
</event>
<event>
 7    1  0.2899775E-009  0.1217135E+03  0.7561462E-02  0.1240297E+00
          3   -1    0    0  501    0  0.00000000000E+00  0.00000000000E+00  0.36617446407E+03  0.36617446407E+03  0.00000000000E+00 0. -1.
         -3   -1    0    0    0  501 -0.00000000000E+00 -0.00000000000E+00 -0.46051150725E+02  0.46051150725E+02  0.00000000000E+00 0.  1.
         25    2    1    2    0    0  0.15655151864E+02  0.61500663750E+02  0.12986521097E+03  0.19115658159E+03  0.12509376581E+03 0.  0.
          5    1    3    3  502    0 -0.35579081929E+02  0.76012047837E+02  0.97449931604E+02  0.12867658706E+03  0.41800000000E+01 0. -1.
         -5    1    3    3    0  502  0.51234233792E+02 -0.14511384087E+02  0.32415279365E+02  0.62479994532E+02  0.41800000000E+01 0. -1.
        -11    1    1    2    0    0 -0.49234594270E+02 -0.50789710931E+02  0.87990578593E+02  0.11289810419E+03  0.00000000000E+00 0.  1.
         11    1    1    2    0    0  0.33579442406E+02 -0.10710952819E+02  0.10226752378E+03  0.10817092901E+03  0.00000000000E+00 0. -1.
</event>
<event>
 7    1  0.2899775E-009  0.1393805E+03  0.7561462E-02  0.1214165E+00
         -2   -1    0    0    0  501 -0.00000000000E+00  0.00000000000E+00  0.20787583908E+02  0.20787583908E+02  0.00000000000E+00 0.  1.
          2   -1    0    0  501    0  0.00000000000E+00 -0.00000000000E+00 -0.24366207661E+04  0.24366207661E+04  0.00000000000E+00 0. -1.
         25    2    1    2    0    0  0.58672669443E+02  0.87354131880E+02 -0.21600032912E+04  0.21661797978E+04  0.12508985671E+03 0.  0.
          5    1    3    3  502    0  0.82603747159E+02  0.38265384942E+02 -0.17705716346E+04  0.17729153968E+04  0.41800000000E+01 0. -1.
         -5    1    3    3    0  502 -0.23931077717E+02  0.49088746938E+02 -0.38943165657E+03  0.39326440101E+03  0.41800000000E+01 0. -1.
        -11    1    1    2    0    0  0.17411308925E+01  0.14408318250E+02 -0.65637186044E+02  0.67222551003E+02  0.00000000000E+00 0. -1.
         11    1    1    2    0    0 -0.60413800335E+02 -0.10176245013E+03 -0.19019270500E+03  0.22400600117E+03  0.00000000000E+00 0.  1.
</event>
<event>
 7    1  0.2899775E-009  0.2016146E+03  0.7561462E-02  0.1148384E+00
          1   -1    0    0  501    0  0.00000000000E+00  0.00000000000E+00  0.50190475924E+02  0.50190475924E+02  0.00000000000E+00 0. -1.
         -1   -1    0    0    0  501 -0.00000000000E+00 -0.00000000000E+00 -0.11922845658E+04  0.11922845658E+04  0.00000000000E+00 0.  1.
         25    2    1    2    0    0 -0.11894102564E+03  0.14302296219E+03 -0.88180661868E+03  0.90984937189E+03  0.12506171071E+03 0.  0.
          5    1    3    3  502    0 -0.13782001092E+03  0.10939744607E+03 -0.80237116873E+03  0.82144940284E+03  0.41800000000E+01 0.  1.
         -5    1    3    3    0  502  0.18878985275E+02  0.33625516123E+02 -0.79435449955E+02  0.88399969056E+02  0.41800000000E+01 0.  1.
        -11    1    1    2    0    0  0.98422816729E+02 -0.13337032416E+03 -0.26184252842E+03  0.30989708599E+03  0.00000000000E+00 0.  1.
         11    1    1    2    0    0  0.20518208915E+02 -0.96526380298E+01  0.15550572733E+01  0.22728583790E+02  0.00000000000E+00 0. -1.
</event>
<event>
 7    1  0.2899775E-009  0.8659306E+02  0.7561462E-02  0.1311318E+00
         -2   -1    0    0    0  501 -0.00000000000E+00  0.00000000000E+00  0.12758230695E+03  0.12758230695E+03  0.00000000000E+00 0.  1.
          2   -1    0    0  501    0  0.00000000000E+00 -0.00000000000E+00 -0.10439748984E+03  0.10439748984E+03  0.00000000000E+00 0. -1.
         25    2    1    2    0    0  0.36405646209E+02  0.16010407461E+02  0.20264814023E+02  0.13281655724E+03  0.12509145041E+03 0.  0.
          5    1    3    3  502    0  0.49983470929E+02  0.40830097467E+02  0.57036884033E+02  0.86232956377E+02  0.41800000000E+01 0. -1.
         -5    1    3    3    0  502 -0.13577824721E+02 -0.24819690006E+02 -0.36772070010E+02  0.46583600859E+02  0.41800000000E+01 0. -1.
        -11    1    1    2    0    0 -0.31156036522E+02  0.24144238555E+02 -0.27884420852E+02  0.48282334175E+02  0.00000000000E+00 0. -1.
         11    1    1    2    0    0 -0.52496096865E+01 -0.40154646016E+02  0.30804423938E+02  0.50880905384E+02  0.00000000000E+00 0.  1.
</event>
<event>
 7    1  0.3241225E-009  0.1206389E+03  0.7561462E-02  0.1242047E+00
          3   -1    0    0  501    0  0.00000000000E+00  0.00000000000E+00  0.17982522502E+03  0.17982522502E+03  0.00000000000E+00 0. -1.
         -3   -1    0    0    0  501 -0.00000000000E+00 -0.00000000000E+00 -0.11463596604E+03  0.11463596604E+03  0.00000000000E+00 0.  1.
         25    2    1    2    0    0  0.88486765490E+02 -0.30641055505E+02  0.31894107556E+02  0.15947978292E+03  0.12509110726E+03 0.  0.
          5    1    3    3  502    0  0.52536742023E+01 -0.56868801016E+02  0.42720972917E+02  0.71443792932E+02  0.41800000000E+01 0. -1.
         -5    1    3    3    0  502  0.83233091288E+02  0.26227745511E+02 -0.10826865361E+02  0.88035989989E+02  0.41800000000E+01 0. -1.
        -11    1    1    2    0    0 -0.32950803074E+02  0.23893293429E+02 -0.29957516440E+02  0.50538081536E+02  0.00000000000E+00 0.  1.
         11    1    1    2    0    0 -0.55535962416E+02  0.67477620761E+01  0.63252667869E+02  0.84443326599E+02  0.00000000000E+00 0. -1.
</event>
<event>
 7    1  0.2899775E-009  0.1460755E+03  0.7561462E-02  0.1205380E+00
          2   -1    0    0  501    0  0.00000000000E+00  0.00000000000E+00  0.11745104649E+04  0.11745104649E+04  0.00000000000E+00 0. -1.
         -2   -1    0    0    0  501 -0.00000000000E+00 -0.00000000000E+00 -0.21973962605E+02  0.21973962605E+02  0.00000000000E+00 0.  1.
         25    2    1    2    0    0  0.10684866109E+03 -0.40363093554E+02  0.73391527918E+03  0.75320855553E+03  0.12508267428E+03 0.  0.
          5    1    3    3  502    0  0.27861677506E+02 -0.68050110743E+02  0.48510318269E+03  0.49066247146E+03  0.41800000000E+01 0. -1.
         -5    1    3    3    0  502  0.78986983587E+02  0.27687017190E+02  0.24881209650E+03  0.26254608407E+03  0.41800000000E+01 0. -1.
        -11    1    1    2    0    0 -0.11765619805E+03  0.37918683381E+02  0.41248513297E+03  0.43060979136E+03  0.00000000000E+00 0. -1.
         11    1    1    2    0    0  0.10807536960E+02  0.24444101724E+01  0.61360901528E+01  0.12666080633E+02  0.00000000000E+00 0.  1.
</event>
<event>
 7    1  0.2899775E-009  0.1125738E+03  0.7561462E-02  0.1255877E+00
          1   -1    0    0  501    0  0.00000000000E+00  0.00000000000E+00  0.17663031095E+02  0.17663031095E+02  0.00000000000E+00 0. -1.
         -1   -1    0    0    0  501 -0.00000000000E+00 -0.00000000000E+00 -0.10835993940E+04  0.10835993940E+04  0.00000000000E+00 0.  1.
         25    2    1    2    0    0 -0.31752137203E+02  0.76389459019E+02 -0.48341137987E+03  0.50613810173E+03  0.12508264533E+03 0.  0.
          5    1    3    3  502    0  0.17675219267E+02  0.43730753730E+02 -0.50714987511E+02  0.69384973561E+02  0.41800000000E+01 0. -1.
         -5    1    3    3    0  502 -0.49427356469E+02  0.32658705289E+02 -0.43269639236E+03  0.43675312816E+03  0.41800000000E+01 0. -1.
        -11    1    1    2    0    0 -0.28206885654E+02 -0.37557075702E+02 -0.16596285042E+03  0.17248139045E+03  0.00000000000E+00 0. -1.
         11    1    1    2    0    0  0.59959022857E+02 -0.38832383317E+02 -0.41656213265E+03  0.42264293295E+03  0.00000000000E+00 0.  1.
</event>
<event>
 7    1  0.2899775E-009  0.1260665E+03  0.7561462E-02  0.1233412E+00
          4   -1    0    0  501    0  0.00000000000E+00  0.00000000000E+00  0.14145318882E+02  0.14145318882E+02  0.00000000000E+00 0. -1.
         -4   -1    0    0    0  501 -0.00000000000E+00 -0.00000000000E+00 -0.14036482560E+04  0.14036482560E+04  0.00000000000E+00 0.  1.
         25    2    1    2    0    0 -0.33005923407E+01 -0.68722139736E+02 -0.10398224733E+04  0.10495771583E+04  0.12509120190E+03 0.  0.
          5    1    3    3  502    0  0.35031401342E+02 -0.87521887134E+02 -0.56555387166E+03  0.57337242169E+03  0.41800000000E+01 0.  1.
         -5    1    3    3    0  502 -0.38331993682E+02  0.18799747399E+02 -0.47426860169E+03  0.47620473663E+03  0.41800000000E+01 0.  1.
        -11    1    1    2    0    0 -0.10295879821E+02 -0.21389431668E+02 -0.59429395098E+02  0.63995046137E+02  0.00000000000E+00 0.  1.
         11    1    1    2    0    0  0.13596472161E+02  0.90111571404E+02 -0.29025106864E+03  0.30422137039E+03  0.00000000000E+00 0. -1.
</event>
<event>
 7    1  0.2899775E-009  0.1024097E+03  0.7561462E-02  0.1275309E+00
         -2   -1    0    0    0  501 -0.00000000000E+00  0.00000000000E+00  0.12646598919E+03  0.12646598919E+03  0.00000000000E+00 0.  1.
          2   -1    0    0  501    0  0.00000000000E+00 -0.00000000000E+00 -0.11795210125E+03  0.11795210125E+03  0.00000000000E+00 0. -1.
         25    2    1    2    0    0  0.24603867092E+02 -0.48357472208E+02 -0.31312821958E+01  0.13638557221E+03  0.12508966378E+03 0.  0.
          5    1    3    3  502    0  0.36580139425E+02  0.34326340826E+02  0.11062225800E+02  0.51538815610E+02  0.41800000000E+01 0.  1.
         -5    1    3    3    0  502 -0.11976272334E+02 -0.82683813034E+02 -0.14193507996E+02  0.84846756603E+02  0.41800000000E+01 0.  1.
        -11    1    1    2    0    0  0.35271360772E+01  0.41795882603E+02  0.46593254075E+02  0.62691848088E+02  0.00000000000E+00 0.  1.
         11    1    1    2    0    0 -0.28131003169E+02  0.65615896053E+01 -0.34948083939E+02  0.45340670136E+02  0.00000000000E+00 0. -1.
</event>
<event>
 7    1  0.2899775E-009  0.6740105E+02  0.7561462E-02  0.1369161E+00
         -1   -1    0    0    0  501 -0.00000000000E+00  0.00000000000E+00  0.53402755708E+02  0.53402755708E+02  0.00000000000E+00 0.  1.
          1   -1    0    0  501    0  0.00000000000E+00 -0.00000000000E+00 -0.20655370193E+03  0.20655370193E+03  0.00000000000E+00 0. -1.
         25    2    1    2    0    0 -0.31631552838E+02 -0.29324019038E+02 -0.63743493098E+02  0.14687051647E+03  0.12508901817E+03 0.  0.
          5    1    3    3  502    0 -0.14101898288E+02  0.16416710032E+02 -0.88937515015E+02  0.91628193699E+02  0.41800000000E+01 0. -1.
         -5    1    3    3    0  502 -0.17529654551E+02 -0.45740729070E+02  0.25194021917E+02  0.55242322769E+02  0.41800000000E+01 0. -1.
        -11    1    1    2    0    0  0.22888207803E+02 -0.87715586014E+01 -0.57924978421E+02  0.62897642419E+02  0.00000000000E+00 0.  1.
         11    1    1    2    0    0  0.87433450352E+01  0.38095577640E+02 -0.31482474707E+02  0.50188298754E+02  0.00000000000E+00 0. -1.
</event>
<event>
 7    1  0.2899775E-009  0.1042976E+03  0.7561462E-02  0.1271510E+00
          1   -1    0    0  501    0  0.00000000000E+00  0.00000000000E+00  0.10970211873E+03  0.10970211873E+03  0.00000000000E+00 0. -1.
         -1   -1    0    0    0  501 -0.00000000000E+00 -0.00000000000E+00 -0.14679647546E+03  0.14679647546E+03  0.00000000000E+00 0.  1.
         25    2    1    2    0    0  0.61864000589E+02  0.20989239941E+02 -0.40281965989E+02  0.14675693212E+03  0.12508899864E+03 0.  0.
          5    1    3    3  502    0  0.54032300880E+02  0.47235177617E+02 -0.73963258716E+02  0.10314401380E+03  0.41800000000E+01 0.  1.
         -5    1    3    3    0  502  0.78316997098E+01 -0.26245937677E+02  0.33681292727E+02  0.43612918323E+02  0.41800000000E+01 0.  1.
        -11    1    1    2    0    0 -0.36513260211E+02  0.33087605306E+02 -0.47023319220E+01  0.49498684039E+02  0.00000000000E+00 0.  1.
         11    1    1    2    0    0 -0.25350740378E+02 -0.54076845247E+02  0.78899411890E+01  0.60242978027E+02  0.00000000000E+00 0. -1.
</event>
<event>
 7    1  0.2899775E-009  0.7249336E+02  0.7561462E-02  0.1351814E+00
         -1   -1    0    0    0  501 -0.00000000000E+00  0.00000000000E+00  0.27229447797E+03  0.27229447797E+03  0.00000000000E+00 0.  1.
          1   -1    0    0  501    0  0.00000000000E+00 -0.00000000000E+00 -0.49594550517E+02  0.49594550517E+02  0.00000000000E+00 0. -1.
         25    2    1    2    0    0 -0.16142272479E+02 -0.17350434086E+02  0.68324784690E+02  0.14448655491E+03  0.12508588179E+03 0.  0.
          5    1    3    3  502    0 -0.24732181265E+02  0.24716256001E+02  0.89684563291E+02  0.96350232971E+02  0.41800000000E+01 0.  1.
         -5    1    3    3    0  502  0.85899087865E+01 -0.42066690087E+02 -0.21359778601E+02  0.48136321938E+02  0.41800000000E+01 0.  1.
        -11    1    1    2    0    0  0.85935727820E+01  0.40957883225E+02  0.14497549092E+03  0.15089496565E+03  0.00000000000E+00 0.  1.
         11    1    1    2    0    0  0.75486996968E+01 -0.23607449138E+02  0.93996518505E+01  0.26507507934E+02  0.00000000000E+00 0. -1.
</event>
<event>
 7    1  0.3948505E-009  0.1303562E+03  0.7561462E-02  0.1226928E+00
          2   -1    0    0  501    0  0.00000000000E+00  0.00000000000E+00  0.11391000289E+04  0.11391000289E+04  0.00000000000E+00 0.  1.
         -2   -1    0    0    0  501 -0.00000000000E+00 -0.00000000000E+00 -0.15569872202E+02  0.15569872202E+02  0.00000000000E+00 0. -1.
         25    2    1    2    0    0  0.34566437050E+02 -0.66528849543E+02  0.69137816554E+03  0.70659257818E+03  0.12509347449E+03 0.  0.
          5    1    3    3  502    0  0.18705449866E+02 -0.10297663057E+03  0.45878273798E+03  0.47058809310E+03  0.41800000000E+01 0. -1.
         -5    1    3    3    0  502  0.15860987184E+02  0.36447781024E+02  0.23259542757E+03  0.23600448509E+03  0.41800000000E+01 0. -1.
        -11    1    1    2    0    0 -0.64786624397E+02  0.46400707401E+02  0.25189136247E+03  0.26419612192E+03  0.00000000000E+00 0. -1.
         11    1    1    2    0    0  0.30220187347E+02  0.20128142142E+02  0.18026062871E+03  0.18388120103E+03  0.00000000000E+00 0.  1.
</event>
<event>
 7    1  0.2899775E-009  0.1516184E+03  0.7561462E-02  0.1198498E+00
         -4   -1    0    0    0  501 -0.00000000000E+00  0.00000000000E+00  0.43256469827E+02  0.43256469827E+02  0.00000000000E+00 0.  1.
          4   -1    0    0  501    0  0.00000000000E+00 -0.00000000000E+00 -0.63904155872E+03  0.63904155872E+03  0.00000000000E+00 0. -1.
         25    2    1    2    0    0  0.11912376609E+03  0.24881743891E+02 -0.26408500180E+03  0.31654016083E+03  0.12508881812E+03 0.  0.
          5    1    3    3  502    0  0.25563725429E+00 -0.26493934764E+02 -0.11917092299E+03  0.12215226243E+03  0.41800000000E+01 0.  1.
         -5    1    3    3    0  502  0.11886812883E+03  0.51375678655E+02 -0.14491407880E+03  0.19438789840E+03  0.41800000000E+01 0.  1.
        -11    1    1    2    0    0 -0.50976710374E+02  0.30178698180E+02 -0.19132427443E+03  0.20028568799E+03  0.00000000000E+00 0. -1.
         11    1    1    2    0    0 -0.68147055715E+02 -0.55060442070E+02 -0.14037581266E+03  0.16547217973E+03  0.00000000000E+00 0.  1.
</event>
<event>
 7    1  0.2899775E-009  0.1121417E+03  0.7561462E-02  0.1256654E+00
          1   -1    0    0  501    0  0.00000000000E+00  0.00000000000E+00  0.53092594694E+03  0.53092594694E+03  0.00000000000E+00 0. -1.
         -1   -1    0    0    0  501 -0.00000000000E+00 -0.00000000000E+00 -0.28939608043E+02  0.28939608043E+02  0.00000000000E+00 0.  1.
         25    2    1    2    0    0 -0.47455873312E+02 -0.34090536349E+02  0.31965386739E+03  0.34819434291E+03  0.12508589415E+03 0.  0.
          5    1    3    3  502    0  0.39435413945E+02  0.19389370985E+01  0.59548796611E+02  0.71571243722E+02  0.41800000000E+01 0.  1.
         -5    1    3    3    0  502 -0.86891287257E+02 -0.36029473448E+02  0.26010507078E+03  0.27662309919E+03  0.41800000000E+01 0.  1.
        -11    1    1    2    0    0 -0.12577893504E+02  0.27233571943E+02  0.12438642338E+03  0.12795254264E+03  0.00000000000E+00 0. -1.
         11    1    1    2    0    0  0.60033766816E+02  0.68569644059E+01  0.57946048124E+02  0.83718669437E+02  0.00000000000E+00 0.  1.
</event>
<event>
 7    1  0.2899775E-009  0.1405167E+03  0.7561462E-02  0.1212635E+00
         -3   -1    0    0    0  501 -0.00000000000E+00  0.00000000000E+00  0.81229038876E+03  0.81229038876E+03  0.00000000000E+00 0.  1.
          3   -1    0    0  501    0  0.00000000000E+00 -0.00000000000E+00 -0.25142485992E+02  0.25142485992E+02  0.00000000000E+00 0. -1.
         25    2    1    2    0    0  0.60820056820E+02  0.68898681728E+02  0.39270034279E+03  0.42227204264E+03  0.12511599065E+03 0.  0.
          5    1    3    3  502    0  0.18007173387E+02  0.10029240135E+03  0.25979270691E+03  0.27909236289E+03  0.41800000000E+01 0. -1.
         -5    1    3    3    0  502  0.42812883433E+02 -0.31393719617E+02  0.13290763588E+03  0.14317967975E+03  0.41800000000E+01 0. -1.
        -11    1    1    2    0    0 -0.50835850967E+02 -0.89485641717E+02  0.27690647680E+03  0.29541354185E+03  0.00000000000E+00 0. -1.
         11    1    1    2    0    0 -0.99842058531E+01  0.20586959989E+02  0.11754108319E+03  0.11974729026E+03  0.00000000000E+00 0.  1.
</event>
<event>
 7    1  0.2899775E-009  0.1210678E+03  0.7561462E-02  0.1241346E+00
          2   -1    0    0  501    0  0.00000000000E+00  0.00000000000E+00  0.13650843275E+03  0.13650843275E+03  0.00000000000E+00 0. -1.
         -2   -1    0    0    0  501 -0.00000000000E+00 -0.00000000000E+00 -0.22802648701E+03  0.22802648701E+03  0.00000000000E+00 0.  1.
         25    2    1    2    0    0  0.64045467362E+01 -0.56905346846E+02  0.81972557820E+02  0.16014305103E+03  0.12508820824E+03 0.  0.
          5    1    3    3  502    0  0.29936890469E+02 -0.91026107645E+02  0.57270246633E+02  0.11171089129E+03  0.41800000000E+01 0.  1.
         -5    1    3    3    0  502 -0.23532343733E+02  0.34120760799E+02  0.24702311187E+02  0.48432159739E+02  0.41800000000E+01 0.  1.
        -11    1    1    2    0    0  0.36900014864E+02  0.54341385449E+01 -0.88246263938E+02  0.95804718348E+02  0.00000000000E+00 0.  1.
         11    1    1    2    0    0 -0.43304561600E+02  0.51471208301E+02 -0.85244348135E+02  0.10858715038E+03  0.00000000000E+00 0. -1.
</event>
<event>
 7    1  0.2899775E-009  0.1100788E+03  0.7561462E-02  0.1260424E+00
         -2   -1    0    0    0  501 -0.00000000000E+00  0.00000000000E+00  0.38694640347E+03  0.38694640347E+03  0.00000000000E+00 0.  1.
          2   -1    0    0  501    0  0.00000000000E+00 -0.00000000000E+00 -0.45079871007E+02  0.45079871007E+02  0.00000000000E+00 0. -1.
         25    2    1    2    0    0 -0.65192323440E+02  0.26078335868E+02  0.23515416192E+03  0.27545477019E+03  0.12509089460E+03 0.  0.
          5    1    3    3  502    0  0.28365365923E+02  0.30184462118E+02  0.11972242123E+03  0.12675419632E+03  0.41800000000E+01 0.  1.
         -5    1    3    3    0  502 -0.93557689363E+02 -0.41061262495E+01  0.11543174069E+03  0.14870057387E+03  0.41800000000E+01 0.  1.
        -11    1    1    2    0    0  0.18167913872E+02  0.14049682784E+02 -0.95679417398E+01  0.24879955586E+02  0.00000000000E+00 0. -1.
         11    1    1    2    0    0  0.47024409568E+02 -0.40128018653E+02  0.11628031228E+03  0.13169154870E+03  0.00000000000E+00 0.  1.
</event>
<event>
 7    1  0.2899775E-009  0.1076997E+03  0.7561462E-02  0.1264890E+00
         -2   -1    0    0    0  501 -0.00000000000E+00  0.00000000000E+00  0.17848959151E+03  0.17848959151E+03  0.00000000000E+00 0.  1.
          2   -1    0    0  501    0  0.00000000000E+00 -0.00000000000E+00 -0.70304624514E+02  0.70304624514E+02  0.00000000000E+00 0. -1.
         25    2    1    2    0    0 -0.17607999514E+01  0.22708309685E+02  0.82421801294E+02  0.15152571067E+03  0.12509164608E+03 0.  0.
          5    1    3    3  502    0  0.21130441879E+02 -0.45280737546E+02  0.13437269597E+02  0.51912169873E+02  0.41800000000E+01 0.  1.
         -5    1    3    3    0  502 -0.22891241830E+02  0.67989047231E+02  0.68984531697E+02  0.99613540793E+02  0.41800000000E+01 0.  1.
        -11    1    1    2    0    0 -0.24529001335E+02  0.27420785175E+02  0.57915772333E+01  0.37243975794E+02  0.00000000000E+00 0.  1.
         11    1    1    2    0    0  0.26289801286E+02 -0.50129094860E+02  0.19971588467E+02  0.60024529561E+02  0.00000000000E+00 0. -1.
</event>
<event>
 7    1  0.3347132E-009  0.2417762E+03  0.7561462E-02  0.1118615E+00
         -2   -1    0    0    0  501 -0.00000000000E+00  0.00000000000E+00  0.27413848143E+02  0.27413848143E+02  0.00000000000E+00 0.  1.
          2   -1    0    0  501    0  0.00000000000E+00 -0.00000000000E+00 -0.23146702131E+04  0.23146702131E+04  0.00000000000E+00 0. -1.
         25    2    1    2    0    0  0.10994260345E+03 -0.19281249906E+03 -0.94849329950E+03  0.98211549463E+03  0.12508904722E+03 0.  0.
          5    1    3    3  502    0 -0.11950262265E+02 -0.70394625066E+02 -0.42116614631E+03  0.42719621628E+03  0.41800000000E+01 0.  1.
         -5    1    3    3    0  502  0.12189286572E+03 -0.12241787400E+03 -0.52732715320E+03  0.55491927835E+03  0.41800000000E+01 0.  1.
        -11    1    1    2    0    0  0.22534086715E+01  0.80296472585E+02 -0.44947741443E+03  0.45659889120E+03  0.00000000000E+00 0.  1.
         11    1    1    2    0    0 -0.11219601212E+03  0.11251602648E+03 -0.88928565106E+03  0.90336967545E+03  0.00000000000E+00 0. -1.
</event>
<event>
 7    1  0.2899775E-009  0.7777127E+02  0.7561462E-02  0.1335498E+00
         -1   -1    0    0    0  501 -0.00000000000E+00  0.00000000000E+00  0.59410663880E+02  0.59410663880E+02  0.00000000000E+00 0.  1.
          1   -1    0    0  501    0  0.00000000000E+00 -0.00000000000E+00 -0.23893706853E+03  0.23893706853E+03  0.00000000000E+00 0. -1.
         25    2    1    2    0    0 -0.28932706113E+02  0.34651029229E+02 -0.76670975096E+02  0.15350073295E+03  0.12508493628E+03 0.  0.
          5    1    3    3  502    0  0.28888246022E+02  0.39204705175E+02 -0.81624469492E+02  0.95139718761E+02  0.41800000000E+01 0. -1.
         -5    1    3    3    0  502 -0.57820952134E+02 -0.45536759460E+01  0.49534943965E+01  0.58361014188E+02  0.41800000000E+01 0. -1.
        -11    1    1    2    0    0  0.17498678273E+02 -0.74697590619E+01 -0.11228669047E+03  0.11388723326E+03  0.00000000000E+00 0. -1.
         11    1    1    2    0    0  0.11434027840E+02 -0.27181270167E+02  0.94312609219E+01  0.30959766200E+02  0.00000000000E+00 0.  1.
</event>
<event>
 7    1  0.2899775E-009  0.1359465E+03  0.7561462E-02  0.1218890E+00
         -1   -1    0    0    0  501 -0.00000000000E+00  0.00000000000E+00  0.16921757677E+03  0.16921757677E+03  0.00000000000E+00 0.  1.
          1   -1    0    0  501    0  0.00000000000E+00 -0.00000000000E+00 -0.13628007959E+03  0.13628007959E+03  0.00000000000E+00 0. -1.
         25    2    1    2    0    0  0.34807905221E+02 -0.98860544288E+02  0.27040916225E+02  0.16541521230E+03  0.12508390715E+03 0.  0.
          5    1    3    3  502    0 -0.21771818451E+02 -0.79365040393E+02  0.55160885116E+02  0.99161572002E+02  0.41800000000E+01 0. -1.
         -5    1    3    3    0  502  0.56579723672E+02 -0.19495503895E+02 -0.28119968891E+02  0.66253640303E+02  0.41800000000E+01 0. -1.
        -11    1    1    2    0    0 -0.40143579805E+02  0.11002827897E+03 -0.12630205178E+02  0.11780174555E+03  0.00000000000E+00 0. -1.
         11    1    1    2    0    0  0.53356745834E+01 -0.11167734679E+02  0.18526786134E+02  0.22280698498E+02  0.00000000000E+00 0.  1.
</event>
<event>
 6    1  0.2899775E-009  0.1354004E+03  0.7561462E-02  0.1219656E+00
          1   -1    0    0  501    0  0.00000000000E+00  0.00000000000E+00  0.11220350442E+03  0.11220350442E+03  0.00000000000E+00 0. -1.
         -1   -1    0    0    0  501 -0.00000000000E+00 -0.00000000000E+00 -0.18782150301E+03  0.18782150301E+03  0.00000000000E+00 0.  1.
          5    1    1    2  502    0 -0.71502308394E+02 -0.78384196729E+02  0.17414556177E+02  0.10759833442E+03  0.41800000000E+01 0.  1.
         -5    1    1    2    0  502  0.38246567069E+02  0.84671195967E+01 -0.59767263020E+01  0.39845773478E+02  0.41800000000E+01 0.  1.
        -11    1    1    2    0    0  0.68474984623E+02  0.42486014342E+02 -0.53355367130E+02  0.96647194141E+02  0.00000000000E+00 0. -1.
         11    1    1    2    0    0 -0.35219243298E+02  0.27431062790E+02 -0.33700461333E+02  0.55933705387E+02  0.00000000000E+00 0.  1.
</event>
<event>
 7    1  0.2899775E-009  0.9288392E+02  0.7561462E-02  0.1296014E+00
         -2   -1    0    0    0  501 -0.00000000000E+00  0.00000000000E+00  0.20098316140E+03  0.20098316140E+03  0.00000000000E+00 0. -1.
          2   -1    0    0  501    0  0.00000000000E+00 -0.00000000000E+00 -0.65546306038E+02  0.65546306038E+02  0.00000000000E+00 0.  1.
         25    2    1    2    0    0 -0.18199855283E+02 -0.35076689447E+02  0.73032782570E+02  0.15014450960E+03  0.12509187647E+03 0.  0.
          5    1    3    3  502    0 -0.47166998404E+02 -0.33934655135E+02  0.96427392833E+02  0.11265878149E+03  0.41800000000E+01 0.  1.
         -5    1    3    3    0  502  0.28967143122E+02 -0.11420343121E+01 -0.23394610263E+02  0.37485728115E+02  0.41800000000E+01 0.  1.
        -11    1    1    2    0    0 -0.24919142123E+02 -0.17333144887E+02  0.20321241047E+02  0.36528815934E+02  0.00000000000E+00 0.  1.
         11    1    1    2    0    0  0.43118997406E+02  0.52409834335E+02  0.42082831749E+02  0.79856141907E+02  0.00000000000E+00 0. -1.
</event>
<event>
 7    1  0.2899775E-009  0.5014949E+02  0.7561462E-02  0.1444537E+00
          2   -1    0    0  501    0  0.00000000000E+00  0.00000000000E+00  0.63349980593E+02  0.63349980593E+02  0.00000000000E+00 0. -1.
         -2   -1    0    0    0  501 -0.00000000000E+00 -0.00000000000E+00 -0.21266335882E+03  0.21266335882E+03  0.00000000000E+00 0.  1.
         25    2    1    2    0    0 -0.19583197557E+02 -0.23484728931E+02 -0.48709362688E+02  0.13767818058E+03  0.12509054830E+03 0.  0.
          5    1    3    3  502    0 -0.35074321764E+02 -0.15923680860E+02 -0.87132296786E+02  0.95358697572E+02  0.41800000000E+01 0.  1.
         -5    1    3    3    0  502  0.15491124207E+02 -0.75610480712E+01  0.38422934099E+02  0.42319483006E+02  0.41800000000E+01 0.  1.
        -11    1    1    2    0    0 -0.38877529217E+01  0.19653157828E+02 -0.11070072712E+03  0.11249894320E+03  0.00000000000E+00 0.  1.
         11    1    1    2    0    0  0.23470950479E+02  0.38315711033E+01  0.10096711586E+02  0.25836215635E+02  0.00000000000E+00 0. -1.
</event>
<event>
 7    1  0.2899775E-009  0.1052907E+03  0.7561462E-02  0.1269548E+00
         -1   -1    0    0    0  501 -0.00000000000E+00  0.00000000000E+00  0.47027046617E+03  0.47027046617E+03  0.00000000000E+00 0.  1.
          1   -1    0    0  501    0  0.00000000000E+00 -0.00000000000E+00 -0.54055607680E+02  0.54055607680E+02  0.00000000000E+00 0. -1.
         25    2    1    2    0    0 -0.76053629659E+01 -0.99053727781E+02  0.12297730848E+03  0.20158887536E+03  0.12508066890E+03 0.  0.
          5    1    3    3  502    0 -0.24432534248E+02 -0.42976026024E+02 -0.14847045481E+02  0.51786047369E+02  0.41800000000E+01 0. -1.
         -5    1    3    3    0  502  0.16827171282E+02 -0.56077701757E+02  0.13782435396E+03  0.14980282799E+03  0.41800000000E+01 0. -1.
        -11    1    1    2    0    0 -0.88194284031E+01  0.28577476523E+02  0.11810017456E+02  0.32154797373E+02  0.00000000000E+00 0. -1.
         11    1    1    2    0    0  0.16424791369E+02  0.70476251258E+02  0.28142753255E+03  0.29058240112E+03  0.00000000000E+00 0.  1.
</event>
<event>
 7    1  0.2899775E-009  0.1365623E+03  0.7561462E-02  0.1218031E+00
         -1   -1    0    0    0  501 -0.00000000000E+00  0.00000000000E+00  0.88765662563E+02  0.88765662563E+02  0.00000000000E+00 0.  1.
          1   -1    0    0  501    0  0.00000000000E+00 -0.00000000000E+00 -0.31752894710E+03  0.31752894710E+03  0.00000000000E+00 0. -1.
         25    2    1    2    0    0 -0.11875153810E+03 -0.30866472637E+02 -0.82628794112E+02  0.19372632878E+03  0.12509079067E+03 0.  0.
          5    1    3    3  502    0 -0.52258887202E+02  0.16984116490E+02  0.23231887450E+02  0.59805054126E+02  0.41800000000E+01 0. -1.
         -5    1    3    3    0  502 -0.66492650896E+02 -0.47850589127E+02 -0.10586068156E+03  0.13392127465E+03  0.41800000000E+01 0. -1.
        -11    1    1    2    0    0  0.83211541050E+02 -0.76727888259E+01 -0.36787617681E+02  0.91303674992E+02  0.00000000000E+00 0.  1.
         11    1    1    2    0    0  0.35539997048E+02  0.38539261463E+02 -0.10934687275E+03  0.12126460590E+03  0.00000000000E+00 0. -1.
</event>
<event>
 7    1  0.2899775E-009  0.9081407E+02  0.7561462E-02  0.1300892E+00
         -2   -1    0    0    0  501 -0.00000000000E+00  0.00000000000E+00  0.15698482691E+02  0.15698482691E+02  0.00000000000E+00 0. -1.
          2   -1    0    0  501    0  0.00000000000E+00 -0.00000000000E+00 -0.84181013084E+03  0.84181013084E+03  0.00000000000E+00 0.  1.
         25    2    1    2    0    0 -0.16236360387E+02 -0.92029896450E+01 -0.61785599212E+03  0.63066768803E+03  0.12508953313E+03 0.  0.
          5    1    3    3  502    0 -0.43381845377E+01  0.51312762171E+02 -0.42544847150E+03  0.42857402361E+03  0.41800000000E+01 0.  1.
         -5    1    3    3    0  502 -0.11898175850E+02 -0.60515751816E+02 -0.19240752062E+03  0.20209366442E+03  0.41800000000E+01 0.  1.
        -11    1    1    2    0    0  0.25471677133E+02  0.33540565598E+02 -0.19105131508E+03  0.19563839314E+03  0.00000000000E+00 0.  1.
         11    1    1    2    0    0 -0.92353167451E+01 -0.24337575953E+02 -0.17204340943E+02  0.31202532364E+02  0.00000000000E+00 0. -1.
</event>
<event>
 7    1  0.2899775E-009  0.1261219E+03  0.7561462E-02  0.1233326E+00
         -1   -1    0    0    0  501 -0.00000000000E+00  0.00000000000E+00  0.66331305694E+02  0.66331305694E+02  0.00000000000E+00 0.  1.
          1   -1    0    0  501    0  0.00000000000E+00 -0.00000000000E+00 -0.29099859964E+03  0.29099859964E+03  0.00000000000E+00 0. -1.
         25    2    1    2    0    0  0.81777400522E+02 -0.21080195030E+02 -0.15820927303E+03  0.21865896969E+03  0.12509857351E+03 0.  0.
          5    1    3    3  502    0 -0.12936459948E+01 -0.51482830759E+02 -0.10036261069E+03  0.11288171423E+03  0.41800000000E+01 0.  1.
         -5    1    3    3    0  502  0.83071046517E+02  0.30402635728E+02 -0.57846662341E+02  0.10577725546E+03  0.41800000000E+01 0.  1.
        -11    1    1    2    0    0 -0.66864323118E+02 -0.18785623230E+02 -0.13542414359E+02  0.70761107487E+02  0.00000000000E+00 0.  1.
         11    1    1    2    0    0 -0.14913077405E+02  0.39865818261E+02 -0.52915606562E+02  0.67909828163E+02  0.00000000000E+00 0. -1.
</event>
<event>
 7    1  0.2899775E-009  0.1270621E+03  0.7561462E-02  0.1231881E+00
          2   -1    0    0  501    0  0.00000000000E+00  0.00000000000E+00  0.71110237196E+02  0.71110237196E+02  0.00000000000E+00 0.  1.
         -2   -1    0    0    0  501 -0.00000000000E+00 -0.00000000000E+00 -0.36922506370E+03  0.36922506370E+03  0.00000000000E+00 0. -1.
         25    2    1    2    0    0 -0.90375180193E+02 -0.62194461045E+02 -0.96207389573E+02  0.19219531655E+03  0.12508938291E+03 0.  0.
          5    1    3    3  502    0 -0.48770813445E+02 -0.31592013169E+02  0.22671216511E+02  0.62514830226E+02  0.41800000000E+01 0.  1.
         -5    1    3    3    0  502 -0.41604366749E+02 -0.30602447876E+02 -0.11887860608E+03  0.12968048632E+03  0.41800000000E+01 0.  1.
        -11    1    1    2    0    0 -0.37760250579E+01 -0.19214948223E+02 -0.23201866727E+02  0.30361146554E+02  0.00000000000E+00 0. -1.
         11    1    1    2    0    0  0.94151205251E+02  0.81409409268E+02 -0.17870557020E+03  0.21777883779E+03  0.00000000000E+00 0.  1.
</event>
<event>
 7    1  0.2899775E-009  0.5639609E+02  0.7561462E-02  0.1413610E+00
         -2   -1    0    0    0  501 -0.00000000000E+00  0.00000000000E+00  0.33391294482E+03  0.33391294482E+03  0.00000000000E+00 0.  1.
          2   -1    0    0  501    0  0.00000000000E+00 -0.00000000000E+00 -0.38789044533E+02  0.38789044533E+02  0.00000000000E+00 0. -1.
         25    2    1    2    0    0  0.19678621847E+02 -0.17040490845E+02  0.13471158355E+03  0.18566763633E+03  0.12509050305E+03 0.  0.
          5    1    3    3  502    0  0.10724770683E+02 -0.28788588578E+01  0.15701383298E+03  0.15746150223E+03  0.41800000000E+01 0.  1.
         -5    1    3    3    0  502  0.89538511642E+01 -0.14161631987E+02 -0.22302249438E+02  0.28206134106E+02  0.41800000000E+01 0.  1.
        -11    1    1    2    0    0  0.17315547345E+02  0.37556887299E+02  0.33389300475E+02  0.53152547913E+02  0.00000000000E+00 0. -1.
         11    1    1    2    0    0 -0.36994169192E+02 -0.20516396454E+02  0.12702301626E+03  0.13388180511E+03  0.00000000000E+00 0.  1.
</event>
<event>
 6    1  0.2899775E-009  0.1271836E+03  0.7561462E-02  0.1231696E+00
          1   -1    0    0  501    0  0.00000000000E+00  0.00000000000E+00  0.46316088444E+03  0.46316088444E+03  0.00000000000E+00 0. -1.
         -1   -1    0    0    0  501 -0.00000000000E+00 -0.00000000000E+00 -0.36265785626E+02  0.36265785626E+02  0.00000000000E+00 0.  1.
          5    1    1    2  502    0  0.59045247726E+02 -0.27787096391E+02  0.10768564390E+03  0.12598465901E+03  0.41800000000E+01 0. -1.
         -5    1    1    2    0  502 -0.64716806602E+02 -0.41832764327E+02  0.16411414260E+03  0.18135371358E+03  0.41800000000E+01 0. -1.
        -11    1    1    2    0    0 -0.23521903862E+02 -0.11068600913E+02  0.23832193683E+02  0.35267085834E+02  0.00000000000E+00 0.  1.
         11    1    1    2    0    0  0.29193462737E+02  0.80688461631E+02  0.13126311863E+03  0.15682121164E+03  0.00000000000E+00 0. -1.
</event>
<event>
 7    1  0.2899775E-009  0.1086218E+03  0.7561462E-02  0.1263144E+00
         -2   -1    0    0    0  501 -0.00000000000E+00  0.00000000000E+00  0.18707582600E+03  0.18707582600E+03  0.00000000000E+00 0. -1.
          2   -1    0    0  501    0  0.00000000000E+00 -0.00000000000E+00 -0.11335850893E+03  0.11335850893E+03  0.00000000000E+00 0.  1.
         25    2    1    2    0    0 -0.47093665499E+02 -0.78275886341E+02  0.78455791317E+02  0.17363069784E+03  0.12508948928E+03 0.  0.
          5    1    3    3  502    0 -0.32728294238E+02 -0.57419584403E+02  0.11277090823E+03  0.13077805649E+03  0.41800000000E+01 0. -1.
         -5    1    3    3    0  502 -0.14365371261E+02 -0.20856301937E+02 -0.34315116911E+02  0.42852641349E+02  0.41800000000E+01 0. -1.
        -11    1    1    2    0    0 -0.67804550707E+01  0.70610597678E+02  0.65202447007E+01  0.71234434555E+02  0.00000000000E+00 0.  1.
         11    1    1    2    0    0  0.53874120570E+02  0.76652886624E+01 -0.11258718948E+02  0.55569202530E+02  0.00000000000E+00 0. -1.
</event>
<event>
 7    1  0.2899775E-009  0.1074315E+03  0.7561462E-02  0.1265402E+00
         -4   -1    0    0    0  501 -0.00000000000E+00  0.00000000000E+00  0.31903948049E+02  0.31903948049E+02  0.00000000000E+00 0.  1.
          4   -1    0    0  501    0  0.00000000000E+00 -0.00000000000E+00 -0.72553625984E+03  0.72553625984E+03  0.00000000000E+00 0. -1.
         25    2    1    2    0    0 -0.88336762629E+02  0.48339581127E+02 -0.45870522258E+03  0.48600276281E+03  0.12509238786E+03 0.  0.
          5    1    3    3  502    0  0.30160807876E+01  0.16293747084E+02  0.86206632295E-01  0.17089844029E+02  0.41800000000E+01 0. -1.
         -5    1    3    3    0  502 -0.91352843416E+02  0.32045834044E+02 -0.45879142921E+03  0.46891291878E+03  0.41800000000E+01 0. -1.
        -11    1    1    2    0    0  0.46661424500E+02 -0.22152983688E+02 -0.28034039089E+02  0.58770320488E+02  0.00000000000E+00 0.  1.
         11    1    1    2    0    0  0.41675338129E+02 -0.26186597439E+02 -0.20689305013E+03  0.21266712460E+03  0.00000000000E+00 0. -1.
</event>
<event>
 7    1  0.2899775E-009  0.1322666E+03  0.7561462E-02  0.1224131E+00
          3   -1    0    0  501    0  0.00000000000E+00  0.00000000000E+00  0.25480506507E+03  0.25480506507E+03  0.00000000000E+00 0. -1.
         -3   -1    0    0    0  501 -0.00000000000E+00 -0.00000000000E+00 -0.74512656060E+02  0.74512656060E+02  0.00000000000E+00 0.  1.
         25    2    1    2    0    0 -0.74020716496E+02 -0.40157776259E+02  0.96873082479E+02  0.17924329494E+03  0.12510815804E+03 0.  0.
          5    1    3    3  502    0  0.61501734665E+01  0.33396427662E+02  0.50268577953E+02  0.60807469473E+02  0.41800000000E+01 0.  1.
         -5    1    3    3    0  502 -0.80170889963E+02 -0.73554203921E+02  0.46604504526E+02  0.11843582547E+03  0.41800000000E+01 0.  1.
        -11    1    1    2    0    0  0.26371689398E+02 -0.27878467839E+02  0.43211969765E+02  0.57792294485E+02  0.00000000000E+00 0. -1.
         11    1    1    2    0    0  0.47649027098E+02  0.68036244098E+02  0.40207356767E+02  0.92282131708E+02  0.00000000000E+00 0.  1.
</event>
<event>
 7    1  0.2899775E-009  0.1001254E+03  0.7561462E-02  0.1280032E+00
          1   -1    0    0  501    0  0.00000000000E+00  0.00000000000E+00  0.74235156370E+02  0.74235156370E+02  0.00000000000E+00 0. -1.
         -1   -1    0    0    0  501 -0.00000000000E+00 -0.00000000000E+00 -0.27719175057E+03  0.27719175057E+03  0.00000000000E+00 0.  1.
         25    2    1    2    0    0  0.71847429902E+02  0.61097041485E+02 -0.88378130383E+02  0.17986948464E+03  0.12508971146E+03 0.  0.
          5    1    3    3  502    0  0.16464404437E+02  0.31420125565E+02  0.29434317729E+02  0.46283391883E+02  0.41800000000E+01 0.  1.
         -5    1    3    3    0  502  0.55383025465E+02  0.29676915920E+02 -0.11781244811E+03  0.13358609276E+03  0.41800000000E+01 0.  1.
        -11    1    1    2    0    0 -0.22655175087E+01 -0.21263643062E+02 -0.82458143557E+02  0.85185800018E+02  0.00000000000E+00 0.  1.
         11    1    1    2    0    0 -0.69581912393E+02 -0.39833398423E+02 -0.32120320265E+02  0.86371622285E+02  0.00000000000E+00 0. -1.
</event>
<event>
 7    1  0.2899775E-009  0.1140608E+03  0.7561462E-02  0.1253229E+00
          1   -1    0    0  501    0  0.00000000000E+00  0.00000000000E+00  0.40433799851E+03  0.40433799851E+03  0.00000000000E+00 0. -1.
         -1   -1    0    0    0  501 -0.00000000000E+00 -0.00000000000E+00 -0.40339346163E+02  0.40339346163E+02  0.00000000000E+00 0.  1.
         25    2    1    2    0    0 -0.52201899900E+02  0.87391707890E+01  0.27264436795E+03  0.30460697239E+03  0.12509614220E+03 0.  0.
          5    1    3    3  502    0  0.72997835902E+01 -0.42958686690E+02  0.41357780739E+02  0.60221873354E+02  0.41800000000E+01 0.  1.
         -5    1    3    3    0  502 -0.59501683490E+02  0.51697857479E+02  0.23128658721E+03  0.24438509903E+03  0.41800000000E+01 0.  1.
        -11    1    1    2    0    0  0.10629583150E+02  0.39979256340E+02  0.44198717387E+02  0.60538050795E+02  0.00000000000E+00 0. -1.
         11    1    1    2    0    0  0.41572316750E+02 -0.48718427129E+02  0.47155567014E+02  0.79532321494E+02  0.00000000000E+00 0.  1.
</event>
<event>
 7    1  0.2899775E-009  0.8946072E+02  0.7561462E-02  0.1304163E+00
         -3   -1    0    0    0  501 -0.00000000000E+00  0.00000000000E+00  0.36942180309E+02  0.36942180309E+02  0.00000000000E+00 0.  1.
          3   -1    0    0  501    0  0.00000000000E+00 -0.00000000000E+00 -0.34149110629E+03  0.34149110629E+03  0.00000000000E+00 0. -1.
         25    2    1    2    0    0 -0.15391345421E+02  0.26781614684E+02 -0.17087037213E+03  0.21400387765E+03  0.12508727824E+03 0.  0.
          5    1    3    3  502    0  0.26658495095E+02 -0.23690799194E+02 -0.59057314866E+01  0.36390649782E+02  0.41800000000E+01 0. -1.
         -5    1    3    3    0  502 -0.42049840516E+02  0.50472413878E+02 -0.16496464065E+03  0.17761322787E+03  0.41800000000E+01 0. -1.
        -11    1    1    2    0    0  0.12528764989E+02  0.23602324788E+02 -0.63511831971E+01  0.27465928267E+02  0.00000000000E+00 0.  1.
         11    1    1    2    0    0  0.28625804318E+01 -0.50383939473E+02 -0.12732737065E+03  0.13696348068E+03  0.00000000000E+00 0. -1.
</event>
<event>
 6    1  0.2899775E-009  0.1748562E+03  0.7561462E-02  0.1172876E+00
          2   -1    0    0  501    0  0.00000000000E+00  0.00000000000E+00  0.65377765590E+03  0.65377765590E+03  0.00000000000E+00 0. -1.
         -2   -1    0    0    0  501 -0.00000000000E+00 -0.00000000000E+00 -0.95624472466E+02  0.95624472466E+02  0.00000000000E+00 0.  1.
          5    1    1    2  502    0  0.23365359651E+02 -0.61843758536E+01 -0.37475208991E+02  0.44788952044E+02  0.41800000000E+01 0.  1.
         -5    1    1    2    0  502  0.12095488661E+03 -0.71023506398E+02  0.93516711316E+02  0.16863353981E+03  0.41800000000E+01 0.  1.
        -11    1    1    2    0    0 -0.56965754943E+02  0.79103869725E+02  0.30921672348E+03  0.32421829301E+03  0.00000000000E+00 0.  1.
         11    1    1    2    0    0 -0.87354491315E+02 -0.18959874734E+01  0.19289495762E+03  0.21176134349E+03  0.00000000000E+00 0. -1.
</event>
<event>
 7    1  0.2899775E-009  0.1744765E+03  0.7561462E-02  0.1173258E+00
         -1   -1    0    0    0  501 -0.00000000000E+00  0.00000000000E+00  0.24982146216E+02  0.24982146216E+02  0.00000000000E+00 0.  1.
          1   -1    0    0  501    0  0.00000000000E+00 -0.00000000000E+00 -0.13516940068E+04  0.13516940068E+04  0.00000000000E+00 0. -1.
         25    2    1    2    0    0  0.35971439609E+02 -0.13457395401E+03 -0.89507784419E+03  0.91444780188E+03  0.12508533743E+03 0.  0.
          5    1    3    3  502    0  0.35349716994E+02  0.11593718571E+02 -0.12026513925E+03  0.12595710746E+03  0.41800000000E+01 0. -1.
         -5    1    3    3    0  502  0.62172261561E+00 -0.14616767259E+03 -0.77481270494E+03  0.78849069442E+03  0.41800000000E+01 0. -1.
        -11    1    1    2    0    0  0.21911348880E+02  0.88884361918E+02 -0.24626920946E+03  0.26273382069E+03  0.00000000000E+00 0. -1.
         11    1    1    2    0    0 -0.57882788490E+02  0.45689592097E+02 -0.18536480691E+03  0.19949453043E+03  0.00000000000E+00 0.  1.
</event>
<event>
 7    1  0.2899775E-009  0.1054542E+03  0.7561462E-02  0.1269227E+00
          1   -1    0    0  501    0  0.00000000000E+00  0.00000000000E+00  0.50923420818E+03  0.50923420818E+03  0.00000000000E+00 0. -1.
         -1   -1    0    0    0  501 -0.00000000000E+00 -0.00000000000E+00 -0.39405608759E+02  0.39405608759E+02  0.00000000000E+00 0.  1.
         25    2    1    2    0    0 -0.36273906172E+02  0.17968551724E+02  0.41417588652E+03  0.43454316533E+03  0.12508969758E+03 0.  0.
          5    1    3    3  502    0  0.44406452131E+02 -0.63111094463E+01  0.10948621603E+03  0.11839116096E+03  0.41800000000E+01 0. -1.
         -5    1    3    3    0  502 -0.80680358302E+02  0.24279661170E+02  0.30468967049E+03  0.31615200437E+03  0.41800000000E+01 0. -1.
        -11    1    1    2    0    0  0.90055876619E+01  0.27249705808E+02 -0.95019926097E+01  0.30231356888E+02  0.00000000000E+00 0.  1.
         11    1    1    2    0    0  0.27268318510E+02 -0.45218257532E+02  0.65154705513E+02  0.83865294724E+02  0.00000000000E+00 0. -1.
</event>
<event>
 7    1  0.2899775E-009  0.2190262E+03  0.7561462E-02  0.1134611E+00
         -1   -1    0    0    0  501 -0.00000000000E+00  0.00000000000E+00  0.69141632780E+02  0.69141632780E+02  0.00000000000E+00 0.  1.
          1   -1    0    0  501    0  0.00000000000E+00 -0.00000000000E+00 -0.85061457436E+03  0.85061457436E+03  0.00000000000E+00 0. -1.
         25    2    1    2    0    0  0.44505591667E+02  0.19754208352E+03 -0.41421214516E+03  0.47772689566E+03  0.12509061991E+03 0.  0.
          5    1    3    3  502    0 -0.20052120077E+02  0.15839152366E+03 -0.24596555337E+03  0.29326862794E+03  0.41800000000E+01 0. -1.
         -5    1    3    3    0  502  0.64557711744E+02  0.39150559861E+02 -0.16824659179E+03  0.18445826773E+03  0.41800000000E+01 0. -1.
        -11    1    1    2    0    0 -0.24989809828E+02 -0.13176447465E+03 -0.34459135913E+03  0.36976962039E+03  0.00000000000E+00 0. -1.
         11    1    1    2    0    0 -0.19515781839E+02 -0.65777608869E+02 -0.22669437289E+02  0.72259691089E+02  0.00000000000E+00 0.  1.
</event>
<event>
 7    1  0.2899775E-009  0.1994535E+03  0.7561462E-02  0.1150201E+00
          1   -1    0    0  501    0  0.00000000000E+00  0.00000000000E+00  0.25137282186E+03  0.25137282186E+03  0.00000000000E+00 0. -1.
         -1   -1    0    0    0  501 -0.00000000000E+00 -0.00000000000E+00 -0.16601108334E+03  0.16601108334E+03  0.00000000000E+00 0.  1.
         25    2    1    2    0    0  0.14746597028E+03  0.89882348662E+02  0.49827382303E+02  0.21898753572E+03  0.12509086211E+03 0.  0.
          5    1    3    3  502    0  0.97277546928E+02 -0.12571761921E+02  0.13005898015E+02  0.99033308121E+02  0.41800000000E+01 0. -1.
         -5    1    3    3    0  502  0.50188423350E+02  0.10245411058E+03  0.36821484288E+02  0.11995422760E+03  0.41800000000E+01 0. -1.
        -11    1    1    2    0    0 -0.96605431297E+02 -0.94951000492E+02 -0.11857111644E+01  0.13546109316E+03  0.00000000000E+00 0.  1.
         11    1    1    2    0    0 -0.50860538981E+02  0.50686518294E+01  0.36720067375E+02  0.62935276315E+02  0.00000000000E+00 0. -1.
</event>
<event>
 7    1  0.2899775E-009  0.3528358E+03  0.7561462E-02  0.1061457E+00
          1   -1    0    0  501    0  0.00000000000E+00  0.00000000000E+00  0.49129016620E+03  0.49129016620E+03  0.00000000000E+00 0. -1.
         -1   -1    0    0    0  501 -0.00000000000E+00 -0.00000000000E+00 -0.28678908562E+03  0.28678908562E+03  0.00000000000E+00 0.  1.
         25    2    1    2    0    0 -0.34054199734E+03 -0.72777587827E+02  0.12592312671E+02  0.37023288056E+03  0.12509352609E+03 0.  0.
          5    1    3    3  502    0 -0.18008345401E+02 -0.11025621278E+02  0.34958054518E+02  0.41053657624E+02  0.41800000000E+01 0.  1.
         -5    1    3    3    0  502 -0.32253365194E+03 -0.61751966550E+02 -0.22365741848E+02  0.32917922294E+03  0.41800000000E+01 0.  1.
        -11    1    1    2    0    0  0.81875674837E+02  0.50287139206E+02  0.80343164860E+02  0.12524953748E+03  0.00000000000E+00 0. -1.
         11    1    1    2    0    0  0.25866632250E+03  0.22490448621E+02  0.11156560305E+03  0.28259683377E+03  0.00000000000E+00 0.  1.
</event>
<event>
 7    1  0.2899775E-009  0.1099787E+03  0.7561462E-02  0.1260609E+00
          2   -1    0    0  501    0  0.00000000000E+00  0.00000000000E+00  0.55201111385E+03  0.55201111385E+03  0.00000000000E+00 0. -1.
         -2   -1    0    0    0  501 -0.00000000000E+00 -0.00000000000E+00 -0.42670729064E+02  0.42670729064E+02  0.00000000000E+00 0.  1.
         25    2    1    2    0    0 -0.85677638452E+02  0.22458085981E+02  0.15032698158E+03  0.21468723513E+03  0.12508950468E+03 0.  0.
          5    1    3    3  502    0 -0.70613676037E+02  0.52982014978E+02  0.36176686046E+02  0.95496650034E+02  0.41800000000E+01 0.  1.
         -5    1    3    3    0  502 -0.15063962415E+02 -0.30523928997E+02  0.11415029554E+03  0.11919058510E+03  0.41800000000E+01 0.  1.
        -11    1    1    2    0    0  0.42639909312E+02 -0.31864020904E+02  0.30811462510E+03  0.31267890862E+03  0.00000000000E+00 0. -1.
         11    1    1    2    0    0  0.43037729140E+02  0.94059349232E+01  0.50898778105E+02  0.67315699164E+02  0.00000000000E+00 0.  1.
</event>
<event>
 7    1  0.2899775E-009  0.7097707E+02  0.7561462E-02  0.1356802E+00
         -2   -1    0    0    0  501 -0.00000000000E+00  0.00000000000E+00  0.39185008833E+02  0.39185008833E+02  0.00000000000E+00 0.  1.
          2   -1    0    0  501    0  0.00000000000E+00 -0.00000000000E+00 -0.33462764456E+03  0.33462764456E+03  0.00000000000E+00 0. -1.
         25    2    1    2    0    0  0.16112161844E+02  0.25632386618E+01 -0.23058898412E+03  0.26283966748E+03  0.12508892537E+03 0.  0.
          5    1    3    3  502    0 -0.10308381508E+02 -0.22858214009E+02 -0.22389716586E+03  0.22533569171E+03  0.41800000000E+01 0.  1.
         -5    1    3    3    0  502  0.26420543352E+02  0.25421452671E+02 -0.66918182584E+01  0.37503975770E+02  0.41800000000E+01 0.  1.
        -11    1    1    2    0    0 -0.36212643372E+02 -0.29018990630E+02 -0.10994607677E+02  0.47690027837E+02  0.00000000000E+00 0.  1.
         11    1    1    2    0    0  0.20100481528E+02  0.26455751968E+02 -0.53859043932E+02  0.63282958078E+02  0.00000000000E+00 0. -1.
</event>
<event>
 7    1  0.2899775E-009  0.9890860E+02  0.7561462E-02  0.1282608E+00
          2   -1    0    0  501    0  0.00000000000E+00  0.00000000000E+00  0.92405600358E+03  0.92405600358E+03  0.00000000000E+00 0. -1.
         -2   -1    0    0    0  501 -0.00000000000E+00 -0.00000000000E+00 -0.16305885290E+02  0.16305885290E+02  0.00000000000E+00 0.  1.
         25    2    1    2    0    0 -0.36535035102E+02  0.16150743572E+02  0.66700693238E+03  0.67980990460E+03  0.12509038029E+03 0.  0.
          5    1    3    3  502    0 -0.16179374751E+02 -0.48606249744E+02  0.15485454284E+03  0.16316170360E+03  0.41800000000E+01 0. -1.
         -5    1    3    3    0  502 -0.20355660350E+02  0.64756993316E+02  0.51215238954E+03  0.51664820101E+03  0.41800000000E+01 0. -1.
        -11    1    1    2    0    0  0.20282844464E+02 -0.42704544069E+02  0.21505327348E+03  0.22018851536E+03  0.00000000000E+00 0. -1.
         11    1    1    2    0    0  0.16252190638E+02  0.26553800497E+02  0.25689912427E+02  0.40363468902E+02  0.00000000000E+00 0.  1.
</event>
<event>
 7    1  0.2899775E-009  0.1076605E+03  0.7561462E-02  0.1264965E+00
          1   -1    0    0  501    0  0.00000000000E+00  0.00000000000E+00  0.10097099384E+03  0.10097099384E+03  0.00000000000E+00 0. -1.
         -1   -1    0    0    0  501 -0.00000000000E+00 -0.00000000000E+00 -0.16761972863E+03  0.16761972863E+03  0.00000000000E+00 0.  1.
         25    2    1    2    0    0  0.93428783610E+01  0.65685477777E+02 -0.11275637390E+02  0.14205027741E+03  0.12509704211E+03 0.  0.
          5    1    3    3  502    0  0.33714605244E+02 -0.20464987091E+02  0.23282770027E+02  0.45989673662E+02  0.41800000000E+01 0. -1.
         -5    1    3    3    0  502 -0.24371726883E+02  0.86150464868E+02 -0.34558407417E+02  0.96060603743E+02  0.41800000000E+01 0. -1.
        -11    1    1    2    0    0  0.22974257240E+02 -0.23187420589E+02  0.16843467677E+02  0.36731122672E+02  0.00000000000E+00 0. -1.
         11    1    1    2    0    0 -0.32317135601E+02 -0.42498057188E+02 -0.72216565078E+02  0.89809322400E+02  0.00000000000E+00 0.  1.
</event>
<event>
 7    1  0.2899775E-009  0.8072360E+02  0.7561462E-02  0.1327010E+00
          4   -1    0    0  501    0  0.00000000000E+00  0.00000000000E+00  0.88162352037E+02  0.88162352037E+02  0.00000000000E+00 0. -1.
         -4   -1    0    0    0  501 -0.00000000000E+00 -0.00000000000E+00 -0.16963719729E+03  0.16963719729E+03  0.00000000000E+00 0.  1.
         25    2    1    2    0    0 -0.53056269542E+02  0.29849422424E+02 -0.57299080441E+02  0.15048170395E+03  0.12512235151E+03 0.  0.
          5    1    3    3  502    0 -0.45521985941E+02  0.34190532131E+02 -0.95401778103E+02  0.11117650542E+03  0.41800000000E+01 0. -1.
         -5    1    3    3    0  502 -0.75342836014E+01 -0.43411097069E+01  0.38102697662E+02  0.39305198536E+02  0.41800000000E+01 0. -1.
        -11    1    1    2    0    0  0.70658799098E+02 -0.30813304000E+02  0.38391543234E+00  0.77086140028E+02  0.00000000000E+00 0.  1.
         11    1    1    2    0    0 -0.17602529556E+02  0.96388157570E+00 -0.24559680244E+02  0.30231705346E+02  0.00000000000E+00 0. -1.
</event>
<event>
 7    1  0.2899775E-009  0.1840639E+03  0.7561462E-02  0.1163927E+00
          2   -1    0    0  501    0  0.00000000000E+00  0.00000000000E+00  0.20820887705E+03  0.20820887705E+03  0.00000000000E+00 0. -1.
         -2   -1    0    0    0  501 -0.00000000000E+00 -0.00000000000E+00 -0.17393863859E+03  0.17393863859E+03  0.00000000000E+00 0.  1.
         25    2    1    2    0    0  0.69468571954E+01 -0.15516888604E+03  0.34494080244E+02  0.20239235269E+03  0.12508869189E+03 0.  0.
          5    1    3    3  502    0 -0.23799285425E+02 -0.16477068841E+03  0.23969903581E+02  0.16824926277E+03  0.41800000000E+01 0.  1.
         -5    1    3    3    0  502  0.30746142620E+02  0.96018023739E+01  0.10524176663E+02  0.34143089920E+02  0.41800000000E+01 0.  1.
        -11    1    1    2    0    0 -0.23373167720E+02  0.14534587860E+02 -0.23589936029E+02  0.36249748901E+02  0.00000000000E+00 0.  1.
         11    1    1    2    0    0  0.16426310524E+02  0.14063429818E+03  0.23366094243E+02  0.14350541405E+03  0.00000000000E+00 0. -1.
</event>
<event>
 7    1  0.2899775E-009  0.1598236E+03  0.7561462E-02  0.1188896E+00
          2   -1    0    0  501    0  0.00000000000E+00  0.00000000000E+00  0.25008757537E+03  0.25008757537E+03  0.00000000000E+00 0. -1.
         -2   -1    0    0    0  501 -0.00000000000E+00 -0.00000000000E+00 -0.14033560652E+03  0.14033560652E+03  0.00000000000E+00 0.  1.
         25    2    1    2    0    0 -0.14618641993E+03 -0.94430163437E+01  0.15336193774E+02  0.19324180225E+03  0.12509018892E+03 0.  0.
          5    1    3    3  502    0 -0.11494390698E+03 -0.20780831771E+02 -0.44174320433E+02  0.12495114128E+03  0.41800000000E+01 0.  1.
         -5    1    3    3    0  502 -0.31242512954E+02  0.11337815427E+02  0.59510514207E+02  0.68290660969E+02  0.41800000000E+01 0.  1.
        -11    1    1    2    0    0  0.61563773451E+02  0.46235238518E+02  0.63703478087E+02  0.99929618245E+02  0.00000000000E+00 0.  1.
         11    1    1    2    0    0  0.84622646483E+02 -0.36792222174E+02  0.30712296987E+02  0.97251761406E+02  0.00000000000E+00 0. -1.
</event>
<event>
 7    1  0.3394064E-009  0.1249286E+03  0.7561462E-02  0.1235181E+00
          2   -1    0    0  501    0  0.00000000000E+00  0.00000000000E+00  0.45765078978E+03  0.45765078978E+03  0.00000000000E+00 0. -1.
         -2   -1    0    0    0  501 -0.00000000000E+00 -0.00000000000E+00 -0.44689689225E+02  0.44689689225E+02  0.00000000000E+00 0.  1.
         25    2    1    2    0    0 -0.34264029799E+00  0.79675192045E+02  0.14086272456E+03  0.20454498160E+03  0.12509232071E+03 0.  0.
          5    1    3    3  502    0 -0.96892357872E+01  0.11296419970E+03  0.10608968629E+03  0.15532960324E+03  0.41800000000E+01 0. -1.
         -5    1    3    3    0  502  0.93465954892E+01 -0.33289007655E+02  0.34773038262E+02  0.49215378368E+02  0.41800000000E+01 0. -1.
        -11    1    1    2    0    0 -0.31158485734E+02 -0.34351340547E+02  0.47002260787E+02  0.66030889360E+02  0.00000000000E+00 0.  1.
         11    1    1    2    0    0  0.31501126032E+02 -0.45323851499E+02  0.22509611521E+03  0.23176460804E+03  0.00000000000E+00 0. -1.
</event>
<event>
 7    1  0.2899775E-009  0.7932096E+02  0.7561462E-02  0.1330990E+00
          2   -1    0    0  501    0  0.00000000000E+00  0.00000000000E+00  0.47403030557E+03  0.47403030557E+03  0.00000000000E+00 0. -1.
         -2   -1    0    0    0  501 -0.00000000000E+00 -0.00000000000E+00 -0.17647125742E+02  0.17647125742E+02  0.00000000000E+00 0.  1.
         25    2    1    2    0    0  0.30495802166E+02 -0.11455470227E+02  0.40227365071E+03  0.42253108851E+03  0.12508880427E+03 0.  0.
          5    1    3    3  502    0 -0.30794655292E+02  0.35392012090E+02  0.21204131827E+03  0.21720934227E+03  0.41800000000E+01 0. -1.
         -5    1    3    3    0  502  0.61290457458E+02 -0.46847482317E+02  0.19023233244E+03  0.20532174624E+03  0.41800000000E+01 0. -1.
        -11    1    1    2    0    0 -0.17475935901E+02  0.12089013426E+02  0.10640584725E+02  0.23764987367E+02  0.00000000000E+00 0.  1.
         11    1    1    2    0    0 -0.13019866265E+02 -0.63354319866E+00  0.43468944390E+02  0.45381355433E+02  0.00000000000E+00 0. -1.
</event>
<event>
 7    1  0.3248930E-009  0.1164764E+03  0.7561462E-02  0.1249026E+00
         -1   -1    0    0    0  501 -0.00000000000E+00  0.00000000000E+00  0.36412226380E+02  0.36412226380E+02  0.00000000000E+00 0.  1.
          1   -1    0    0  501    0  0.00000000000E+00 -0.00000000000E+00 -0.57015347188E+03  0.57015347188E+03  0.00000000000E+00 0. -1.
         25    2    1    2    0    0  0.45605656350E+02 -0.39347152106E+02 -0.44386389698E+03  0.46507209763E+03  0.12509525444E+03 0.  0.
          5    1    3    3  502    0  0.16253889546E+02  0.45247194082E+02 -0.13041638637E+03  0.13905899370E+03  0.41800000000E+01 0.  1.
         -5    1    3    3    0  502  0.29351766804E+02 -0.84594346188E+02 -0.31344751062E+03  0.32601310393E+03  0.41800000000E+01 0.  1.
        -11    1    1    2    0    0  0.16146023926E+02  0.27922205288E+02 -0.49854284352E+00  0.32258211074E+02  0.00000000000E+00 0.  1.
         11    1    1    2    0    0 -0.61751680276E+02  0.11424946818E+02 -0.89378805675E+02  0.10923538955E+03  0.00000000000E+00 0. -1.
</event>
<event>
 7    1  0.2899775E-009  0.1178087E+03  0.7561462E-02  0.1246756E+00
          2   -1    0    0  501    0  0.00000000000E+00  0.00000000000E+00  0.12332978758E+03  0.12332978758E+03  0.00000000000E+00 0.  1.
         -2   -1    0    0    0  501 -0.00000000000E+00 -0.00000000000E+00 -0.11791923366E+03  0.11791923366E+03  0.00000000000E+00 0. -1.
         25    2    1    2    0    0  0.34069403873E+02  0.32128472998E+02 -0.22054554362E+02  0.13537657117E+03  0.12508976616E+03 0.  0.
          5    1    3    3  502    0  0.81621929105E+02  0.21830474172E+02 -0.16959058207E+02  0.86277407058E+02  0.41800000000E+01 0.  1.
         -5    1    3    3    0  502 -0.47552525231E+02  0.10297998826E+02 -0.50954961548E+01  0.49099164114E+02  0.41800000000E+01 0.  1.
        -11    1    1    2    0    0 -0.48273484211E+02  0.16898668765E+02  0.11950449589E+02  0.52523399826E+02  0.00000000000E+00 0. -1.
         11    1    1    2    0    0  0.14204080338E+02 -0.49027141764E+02  0.15514658696E+02  0.53349050247E+02  0.00000000000E+00 0.  1.
</event>
<event>
 7    1  0.2899775E-009  0.2059714E+03  0.7561462E-02  0.1144797E+00
         -3   -1    0    0    0  501 -0.00000000000E+00  0.00000000000E+00  0.54724420526E+02  0.54724420526E+02  0.00000000000E+00 0.  1.
          3   -1    0    0  501    0  0.00000000000E+00 -0.00000000000E+00 -0.99506445892E+03  0.99506445892E+03  0.00000000000E+00 0. -1.
         25    2    1    2    0    0 -0.18565983486E+03 -0.24805532846E+02 -0.67430621155E+03  0.71092970398E+03  0.12508912154E+03 0.  0.
          5    1    3    3  502    0  0.38332598527E+01  0.23628546897E+02 -0.13654107774E+03  0.13868648247E+03  0.41800000000E+01 0.  1.
         -5    1    3    3    0  502 -0.18949309471E+03 -0.48434079743E+02 -0.53776513381E+03  0.57224322151E+03  0.41800000000E+01 0.  1.
        -11    1    1    2    0    0  0.10852829642E+03 -0.66101762554E+01 -0.79861011597E+02  0.13490688169E+03  0.00000000000E+00 0.  1.
         11    1    1    2    0    0  0.77131538444E+02  0.31415709101E+02 -0.18617281525E+03  0.20395229379E+03  0.00000000000E+00 0. -1.
</event>
<event>
 7    1  0.2899775E-009  0.1501742E+03  0.7561462E-02  0.1200259E+00
          1   -1    0    0  501    0  0.00000000000E+00  0.00000000000E+00  0.45948135984E+03  0.45948135984E+03  0.00000000000E+00 0. -1.
         -1   -1    0    0    0  501 -0.00000000000E+00 -0.00000000000E+00 -0.79413703878E+02  0.79413703878E+02  0.00000000000E+00 0.  1.
         25    2    1    2    0    0 -0.60735788573E+02 -0.12947569114E+03  0.86491195963E+02  0.20874843161E+03  0.12506954111E+03 0.  0.
          5    1    3    3  502    0 -0.40512599298E+02 -0.27951467222E+02  0.92614827493E+02  0.10496444109E+03  0.41800000000E+01 0. -1.
         -5    1    3    3    0  502 -0.20223189274E+02 -0.10152422391E+03 -0.61236315296E+01  0.10378399052E+03  0.41800000000E+01 0. -1.
        -11    1    1    2    0    0  0.28040511677E+02  0.23958084848E+02  0.10864008925E+03  0.11472980919E+03  0.00000000000E+00 0.  1.
         11    1    1    2    0    0  0.32695276896E+02  0.10551760629E+03  0.18493637075E+03  0.21541682291E+03  0.00000000000E+00 0. -1.
</event>
<event>
 7    1  0.2899775E-009  0.1119013E+03  0.7561462E-02  0.1257089E+00
          2   -1    0    0  501    0  0.00000000000E+00  0.00000000000E+00  0.12123463481E+04  0.12123463481E+04  0.00000000000E+00 0.  1.
         -2   -1    0    0    0  501 -0.00000000000E+00 -0.00000000000E+00 -0.12473377942E+02  0.12473377942E+02  0.00000000000E+00 0. -1.
         25    2    1    2    0    0 -0.42433025990E+02 -0.58846004358E+01  0.85273933252E+03  0.86292967712E+03  0.12509223884E+03 0.  0.
          5    1    3    3  502    0 -0.13211851681E+01  0.51022843035E+02  0.20157409133E+03  0.20797755344E+03  0.41800000000E+01 0. -1.
         -5    1    3    3    0  502 -0.41111840822E+02 -0.56907443471E+02  0.65116524119E+03  0.65495212368E+03  0.41800000000E+01 0. -1.
        -11    1    1    2    0    0  0.58844528258E+01 -0.41783733936E+02  0.14709355185E+03  0.15302620757E+03  0.00000000000E+00 0.  1.
         11    1    1    2    0    0  0.36548573164E+02  0.47668334372E+02  0.20004008584E+03  0.20886384140E+03  0.00000000000E+00 0. -1.
</event>
<event>
 7    1  0.2899775E-009  0.1940607E+03  0.7561462E-02  0.1154849E+00
         -2   -1    0    0    0  501 -0.00000000000E+00  0.00000000000E+00  0.82039389414E+02  0.82039389414E+02  0.00000000000E+00 0.  1.
          2   -1    0    0  501    0  0.00000000000E+00 -0.00000000000E+00 -0.58414592004E+03  0.58414592004E+03  0.00000000000E+00 0. -1.
         25    2    1    2    0    0  0.12072886702E+03 -0.13775608352E+03 -0.18101758907E+03  0.28630122180E+03  0.12509526039E+03 0.  0.
          5    1    3    3  502    0  0.76967581664E+02 -0.13800820750E+03 -0.82252800419E+02  0.17819447113E+03  0.41800000000E+01 0.  1.
         -5    1    3    3    0  502  0.43761285352E+02  0.25212398165E+00 -0.98764788647E+02  0.10810675066E+03  0.41800000000E+01 0.  1.
        -11    1    1    2    0    0 -0.10865068194E+03  0.13569292891E+03 -0.32363876334E+03  0.36736846732E+03  0.00000000000E+00 0. -1.
         11    1    1    2    0    0 -0.12078185073E+02  0.20631546119E+01  0.25498217728E+01  0.12515620348E+02  0.00000000000E+00 0.  1.
</event>
<event>
 7    1  0.2899775E-009  0.1244340E+03  0.7561462E-02  0.1235956E+00
         -1   -1    0    0    0  501 -0.00000000000E+00  0.00000000000E+00  0.18037574665E+03  0.18037574665E+03  0.00000000000E+00 0.  1.
          1   -1    0    0  501    0  0.00000000000E+00 -0.00000000000E+00 -0.99260319965E+02  0.99260319965E+02  0.00000000000E+00 0. -1.
         25    2    1    2    0    0  0.34523614989E+02 -0.57629454169E+02  0.20826154394E+01  0.14200659578E+03  0.12509397259E+03 0.  0.
          5    1    3    3  502    0  0.62500257366E+02  0.10967136259E+02 -0.16124890301E+02  0.65605218815E+02  0.41800000000E+01 0. -1.
         -5    1    3    3    0  502 -0.27976642378E+02 -0.68596590428E+02  0.18207505740E+02  0.76401376967E+02  0.41800000000E+01 0. -1.
        -11    1    1    2    0    0  0.30143248858E+02  0.15492288640E+02  0.35217222473E+02  0.48876162060E+02  0.00000000000E+00 0.  1.
         11    1    1    2    0    0 -0.64666863847E+02  0.42137165530E+02  0.43815588772E+02  0.88753308773E+02  0.00000000000E+00 0. -1.
</event>
<event>
 7    1  0.2899775E-009  0.1332239E+03  0.7561462E-02  0.1222749E+00
         -1   -1    0    0    0  501 -0.00000000000E+00  0.00000000000E+00  0.50278576334E+02  0.50278576334E+02  0.00000000000E+00 0.  1.
          1   -1    0    0  501    0  0.00000000000E+00 -0.00000000000E+00 -0.44575674181E+03  0.44575674181E+03  0.00000000000E+00 0. -1.
         25    2    1    2    0    0  0.29045122337E+02  0.88432042782E+02 -0.14242336175E+03  0.21117767933E+03  0.12509097870E+03 0.  0.
          5    1    3    3  502    0 -0.19228482958E+02 -0.21778228457E+02 -0.55172493640E+02  0.62494017682E+02  0.41800000000E+01 0.  1.
         -5    1    3    3    0  502  0.48273605295E+02  0.11021027124E+03 -0.87250868107E+02  0.14868366165E+03  0.41800000000E+01 0.  1.
        -11    1    1    2    0    0 -0.28128109758E+02  0.13984407536E+00 -0.17325648990E+02  0.33036165453E+02  0.00000000000E+00 0.  1.
         11    1    1    2    0    0 -0.91701257886E+00 -0.88571886857E+02 -0.23572915474E+03  0.25182147336E+03  0.00000000000E+00 0. -1.
</event>
<event>
 7    1  0.3016810E-009  0.9170831E+02  0.7561462E-02  0.1298767E+00
         -1   -1    0    0    0  501 -0.00000000000E+00  0.00000000000E+00  0.54208552290E+02  0.54208552290E+02  0.00000000000E+00 0.  1.
          1   -1    0    0  501    0  0.00000000000E+00 -0.00000000000E+00 -0.28446751756E+03  0.28446751756E+03  0.00000000000E+00 0. -1.
         25    2    1    2    0    0  0.30270719950E+02 -0.88626550448E+01 -0.59060454556E+02  0.14187951668E+03  0.12508715689E+03 0.  0.
          5    1    3    3  502    0  0.43236848630E+02  0.40831856953E+02 -0.67066505585E+02  0.89733239065E+02  0.41800000000E+01 0.  1.
         -5    1    3    3    0  502 -0.12966128680E+02 -0.49694511998E+02  0.80060510292E+01  0.52146277611E+02  0.41800000000E+01 0.  1.
        -11    1    1    2    0    0  0.20687103687E+02  0.41256554722E+01 -0.33994904852E+01  0.21366652231E+02  0.00000000000E+00 0.  1.
         11    1    1    2    0    0 -0.50957823637E+02  0.47369995726E+01 -0.16779902023E+03  0.17542990095E+03  0.00000000000E+00 0. -1.
</event>
<event>
 7    1  0.2899775E-009  0.1383413E+03  0.7561462E-02  0.1215578E+00
         -2   -1    0    0    0  501 -0.00000000000E+00  0.00000000000E+00  0.10930672723E+04  0.10930672723E+04  0.00000000000E+00 0. -1.
          2   -1    0    0  501    0  0.00000000000E+00 -0.00000000000E+00 -0.19782333661E+02  0.19782333661E+02  0.00000000000E+00 0.  1.
         25    2    1    2    0    0  0.24804973637E+02  0.92402275360E+02  0.66694394339E+03  0.68528733705E+03  0.12510413057E+03 0.  0.
          5    1    3    3  502    0  0.28357779350E+02  0.11630885915E+03  0.62755688214E+03  0.63888733521E+03  0.41800000000E+01 0. -1.
         -5    1    3    3    0  502 -0.35528057124E+01 -0.23906583792E+02  0.39387061249E+02  0.46400001841E+02  0.41800000000E+01 0. -1.
        -11    1    1    2    0    0 -0.46666818135E+02 -0.10819503737E+02  0.16810304702E+03  0.17479556056E+03  0.00000000000E+00 0.  1.
         11    1    1    2    0    0  0.21861844498E+02 -0.81582771623E+02  0.23823794819E+03  0.25276670831E+03  0.00000000000E+00 0. -1.
</event>
<event>
 7    1  0.2899775E-009  0.1184525E+03  0.7561462E-02  0.1245672E+00
         -1   -1    0    0    0  501 -0.00000000000E+00  0.00000000000E+00  0.56387286508E+02  0.56387286508E+02  0.00000000000E+00 0.  1.
          1   -1    0    0  501    0  0.00000000000E+00 -0.00000000000E+00 -0.36876393064E+03  0.36876393064E+03  0.00000000000E+00 0. -1.
         25    2    1    2    0    0 -0.67064911910E+02 -0.54842748237E+02 -0.23004643978E+03  0.27581825970E+03  0.12509563736E+03 0.  0.
          5    1    3    3  502    0 -0.80630848065E+02 -0.68573074378E+02 -0.10475119207E+03  0.14897612167E+03  0.41800000000E+01 0. -1.
         -5    1    3    3    0  502  0.13565936155E+02  0.13730326140E+02 -0.12529524772E+03  0.12684213803E+03  0.41800000000E+01 0. -1.
        -11    1    1    2    0    0 -0.95977061359E+01  0.28646386748E+02  0.45371037847E+01  0.30550233183E+02  0.00000000000E+00 0.  1.
         11    1    1    2    0    0  0.76662618045E+02  0.26196361489E+02 -0.86867308135E+02  0.11878272426E+03  0.00000000000E+00 0. -1.
</event>
<event>
 7    1  0.2899775E-009  0.1708697E+03  0.7561462E-02  0.1176944E+00
         -2   -1    0    0    0  501 -0.00000000000E+00  0.00000000000E+00  0.10940160175E+03  0.10940160175E+03  0.00000000000E+00 0.  1.
          2   -1    0    0  501    0  0.00000000000E+00 -0.00000000000E+00 -0.30301573503E+03  0.30301573503E+03  0.00000000000E+00 0. -1.
         25    2    1    2    0    0  0.26384186032E+02 -0.14259388981E+03 -0.10783121256E+03  0.21978082941E+03  0.12508756889E+03 0.  0.
          5    1    3    3  502    0 -0.35342036048E+02 -0.47339717375E+02  0.53104276059E+01  0.59462436836E+02  0.41800000000E+01 0.  1.
         -5    1    3    3    0  502  0.61726222080E+02 -0.95254172440E+02 -0.11314164016E+03  0.16031839258E+03  0.41800000000E+01 0.  1.
        -11    1    1    2    0    0 -0.50991904509E+02  0.13314017470E+03 -0.56828509894E+02  0.15347950998E+03  0.00000000000E+00 0.  1.
         11    1    1    2    0    0  0.24607718477E+02  0.94537151103E+01 -0.28954410837E+02  0.39156997394E+02  0.00000000000E+00 0. -1.
</event>
<event>
 7    1  0.2899775E-009  0.1482026E+03  0.7561462E-02  0.1202699E+00
          2   -1    0    0  501    0  0.00000000000E+00  0.00000000000E+00  0.21771908495E+03  0.21771908495E+03  0.00000000000E+00 0.  1.
         -2   -1    0    0    0  501 -0.00000000000E+00 -0.00000000000E+00 -0.11742976327E+03  0.11742976327E+03  0.00000000000E+00 0. -1.
         25    2    1    2    0    0 -0.10522768364E+03 -0.52146422721E+02  0.61376406864E+02  0.18222173212E+03  0.12508229903E+03 0.  0.
          5    1    3    3  502    0  0.14135771674E+02 -0.28045048591E+02 -0.18348391532E+02  0.36612575204E+02  0.41800000000E+01 0. -1.
         -5    1    3    3    0  502 -0.11936345531E+03 -0.24101374130E+02  0.79724798396E+02  0.14560915692E+03  0.41800000000E+01 0. -1.
        -11    1    1    2    0    0  0.89413506633E+02  0.10811321117E+01  0.48755198662E+01  0.89552859859E+02  0.00000000000E+00 0. -1.
         11    1    1    2    0    0  0.15814177002E+02  0.51065290609E+02  0.34037394945E+02  0.63374256239E+02  0.00000000000E+00 0.  1.
</event>
<event>
 7    1  0.2899775E-009  0.1545584E+03  0.7561462E-02  0.1194981E+00
          2   -1    0    0  501    0  0.00000000000E+00  0.00000000000E+00  0.23620109033E+03  0.23620109033E+03  0.00000000000E+00 0. -1.
         -2   -1    0    0    0  501 -0.00000000000E+00 -0.00000000000E+00 -0.11412493163E+03  0.11412493163E+03  0.00000000000E+00 0.  1.
         25    2    1    2    0    0  0.84645968233E+02 -0.89135959945E+02  0.80252126334E+02  0.19286551994E+03  0.12508615313E+03 0.  0.
          5    1    3    3  502    0 -0.30369330016E+02 -0.16496963380E+01  0.16664257789E+02  0.34931183652E+02  0.41800000000E+01 0.  1.
         -5    1    3    3    0  502  0.11501529825E+03 -0.87486263607E+02  0.63587868545E+02  0.15793433628E+03  0.41800000000E+01 0.  1.
        -11    1    1    2    0    0 -0.71507923339E+02  0.37850824924E+02 -0.12198088990E+02  0.81822132841E+02  0.00000000000E+00 0.  1.
         11    1    1    2    0    0 -0.13138044894E+02  0.51285135022E+02  0.54022121351E+02  0.75638369186E+02  0.00000000000E+00 0. -1.
</event>
<event>
 7    1  0.2899775E-009  0.8486311E+02  0.7561462E-02  0.1315791E+00
         -2   -1    0    0    0  501 -0.00000000000E+00  0.00000000000E+00  0.14530016739E+03  0.14530016739E+03  0.00000000000E+00 0.  1.
          2   -1    0    0  501    0  0.00000000000E+00 -0.00000000000E+00 -0.12502794688E+03  0.12502794688E+03  0.00000000000E+00 0. -1.
         25    2    1    2    0    0 -0.89209677318E+01  0.50122138513E+02 -0.54340672877E+02  0.14557616826E+03  0.12509076545E+03 0.  0.
          5    1    3    3  502    0 -0.17339093423E+02  0.67775413944E+02 -0.84254809073E+02  0.10959240917E+03  0.41800000000E+01 0. -1.
         -5    1    3    3    0  502  0.84181256910E+01 -0.17653275431E+02  0.29914136196E+02  0.35983759086E+02  0.41800000000E+01 0. -1.
        -11    1    1    2    0    0  0.14784692892E+02  0.10882540683E+02  0.58600597859E+02  0.61408850381E+02  0.00000000000E+00 0.  1.
         11    1    1    2    0    0 -0.58637251606E+01 -0.61004679196E+02  0.16012295529E+02  0.63343095635E+02  0.00000000000E+00 0. -1.
</event>
<event>
 7    1  0.2899775E-009  0.7359858E+02  0.7561462E-02  0.1348267E+00
          1   -1    0    0  501    0  0.00000000000E+00  0.00000000000E+00  0.53481168049E+02  0.53481168049E+02  0.00000000000E+00 0. -1.
         -1   -1    0    0    0  501 -0.00000000000E+00 -0.00000000000E+00 -0.27165665838E+03  0.27165665838E+03  0.00000000000E+00 0.  1.
         25    2    1    2    0    0 -0.18709910591E+02  0.41294534639E+02 -0.16279093923E+03  0.21024930275E+03  0.12509428471E+03 0.  0.
          5    1    3    3  502    0 -0.26085609199E+02  0.10846796421E+01 -0.16687156757E+03  0.16895333084E+03  0.41800000000E+01 0.  1.
         -5    1    3    3    0  502  0.73756986077E+01  0.40209854997E+02  0.40806283426E+01  0.41295971916E+02  0.41800000000E+01 0.  1.
        -11    1    1    2    0    0  0.35192599315E+02 -0.49905522374E+02 -0.68774622951E+02  0.91972979576E+02  0.00000000000E+00 0.  1.
         11    1    1    2    0    0 -0.16482688724E+02  0.86109877352E+01  0.13390071849E+02  0.22915544101E+02  0.00000000000E+00 0. -1.
</event>
<event>
 7    1  0.2899775E-009  0.3898663E+03  0.7561462E-02  0.1047346E+00
         -2   -1    0    0    0  501 -0.00000000000E+00  0.00000000000E+00  0.25932729050E+03  0.25932729050E+03  0.00000000000E+00 0.  1.
          2   -1    0    0  501    0  0.00000000000E+00 -0.00000000000E+00 -0.64991563631E+03  0.64991563631E+03  0.00000000000E+00 0. -1.
         25    2    1    2    0    0  0.35804904382E+03 -0.12660726470E+03 -0.75179906018E+02  0.40685177915E+03  0.12509130535E+03 0.  0.
          5    1    3    3  502    0  0.12170198541E+03 -0.23152910132E+01 -0.68418391783E+02  0.13969711006E+03  0.41800000000E+01 0.  1.
         -5    1    3    3    0  502  0.23634705841E+03 -0.12429197368E+03 -0.67615142356E+01  0.26715466909E+03  0.41800000000E+01 0.  1.
        -11    1    1    2    0    0 -0.34953060664E+02 -0.15083327697E+02 -0.35290758300E+02  0.51910122766E+02  0.00000000000E+00 0.  1.
         11    1    1    2    0    0 -0.32309598316E+03  0.14169059239E+03 -0.28011768149E+03  0.45048102489E+03  0.00000000000E+00 0. -1.
</event>
<event>
 7    1  0.2899775E-009  0.1107540E+03  0.7561462E-02  0.1259180E+00
          1   -1    0    0  501    0  0.00000000000E+00  0.00000000000E+00  0.59531240186E+02  0.59531240186E+02  0.00000000000E+00 0. -1.
         -1   -1    0    0    0  501 -0.00000000000E+00 -0.00000000000E+00 -0.35064530421E+03  0.35064530421E+03  0.00000000000E+00 0.  1.
         25    2    1    2    0    0 -0.86478580437E+02 -0.28675427455E+02 -0.11998699552E+03  0.19581960340E+03  0.12509041916E+03 0.  0.
          5    1    3    3  502    0 -0.79552682271E+02 -0.24628991834E+02 -0.83311093431E+01  0.83797949128E+02  0.41800000000E+01 0.  1.
         -5    1    3    3    0  502 -0.69258981659E+01 -0.40464356219E+01 -0.11165588618E+03  0.11202165427E+03  0.41800000000E+01 0.  1.
        -11    1    1    2    0    0  0.57602516372E+02  0.62239196259E+02 -0.11372770177E+03  0.14186527973E+03  0.00000000000E+00 0.  1.
         11    1    1    2    0    0  0.28876064065E+02 -0.33563768804E+02 -0.57399366732E+02  0.72491661268E+02  0.00000000000E+00 0. -1.
</event>
<event>
 7    1  0.2899775E-009  0.2302353E+03  0.7561462E-02  0.1126474E+00
          2   -1    0    0  501    0  0.00000000000E+00  0.00000000000E+00  0.87832324588E+03  0.87832324588E+03  0.00000000000E+00 0. -1.
         -2   -1    0    0    0  501 -0.00000000000E+00 -0.00000000000E+00 -0.73474852154E+02  0.73474852154E+02  0.00000000000E+00 0.  1.
         25    2    1    2    0    0  0.18522605934E+03 -0.11869692820E+03  0.29073685932E+03  0.38545019375E+03  0.12508507775E+03 0.  0.
          5    1    3    3  502    0  0.17029983157E+03 -0.62825241808E+02  0.26680153217E+03  0.32272213065E+03  0.41800000000E+01 0. -1.
         -5    1    3    3    0  502  0.14926227770E+02 -0.55871686390E+02  0.23935327154E+02  0.62728063109E+02  0.41800000000E+01 0. -1.
        -11    1    1    2    0    0 -0.12657754516E+03  0.92018216029E+02  0.25368454796E+03  0.29806891299E+03  0.00000000000E+00 0.  1.
         11    1    1    2    0    0 -0.58648514181E+02  0.26678712169E+02  0.26042698644E+03  0.26827899129E+03  0.00000000000E+00 0. -1.
</event>
<event>
 7    1  0.2899775E-009  0.1318132E+03  0.7561462E-02  0.1224790E+00
          1   -1    0    0  501    0  0.00000000000E+00  0.00000000000E+00  0.22653838346E+03  0.22653838346E+03  0.00000000000E+00 0. -1.
         -1   -1    0    0    0  501 -0.00000000000E+00 -0.00000000000E+00 -0.91338815511E+02  0.91338815511E+02  0.00000000000E+00 0.  1.
         25    2    1    2    0    0  0.64598957817E+02  0.52386700168E+02  0.24858555929E+02  0.15226066883E+03  0.12509185331E+03 0.  0.
          5    1    3    3  502    0 -0.14776375526E+02  0.63264130978E+02 -0.79508063388E+01  0.65584901186E+02  0.41800000000E+01 0. -1.
         -5    1    3    3    0  502  0.79375333343E+02 -0.10877430810E+02  0.32809362268E+02  0.86675767644E+02  0.41800000000E+01 0. -1.
        -11    1    1    2    0    0  0.16050018517E+02 -0.30927136168E+02  0.56241440813E+02  0.66160339409E+02  0.00000000000E+00 0. -1.
         11    1    1    2    0    0 -0.80648976333E+02 -0.21459564000E+02  0.54099571210E+02  0.99456190736E+02  0.00000000000E+00 0.  1.
</event>
<event>
 7    1  0.2899775E-009  0.9545113E+02  0.7561462E-02  0.1290163E+00
         -2   -1    0    0    0  501 -0.00000000000E+00  0.00000000000E+00  0.17851789848E+03  0.17851789848E+03  0.00000000000E+00 0.  1.
          2   -1    0    0  501    0  0.00000000000E+00 -0.00000000000E+00 -0.81432366685E+02  0.81432366685E+02  0.00000000000E+00 0. -1.
         25    2    1    2    0    0 -0.51090934122E+02 -0.69345193878E+01  0.40787828178E+02  0.14131552997E+03  0.12509220989E+03 0.  0.
          5    1    3    3  502    0  0.39309712120E+02 -0.10142682944E+02  0.28847159432E+02  0.49977579889E+02  0.41800000000E+01 0. -1.
         -5    1    3    3    0  502 -0.90400646243E+02  0.32081635558E+01  0.11940668746E+02  0.91337950079E+02  0.41800000000E+01 0. -1.
        -11    1    1    2    0    0  0.24501766197E+02 -0.11615838609E+02  0.76003069096E+02  0.80695295807E+02  0.00000000000E+00 0.  1.
         11    1    1    2    0    0  0.26589167925E+02  0.18550357997E+02 -0.19705365478E+02  0.37939439392E+02  0.00000000000E+00 0. -1.
</event>
<event>
 7    1  0.2899775E-009  0.1035915E+03  0.7561462E-02  0.1272920E+00
         -2   -1    0    0    0  501 -0.00000000000E+00  0.00000000000E+00  0.85809535667E+02  0.85809535667E+02  0.00000000000E+00 0.  1.
          2   -1    0    0  501    0  0.00000000000E+00 -0.00000000000E+00 -0.19415114922E+03  0.19415114922E+03  0.00000000000E+00 0. -1.
         25    2    1    2    0    0 -0.27656124217E+02  0.39770702344E+01 -0.12930831137E+03  0.18206515147E+03  0.12508557749E+03 0.  0.
          5    1    3    3  502    0  0.32262998089E+02 -0.29678948202E+02 -0.95919602794E+02  0.10554517333E+03  0.41800000000E+01 0. -1.
         -5    1    3    3    0  502 -0.59919122306E+02  0.33656018437E+02 -0.33388708574E+02  0.76519978144E+02  0.41800000000E+01 0. -1.
        -11    1    1    2    0    0 -0.23116387928E+01  0.40553802127E+02  0.10165959981E+01  0.40632351745E+02  0.00000000000E+00 0.  1.
         11    1    1    2    0    0  0.29967763010E+02 -0.44530872362E+02  0.19950101814E+02  0.57263181675E+02  0.00000000000E+00 0. -1.
</event>
<event>
 7    1  0.2899775E-009  0.1474231E+03  0.7561462E-02  0.1203676E+00
          2   -1    0    0  501    0  0.00000000000E+00  0.00000000000E+00  0.21606637608E+03  0.21606637608E+03  0.00000000000E+00 0. -1.
         -2   -1    0    0    0  501 -0.00000000000E+00 -0.00000000000E+00 -0.10921661601E+03  0.10921661601E+03  0.00000000000E+00 0.  1.
         25    2    1    2    0    0 -0.50929413908E+02  0.85495232155E+02  0.12904570327E+02  0.16037144814E+03  0.12509689653E+03 0.  0.
          5    1    3    3  502    0  0.33002164027E+02  0.65207872106E+02  0.19357200090E+01  0.73228606616E+02  0.41800000000E+01 0.  1.
         -5    1    3    3    0  502 -0.83931577935E+02  0.20287360050E+02  0.10968850318E+02  0.87142841529E+02  0.41800000000E+01 0.  1.
        -11    1    1    2    0    0  0.72853805199E+02 -0.36433922316E+02  0.62293334030E+02  0.10254543916E+03  0.00000000000E+00 0.  1.
         11    1    1    2    0    0 -0.21924391292E+02 -0.49061309839E+02  0.31651855717E+02  0.62366104793E+02  0.00000000000E+00 0. -1.
</event>
<event>
 7    1  0.2908033E-009  0.1279087E+03  0.7561462E-02  0.1230592E+00
          1   -1    0    0  501    0  0.00000000000E+00  0.00000000000E+00  0.91461879579E+02  0.91461879579E+02  0.00000000000E+00 0. -1.
         -1   -1    0    0    0  501 -0.00000000000E+00 -0.00000000000E+00 -0.18695626137E+03  0.18695626137E+03  0.00000000000E+00 0.  1.
         25    2    1    2    0    0 -0.72539068139E+02 -0.24485896276E+01 -0.55797071915E+02  0.15501359764E+03  0.12509192709E+03 0.  0.
          5    1    3    3  502    0 -0.94045905343E+02 -0.36125193205E+02 -0.54939828632E+02  0.11482821546E+03  0.41800000000E+01 0.  1.
         -5    1    3    3    0  502  0.21506837204E+02  0.33676603577E+02 -0.85724328335E+00  0.40185382182E+02  0.41800000000E+01 0.  1.
        -11    1    1    2    0    0  0.17040292262E+02 -0.40951691483E+02 -0.43135529884E+01  0.44564776843E+02  0.00000000000E+00 0. -1.
         11    1    1    2    0    0  0.55498775876E+02  0.43400281111E+02 -0.35383756883E+02  0.78839766460E+02  0.00000000000E+00 0.  1.
</event>
<event>
 7    1  0.2899775E-009  0.9338117E+02  0.7561462E-02  0.1294864E+00
          2   -1    0    0  501    0  0.00000000000E+00  0.00000000000E+00  0.13864961474E+03  0.13864961474E+03  0.00000000000E+00 0. -1.
         -2   -1    0    0    0  501 -0.00000000000E+00 -0.00000000000E+00 -0.86448632228E+02  0.86448632228E+02  0.00000000000E+00 0.  1.
         25    2    1    2    0    0 -0.11751339162E+02 -0.39530182047E+01  0.17607215935E+02  0.12693286161E+03  0.12509283344E+03 0.  0.
          5    1    3    3  502    0  0.34615301750E+02  0.32176912395E+02  0.41798491119E+02  0.63230997670E+02  0.41800000000E+01 0.  1.
         -5    1    3    3    0  502 -0.46366640912E+02 -0.36129930600E+02 -0.24191275184E+02  0.63701863942E+02  0.41800000000E+01 0.  1.
        -11    1    1    2    0    0  0.42207397562E+02  0.19152203962E+02  0.42870011378E+02  0.63135641290E+02  0.00000000000E+00 0. -1.
         11    1    1    2    0    0 -0.30456058400E+02 -0.15199185757E+02 -0.82762448061E+01  0.35029744062E+02  0.00000000000E+00 0.  1.
</event>
<event>
 7    1  0.2899775E-009  0.1090243E+03  0.7561462E-02  0.1262387E+00
          3   -1    0    0  501    0  0.00000000000E+00  0.00000000000E+00  0.73772846604E+02  0.73772846604E+02  0.00000000000E+00 0. -1.
         -3   -1    0    0    0  501 -0.00000000000E+00 -0.00000000000E+00 -0.23058620514E+03  0.23058620514E+03  0.00000000000E+00 0.  1.
         25    2    1    2    0    0  0.30352482410E+02 -0.38905295478E+02 -0.25816543890E+02  0.13692974560E+03  0.12509342944E+03 0.  0.
          5    1    3    3  502    0  0.99468303220E+01 -0.80369735268E+02 -0.37101140423E+02  0.89175113127E+02  0.41800000000E+01 0.  1.
         -5    1    3    3    0  502  0.20405652088E+02  0.41464439790E+02  0.11284596533E+02  0.47754632478E+02  0.41800000000E+01 0.  1.
        -11    1    1    2    0    0  0.18422152370E+02 -0.10438752238E+02 -0.75999355922E+02  0.78893886625E+02  0.00000000000E+00 0.  1.
         11    1    1    2    0    0 -0.48774634780E+02  0.49344047717E+02 -0.54997458728E+02  0.88535419520E+02  0.00000000000E+00 0. -1.
</event>
<event>
 7    1  0.2899775E-009  0.1176515E+03  0.7561462E-02  0.1247022E+00
          1   -1    0    0  501    0  0.00000000000E+00  0.00000000000E+00  0.24741935795E+03  0.24741935795E+03  0.00000000000E+00 0. -1.
         -1   -1    0    0    0  501 -0.00000000000E+00 -0.00000000000E+00 -0.95382442633E+02  0.95382442633E+02  0.00000000000E+00 0.  1.
         25    2    1    2    0    0  0.78973633670E+02  0.44487481328E+01  0.16498849790E+03  0.22164127996E+03  0.12508807445E+03 0.  0.
          5    1    3    3  502    0  0.31737926995E+02 -0.44048597620E+02  0.14160086623E+02  0.56263268794E+02  0.41800000000E+01 0.  1.
         -5    1    3    3    0  502  0.47235706675E+02  0.48497345753E+02  0.15082841127E+03  0.16537801117E+03  0.41800000000E+01 0.  1.
        -11    1    1    2    0    0  0.18761340967E+01  0.26415249424E+02 -0.21620671988E+02  0.34186821123E+02  0.00000000000E+00 0.  1.
         11    1    1    2    0    0 -0.80849767767E+02 -0.30863997557E+02  0.86690894059E+01  0.86973699497E+02  0.00000000000E+00 0. -1.
</event>
<event>
 7    1  0.2899775E-009  0.1134662E+03  0.7561462E-02  0.1254282E+00
         -2   -1    0    0    0  501 -0.00000000000E+00  0.00000000000E+00  0.35863462202E+02  0.35863462202E+02  0.00000000000E+00 0.  1.
          2   -1    0    0  501    0  0.00000000000E+00 -0.00000000000E+00 -0.41934172764E+03  0.41934172764E+03  0.00000000000E+00 0. -1.
         25    2    1    2    0    0 -0.51989787091E+02  0.19790832928E+02 -0.24025573525E+03  0.27652105447E+03  0.12508581141E+03 0.  0.
          5    1    3    3  502    0 -0.73144310491E+02  0.45735725782E+02 -0.22189827639E+03  0.23811376322E+03  0.41800000000E+01 0. -1.
         -5    1    3    3    0  502  0.21154523400E+02 -0.25944892855E+02 -0.18357458857E+02  0.38407291251E+02  0.41800000000E+01 0. -1.
        -11    1    1    2    0    0  0.74733081981E+02 -0.31674269842E+02 -0.11002381310E+03  0.13672429323E+03  0.00000000000E+00 0. -1.
         11    1    1    2    0    0 -0.22743294890E+02  0.11883436915E+02 -0.33198717092E+02  0.41959842134E+02  0.00000000000E+00 0.  1.
</event>
<event>
 7    1  0.2899775E-009  0.1481250E+03  0.7561462E-02  0.1202796E+00
         -2   -1    0    0    0  501 -0.00000000000E+00  0.00000000000E+00  0.17659268529E+03  0.17659268529E+03  0.00000000000E+00 0.  1.
          2   -1    0    0  501    0  0.00000000000E+00 -0.00000000000E+00 -0.13906287656E+03  0.13906287656E+03  0.00000000000E+00 0. -1.
         25    2    1    2    0    0  0.83762619897E+02 -0.63101710601E+02 -0.21879600389E+02  0.16469627348E+03  0.12509253859E+03 0.  0.
          5    1    3    3  502    0  0.66052351250E+00  0.34584898216E+02 -0.67009048036E+01  0.35481347228E+02  0.41800000000E+01 0. -1.
         -5    1    3    3    0  502  0.83102096385E+02 -0.97686608816E+02 -0.15178695585E+02  0.12921492625E+03  0.41800000000E+01 0. -1.
        -11    1    1    2    0    0 -0.27691583810E+02  0.71235932281E+02  0.12588350564E+02  0.77458688549E+02  0.00000000000E+00 0. -1.
         11    1    1    2    0    0 -0.56071036087E+02 -0.81342216798E+01  0.46821058562E+02  0.73500599828E+02  0.00000000000E+00 0.  1.
</event>
<event>
 6    1  0.2899775E-009  0.8487699E+02  0.7561462E-02  0.1315755E+00
         -1   -1    0    0    0  501 -0.00000000000E+00  0.00000000000E+00  0.61203468871E+03  0.61203468871E+03  0.00000000000E+00 0.  1.
          1   -1    0    0  501    0  0.00000000000E+00 -0.00000000000E+00 -0.31830464857E+02  0.31830464857E+02  0.00000000000E+00 0. -1.
          5    1    1    2  502    0  0.40641282300E+02 -0.27561156199E+01  0.36139333270E+03  0.36370581975E+03  0.41800000000E+01 0. -1.
         -5    1    1    2    0  502  0.37227650984E+02 -0.24405234044E+02  0.26041902399E+02  0.51741342532E+02  0.41800000000E+01 0. -1.
        -11    1    1    2    0    0 -0.30129079290E+02  0.21632027038E+01  0.16510081787E+03  0.16784135643E+03  0.00000000000E+00 0.  1.
         11    1    1    2    0    0 -0.47739853994E+02  0.24998146960E+02  0.27668170882E+02  0.60576634858E+02  0.00000000000E+00 0. -1.
</event>
<event>
 7    1  0.3467067E-009  0.9730795E+02  0.7561462E-02  0.1286061E+00
         -2   -1    0    0    0  501 -0.00000000000E+00  0.00000000000E+00  0.33448815786E+02  0.33448815786E+02  0.00000000000E+00 0.  1.
          2   -1    0    0  501    0  0.00000000000E+00 -0.00000000000E+00 -0.47645578076E+03  0.47645578076E+03  0.00000000000E+00 0. -1.
         25    2    1    2    0    0 -0.12365768848E+02  0.33883869545E+02 -0.14021595272E+03  0.19133537129E+03  0.12509069531E+03 0.  0.
          5    1    3    3  502    0 -0.27157897554E+02 -0.43257615312E+02 -0.49223409313E+02  0.71057646361E+02  0.41800000000E+01 0.  1.
         -5    1    3    3    0  502  0.14792128706E+02  0.77141484856E+02 -0.90992543410E+02  0.12027772493E+03  0.41800000000E+01 0.  1.
        -11    1    1    2    0    0 -0.11750444480E+02  0.94762979524E+01 -0.39040428588E+01  0.15592136447E+02  0.00000000000E+00 0.  1.
         11    1    1    2    0    0  0.24116213328E+02 -0.43360167497E+02 -0.29888696940E+03  0.30297708881E+03  0.00000000000E+00 0. -1.
</event>
<event>
 7    1  0.2899775E-009  0.9818022E+02  0.7561462E-02  0.1284170E+00
          1   -1    0    0  501    0  0.00000000000E+00  0.00000000000E+00  0.77991281720E+02  0.77991281720E+02  0.00000000000E+00 0. -1.
         -1   -1    0    0    0  501 -0.00000000000E+00 -0.00000000000E+00 -0.16538307543E+03  0.16538307543E+03  0.00000000000E+00 0.  1.
         25    2    1    2    0    0 -0.10596796800E+02 -0.19923671168E+02 -0.24298917368E+02  0.12940991467E+03  0.12508894377E+03 0.  0.
          5    1    3    3  502    0 -0.47830189528E+02  0.35572270493E+02 -0.16546213722E+02  0.62002927728E+02  0.41800000000E+01 0. -1.
         -5    1    3    3    0  502  0.37233392728E+02 -0.55495941661E+02 -0.77527036457E+01  0.67406986943E+02  0.41800000000E+01 0. -1.
        -11    1    1    2    0    0 -0.17260354499E+01  0.43239764282E+02 -0.73759500718E+02  0.85516784082E+02  0.00000000000E+00 0.  1.
         11    1    1    2    0    0  0.12322832250E+02 -0.23316093114E+02  0.10666624375E+02  0.28447658398E+02  0.00000000000E+00 0. -1.
</event>
<event>
 7    1  0.2899775E-009  0.1256102E+03  0.7561462E-02  0.1234119E+00
          1   -1    0    0  501    0  0.00000000000E+00  0.00000000000E+00  0.37559337968E+02  0.37559337968E+02  0.00000000000E+00 0. -1.
         -1   -1    0    0    0  501 -0.00000000000E+00 -0.00000000000E+00 -0.57789374270E+03  0.57789374270E+03  0.00000000000E+00 0.  1.
         25    2    1    2    0    0 -0.61770952027E+02  0.41860774778E+02 -0.15587517561E+03  0.21333766478E+03  0.12509162187E+03 0.  0.
          5    1    3    3  502    0  0.13463550542E+02 -0.31485698026E+02 -0.68196398608E+02  0.76425372465E+02  0.41800000000E+01 0. -1.
         -5    1    3    3    0  502 -0.75234502568E+02  0.73346472804E+02 -0.87678777006E+02  0.13691229231E+03  0.41800000000E+01 0. -1.
        -11    1    1    2    0    0  0.20771842437E+02 -0.62361296901E+02 -0.28676743737E+03  0.29420394954E+03  0.00000000000E+00 0.  1.
         11    1    1    2    0    0  0.40999109590E+02  0.20500522123E+02 -0.97691791742E+02  0.10791146634E+03  0.00000000000E+00 0. -1.
</event>
<event>
 7    1  0.2899775E-009  0.1775768E+03  0.7561462E-02  0.1170169E+00
          2   -1    0    0  501    0  0.00000000000E+00  0.00000000000E+00  0.20425550027E+03  0.20425550027E+03  0.00000000000E+00 0. -1.
         -2   -1    0    0    0  501 -0.00000000000E+00 -0.00000000000E+00 -0.21141379416E+03  0.21141379416E+03  0.00000000000E+00 0.  1.
         25    2    1    2    0    0  0.14452276111E+03 -0.36245131755E+02  0.10322819640E+03  0.22022005807E+03  0.12506108664E+03 0.  0.
          5    1    3    3  502    0  0.85866595386E+01  0.38101169152E+02  0.16444604099E+02  0.42583179975E+02  0.41800000000E+01 0.  1.
         -5    1    3    3    0  502  0.13593610157E+03 -0.74346300907E+02  0.86783592299E+02  0.17763687810E+03  0.41800000000E+01 0.  1.
        -11    1    1    2    0    0 -0.12088564256E+03  0.52910028278E+02 -0.95742275242E+02  0.16303187706E+03  0.00000000000E+00 0.  1.
         11    1    1    2    0    0 -0.23637118547E+02 -0.16664896523E+02 -0.14644215040E+02  0.32417359292E+02  0.00000000000E+00 0. -1.
</event>
<event>
 7    1  0.2899775E-009  0.2235996E+03  0.7561462E-02  0.1131228E+00
          1   -1    0    0  501    0  0.00000000000E+00  0.00000000000E+00  0.43503336353E+03  0.43503336353E+03  0.00000000000E+00 0. -1.
         -1   -1    0    0    0  501 -0.00000000000E+00 -0.00000000000E+00 -0.15691973624E+03  0.15691973624E+03  0.00000000000E+00 0.  1.
         25    2    1    2    0    0  0.12073742102E+03  0.16706512338E+03  0.27541336105E+03  0.36604548927E+03  0.12509396662E+03 0.  0.
          5    1    3    3  502    0  0.28169658957E+02 -0.97844337461E+01  0.84889489948E+02  0.90071986395E+02  0.41800000000E+01 0. -1.
         -5    1    3    3    0  502  0.92567762067E+02  0.17684955712E+03  0.19052387110E+03  0.27597350287E+03  0.41800000000E+01 0. -1.
        -11    1    1    2    0    0 -0.64166908169E+02 -0.14146782024E+03  0.29777276414E+02  0.15816833583E+03  0.00000000000E+00 0. -1.
         11    1    1    2    0    0 -0.56570512855E+02 -0.25597303132E+02 -0.27077010177E+02  0.67739274668E+02  0.00000000000E+00 0.  1.
</event>
<event>
 6    1  0.2899775E-009  0.1470313E+03  0.7561462E-02  0.1204169E+00
          1   -1    0    0  501    0  0.00000000000E+00  0.00000000000E+00  0.11409845908E+03  0.11409845908E+03  0.00000000000E+00 0.  1.
         -1   -1    0    0    0  501 -0.00000000000E+00 -0.00000000000E+00 -0.21589952600E+03  0.21589952600E+03  0.00000000000E+00 0. -1.
          5    1    1    2  502    0  0.92161991275E+01  0.27941672796E+02 -0.69399032029E+01  0.30517373109E+02  0.41800000000E+01 0. -1.
         -5    1    1    2    0  502 -0.85886797345E+02 -0.10534155152E+03 -0.83481538576E+01  0.13623710401E+03  0.41800000000E+01 0. -1.
        -11    1    1    2    0    0  0.35684373595E+01  0.50259554959E+02 -0.65210189876E+02  0.82408285224E+02  0.00000000000E+00 0. -1.
         11    1    1    2    0    0  0.73102160858E+02  0.27140323765E+02 -0.21302819980E+02  0.80835222739E+02  0.00000000000E+00 0.  1.
</event>
<event>
 7    1  0.2899775E-009  0.7567170E+02  0.7561462E-02  0.1341804E+00
          1   -1    0    0  501    0  0.00000000000E+00  0.00000000000E+00  0.27374345815E+03  0.27374345815E+03  0.00000000000E+00 0. -1.
         -1   -1    0    0    0  501 -0.00000000000E+00 -0.00000000000E+00 -0.42099254234E+02  0.42099254234E+02  0.00000000000E+00 0.  1.
         25    2    1    2    0    0  0.14590836414E+02  0.25499901624E+02  0.22769145539E+03  0.26144633580E+03  0.12509056780E+03 0.  0.
          5    1    3    3  502    0  0.10944718976E+02 -0.35696181253E+02  0.17940637934E+03  0.18329791482E+03  0.41800000000E+01 0.  1.
         -5    1    3    3    0  502  0.36461174372E+01  0.61196082877E+02  0.48285076052E+02  0.78148420977E+02  0.41800000000E+01 0.  1.
        -11    1    1    2    0    0  0.15492951762E+02 -0.10456632029E+02 -0.54530245566E+01  0.19470700668E+02  0.00000000000E+00 0.  1.
         11    1    1    2    0    0 -0.30083788176E+02 -0.15043269595E+02  0.94057730796E+01  0.34925675918E+02  0.00000000000E+00 0. -1.
</event>
<event>
 7    1  0.2899775E-009  0.8392497E+02  0.7561462E-02  0.1318268E+00
          2   -1    0    0  501    0  0.00000000000E+00  0.00000000000E+00  0.72980773625E+03  0.72980773625E+03  0.00000000000E+00 0.  1.
         -2   -1    0    0    0  501 -0.00000000000E+00 -0.00000000000E+00 -0.20725314412E+02  0.20725314412E+02  0.00000000000E+00 0. -1.
         25    2    1    2    0    0 -0.56691184086E+02 -0.28952366035E+01  0.44347355411E+03  0.46426056947E+03  0.12508721126E+03 0.  0.
          5    1    3    3  502    0 -0.22714058448E+02  0.96705216252E+01  0.42031863210E+03  0.42106373903E+03  0.41800000000E+01 0. -1.
         -5    1    3    3    0  502 -0.33977125638E+02 -0.12565758229E+02  0.23154922014E+02  0.43196830439E+02  0.41800000000E+01 0. -1.
        -11    1    1    2    0    0  0.59890012849E+02 -0.34297129776E+02  0.15959459624E+03  0.17387795116E+03  0.00000000000E+00 0. -1.
         11    1    1    2    0    0 -0.31988287629E+01  0.37192366379E+02  0.10601427149E+03  0.11239453003E+03  0.00000000000E+00 0.  1.
</event>
<event>
 7    1  0.2899775E-009  0.9834324E+02  0.7561462E-02  0.1283819E+00
          2   -1    0    0  501    0  0.00000000000E+00  0.00000000000E+00  0.14748162253E+03  0.14748162253E+03  0.00000000000E+00 0. -1.
         -2   -1    0    0    0  501 -0.00000000000E+00 -0.00000000000E+00 -0.11690645255E+03  0.11690645255E+03  0.00000000000E+00 0.  1.
         25    2    1    2    0    0 -0.41652740199E+02 -0.38896738785E+02  0.63120034130E+02  0.15125951078E+03  0.12508954328E+03 0.  0.
          5    1    3    3  502    0  0.20631082865E+02  0.28464103354E+02 -0.65273792825E+01  0.35998969988E+02  0.41800000000E+01 0.  1.
         -5    1    3    3    0  502 -0.62283823063E+02 -0.67360842139E+02  0.69647413412E+02  0.11526054079E+03  0.41800000000E+01 0.  1.
        -11    1    1    2    0    0  0.32016389401E+02  0.46991100800E+02 -0.60160953160E+02  0.82780148766E+02  0.00000000000E+00 0.  1.
         11    1    1    2    0    0  0.96363507979E+01 -0.80943620145E+01  0.27616089006E+02  0.30348415529E+02  0.00000000000E+00 0. -1.
</event>
<event>
 7    1  0.2899775E-009  0.1016513E+03  0.7561462E-02  0.1276861E+00
          2   -1    0    0  501    0  0.00000000000E+00  0.00000000000E+00  0.10912263311E+03  0.10912263311E+03  0.00000000000E+00 0. -1.
         -2   -1    0    0    0  501 -0.00000000000E+00 -0.00000000000E+00 -0.19700144394E+03  0.19700144394E+03  0.00000000000E+00 0.  1.
         25    2    1    2    0    0 -0.20786260987E+02 -0.19168237161E+02  0.50668529817E+02  0.13789431896E+03  0.12509217932E+03 0.  0.
          5    1    3    3  502    0 -0.26644252166E+02  0.50929822860E+02  0.19470018030E+02  0.60830231235E+02  0.41800000000E+01 0.  1.
         -5    1    3    3    0  502  0.58579911789E+01 -0.70098060021E+02  0.31198511787E+02  0.77064087726E+02  0.41800000000E+01 0.  1.
        -11    1    1    2    0    0  0.34047420799E+02 -0.16000745328E+02 -0.12106774768E+03  0.12677795646E+03  0.00000000000E+00 0.  1.
         11    1    1    2    0    0 -0.13261159813E+02  0.35168982488E+02 -0.17479592963E+02  0.41451801637E+02  0.00000000000E+00 0. -1.
</event>
<event>
 7    1  0.2899775E-009  0.1610700E+03  0.7561462E-02  0.1187494E+00
          2   -1    0    0  501    0  0.00000000000E+00  0.00000000000E+00  0.97286356839E+03  0.97286356839E+03  0.00000000000E+00 0. -1.
         -2   -1    0    0    0  501 -0.00000000000E+00 -0.00000000000E+00 -0.34134663639E+02  0.34134663639E+02  0.00000000000E+00 0.  1.
         25    2    1    2    0    0  0.12305425314E+03 -0.44559689669E+02  0.67519417431E+03  0.69904466151E+03  0.12509336752E+03 0.  0.
          5    1    3    3  502    0  0.39801442540E+02  0.43947690930E+02  0.22677942161E+03  0.23443961447E+03  0.41800000000E+01 0. -1.
         -5    1    3    3    0  502  0.83252810601E+02 -0.88507380600E+02  0.44841475270E+03  0.46460504704E+03  0.41800000000E+01 0. -1.
        -11    1    1    2    0    0 -0.33161609703E+01  0.18218738695E+02  0.14069912757E+01  0.18571456261E+02  0.00000000000E+00 0.  1.
         11    1    1    2    0    0 -0.11973809217E+03  0.26340950975E+02  0.26212773917E+03  0.28938211426E+03  0.00000000000E+00 0. -1.
</event>
<event>
 7    1  0.2899775E-009  0.2236611E+03  0.7561462E-02  0.1131183E+00
          1   -1    0    0  501    0  0.00000000000E+00  0.00000000000E+00  0.32739994004E+03  0.32739994004E+03  0.00000000000E+00 0. -1.
         -1   -1    0    0    0  501 -0.00000000000E+00 -0.00000000000E+00 -0.21903667330E+03  0.21903667330E+03  0.00000000000E+00 0.  1.
         25    2    1    2    0    0  0.22309105798E+03 -0.42352212477E+01 -0.52725649986E+02  0.26117884040E+03  0.12508731054E+03 0.  0.
          5    1    3    3  502    0  0.11378692626E+03 -0.10270907315E+02  0.36370494719E+02  0.11997183591E+03  0.41800000000E+01 0.  1.
         -5    1    3    3    0  502  0.10930413172E+03  0.60356860675E+01 -0.89096144706E+02  0.14120700450E+03  0.41800000000E+01 0.  1.
        -11    1    1    2    0    0 -0.16066300684E+03  0.83702644145E+01  0.71666306584E+02  0.17612132918E+03  0.00000000000E+00 0. -1.
         11    1    1    2    0    0 -0.62428051140E+02 -0.41350431668E+01  0.89422610139E+02  0.10913644375E+03  0.00000000000E+00 0.  1.
</event>
<event>
 7    1  0.2899775E-009  0.1115133E+03  0.7561462E-02  0.1257793E+00
         -2   -1    0    0    0  501 -0.00000000000E+00  0.00000000000E+00  0.51203776801E+02  0.51203776801E+02  0.00000000000E+00 0.  1.
          2   -1    0    0  501    0  0.00000000000E+00 -0.00000000000E+00 -0.40984878248E+03  0.40984878248E+03  0.00000000000E+00 0. -1.
         25    2    1    2    0    0  0.69653970876E+01  0.88965873174E+02 -0.23790477685E+03  0.28321229084E+03  0.12508827080E+03 0.  0.
          5    1    3    3  502    0 -0.34907129412E+02  0.77006609337E+01 -0.15697094149E+03  0.16104395901E+03  0.41800000000E+01 0. -1.
         -5    1    3    3    0  502  0.41872526500E+02  0.81265212240E+02 -0.80933835356E+02  0.12216833183E+03  0.41800000000E+01 0. -1.
        -11    1    1    2    0    0  0.13425184070E+02 -0.46761860694E+02 -0.12158886315E+03  0.13096090571E+03  0.00000000000E+00 0. -1.
         11    1    1    2    0    0 -0.20390581158E+02 -0.42204012480E+02  0.84863431899E+00  0.46879362726E+02  0.00000000000E+00 0.  1.
</event>
<event>
 7    1  0.2899775E-009  0.9970593E+02  0.7561462E-02  0.1280916E+00
          1   -1    0    0  501    0  0.00000000000E+00  0.00000000000E+00  0.29673205936E+03  0.29673205936E+03  0.00000000000E+00 0. -1.
         -1   -1    0    0    0  501 -0.00000000000E+00 -0.00000000000E+00 -0.15825464359E+03  0.15825464359E+03  0.00000000000E+00 0.  1.
         25    2    1    2    0    0 -0.40934301338E+02  0.44474107625E+02 -0.11758073312E+03  0.18200375362E+03  0.12508626726E+03 0.  0.
          5    1    3    3  502    0  0.74203648177E+01 -0.35920237199E+02 -0.81545302497E+01  0.37806005053E+02  0.41800000000E+01 0.  1.
         -5    1    3    3    0  502 -0.48354666156E+02  0.80394344824E+02 -0.10942620287E+03  0.14419774857E+03  0.41800000000E+01 0.  1.
        -11    1    1    2    0    0  0.12760589561E+02  0.32491748912E+01  0.24543806768E+01  0.13394542467E+02  0.00000000000E+00 0.  1.
         11    1    1    2    0    0  0.28173711778E+02 -0.47723282516E+02  0.25360376820E+03  0.25958840686E+03  0.00000000000E+00 0. -1.
</event>
<event>
 7    1  0.2899775E-009  0.1508828E+03  0.7561462E-02  0.1199392E+00
         -1   -1    0    0    0  501 -0.00000000000E+00  0.00000000000E+00  0.52672807779E+02  0.52672807779E+02  0.00000000000E+00 0.  1.
          1   -1    0    0  501    0  0.00000000000E+00 -0.00000000000E+00 -0.50089789633E+03  0.50089789633E+03  0.00000000000E+00 0. -1.
         25    2    1    2    0    0 -0.11922788217E+03 -0.12386699299E+02 -0.24966521125E+03  0.30388492842E+03  0.12507843063E+03 0.  0.
          5    1    3    3  502    0 -0.70301106004E+02  0.48587488768E+02 -0.80474599443E+02  0.11745902743E+03  0.41800000000E+01 0.  1.
         -5    1    3    3    0  502 -0.48926776170E+02 -0.60974188067E+02 -0.16919061180E+03  0.18642590099E+03  0.41800000000E+01 0.  1.
        -11    1    1    2    0    0  0.74725568388E+02 -0.26027205765E+02 -0.60425551386E+02  0.99561906727E+02  0.00000000000E+00 0.  1.
         11    1    1    2    0    0  0.44502313786E+02  0.38413905064E+02 -0.13813432592E+03  0.15012386896E+03  0.00000000000E+00 0. -1.
</event>
<event>
 7    1  0.2899775E-009  0.1156585E+03  0.7561462E-02  0.1250436E+00
          2   -1    0    0  501    0  0.00000000000E+00  0.00000000000E+00  0.34805477075E+03  0.34805477075E+03  0.00000000000E+00 0. -1.
         -2   -1    0    0    0  501 -0.00000000000E+00 -0.00000000000E+00 -0.52672234995E+02  0.52672234995E+02  0.00000000000E+00 0.  1.
         25    2    1    2    0    0 -0.37144474440E+02 -0.51636982305E+02  0.23717492185E+03  0.27558261678E+03  0.12509094769E+03 0.  0.
          5    1    3    3  502    0 -0.41653775849E+02  0.33538726251E+02  0.11020146466E+03  0.12256312012E+03  0.41800000000E+01 0. -1.
         -5    1    3    3    0  502  0.45093014090E+01 -0.85175708556E+02  0.12697345719E+03  0.15301949666E+03  0.41800000000E+01 0. -1.
        -11    1    1    2    0    0  0.34733263416E+02 -0.54349200988E+01  0.58232257987E+02  0.68021568743E+02  0.00000000000E+00 0. -1.
         11    1    1    2    0    0  0.24112110240E+01  0.57071902404E+02 -0.24644080349E-01  0.57122820220E+02  0.00000000000E+00 0.  1.
</event>
<event>
 7    1  0.2899775E-009  0.1068715E+03  0.7561462E-02  0.1266475E+00
         -1   -1    0    0    0  501 -0.00000000000E+00  0.00000000000E+00  0.46769555644E+02  0.46769555644E+02  0.00000000000E+00 0.  1.
          1   -1    0    0  501    0  0.00000000000E+00 -0.00000000000E+00 -0.26401108062E+03  0.26401108062E+03  0.00000000000E+00 0. -1.
         25    2    1    2    0    0 -0.28292361387E+02  0.18026306455E+02 -0.12710008752E+03  0.18145587127E+03  0.12508555287E+03 0.  0.
          5    1    3    3  502    0 -0.71461340978E+02 -0.17201290090E+02 -0.71152867647E+02  0.10238559767E+03  0.41800000000E+01 0. -1.
         -5    1    3    3    0  502  0.43168979591E+02  0.35227596545E+02 -0.55947219869E+02  0.79070273607E+02  0.41800000000E+01 0. -1.
        -11    1    1    2    0    0 -0.85371618626E+01 -0.40307688608E+02 -0.17239129148E+02  0.44662965277E+02  0.00000000000E+00 0.  1.
         11    1    1    2    0    0  0.36829523250E+02  0.22281382153E+02 -0.72902308317E+02  0.84661799717E+02  0.00000000000E+00 0. -1.
</event>
<event>
 7    1  0.2899775E-009  0.1191300E+03  0.7561462E-02  0.1244539E+00
          3   -1    0    0  501    0  0.00000000000E+00  0.00000000000E+00  0.42647457360E+02  0.42647457360E+02  0.00000000000E+00 0. -1.
         -3   -1    0    0    0  501 -0.00000000000E+00 -0.00000000000E+00 -0.38873730394E+03  0.38873730394E+03  0.00000000000E+00 0.  1.
         25    2    1    2    0    0 -0.56513569788E+02  0.20839049553E+02 -0.25074728653E+03  0.28661627755E+03  0.12508652726E+03 0.  0.
          5    1    3    3  502    0 -0.29809870669E+02 -0.47285010906E+02 -0.59201190184E+02  0.81527627004E+02  0.41800000000E+01 0.  1.
         -5    1    3    3    0  502 -0.26703699120E+02  0.68124060459E+02 -0.19154609634E+03  0.20508865055E+03  0.41800000000E+01 0.  1.
        -11    1    1    2    0    0  0.34138194326E+02 -0.56971662170E+02 -0.59572612449E+02  0.89219295874E+02  0.00000000000E+00 0. -1.
         11    1    1    2    0    0  0.22375375463E+02  0.36132612617E+02 -0.35769947603E+02  0.55549187871E+02  0.00000000000E+00 0.  1.
</event>
<event>
 7    1  0.2899775E-009  0.7301591E+02  0.7561462E-02  0.1350128E+00
         -2   -1    0    0    0  501 -0.00000000000E+00  0.00000000000E+00  0.75786662312E+02  0.75786662312E+02  0.00000000000E+00 0.  1.
          2   -1    0    0  501    0  0.00000000000E+00 -0.00000000000E+00 -0.16507382207E+03  0.16507382207E+03  0.00000000000E+00 0. -1.
         25    2    1    2    0    0 -0.73880024394E+01 -0.19743471406E+01 -0.55510307466E+02  0.13706097586E+03  0.12508331720E+03 0.  0.
          5    1    3    3  502    0 -0.37470168091E+02 -0.50895180354E+02 -0.11011828422E+02  0.64288923193E+02  0.41800000000E+01 0.  1.
         -5    1    3    3    0  502  0.30082165652E+02  0.48920833214E+02 -0.44498479044E+02  0.72772052670E+02  0.41800000000E+01 0.  1.
        -11    1    1    2    0    0  0.20398456882E+01 -0.10942496454E+02 -0.66914263639E+02  0.67833751757E+02  0.00000000000E+00 0. -1.
         11    1    1    2    0    0  0.53481567512E+01  0.12916843594E+02  0.33137411344E+02  0.35965756765E+02  0.00000000000E+00 0.  1.
</event>
<event>
 7    1  0.2899775E-009  0.1368737E+03  0.7561462E-02  0.1217599E+00
         -2   -1    0    0    0  501 -0.00000000000E+00  0.00000000000E+00  0.11975961756E+03  0.11975961756E+03  0.00000000000E+00 0.  1.
          2   -1    0    0  501    0  0.00000000000E+00 -0.00000000000E+00 -0.20683891089E+03  0.20683891089E+03  0.00000000000E+00 0. -1.
         25    2    1    2    0    0 -0.58905419269E+02  0.77435384876E+02 -0.10887434911E+03  0.19227114859E+03  0.12509389847E+03 0.  0.
          5    1    3    3  502    0 -0.20726753227E+00 -0.24472723636E+02 -0.59838762569E+02  0.64785083683E+02  0.41800000000E+01 0.  1.
         -5    1    3    3    0  502 -0.58698151737E+02  0.10190810851E+03 -0.49035586540E+02  0.12748606491E+03  0.41800000000E+01 0.  1.
        -11    1    1    2    0    0 -0.60216513556E+01  0.16208314727E+02  0.94653344193E+01  0.19711983842E+02  0.00000000000E+00 0.  1.
         11    1    1    2    0    0  0.64927070625E+02 -0.93643699603E+02  0.12329721353E+02  0.11461539602E+03  0.00000000000E+00 0. -1.
</event>
<event>
 7    1  0.2899775E-009  0.1793537E+03  0.7561462E-02  0.1168430E+00
          1   -1    0    0  501    0  0.00000000000E+00  0.00000000000E+00  0.91782264467E+03  0.91782264467E+03  0.00000000000E+00 0. -1.
         -1   -1    0    0    0  501 -0.00000000000E+00 -0.00000000000E+00 -0.38956055330E+02  0.38956055330E+02  0.00000000000E+00 0.  1.
         25    2    1    2    0    0 -0.14505182646E+03  0.28689722830E+02  0.34753045408E+03  0.39785683131E+03  0.12509799817E+03 0.  0.
          5    1    3    3  502    0 -0.15397317163E+03 -0.35738318311E+01  0.31655629728E+03  0.35205947168E+03  0.41800000000E+01 0.  1.
         -5    1    3    3    0  502  0.89213451611E+01  0.32263554661E+02  0.30974156804E+02  0.45797359625E+02  0.41800000000E+01 0.  1.
        -11    1    1    2    0    0  0.29217760117E+01 -0.28622912902E+02  0.58605131997E+02  0.65286824203E+02  0.00000000000E+00 0. -1.
         11    1    1    2    0    0  0.14213005045E+03 -0.66809928495E-01  0.47273100326E+03  0.49363504449E+03  0.00000000000E+00 0.  1.
</event>
<event>
 7    1  0.2899775E-009  0.1011940E+03  0.7561462E-02  0.1277805E+00
         -3   -1    0    0    0  501 -0.00000000000E+00  0.00000000000E+00  0.63462218581E+02  0.63462218581E+02  0.00000000000E+00 0.  1.
          3   -1    0    0  501    0  0.00000000000E+00 -0.00000000000E+00 -0.19863853594E+03  0.19863853594E+03  0.00000000000E+00 0. -1.
         25    2    1    2    0    0 -0.19176497005E+02  0.77363665415E+01 -0.52192577676E+02  0.13711054292E+03  0.12509055284E+03 0.  0.
          5    1    3    3  502    0  0.44177429152E+02 -0.38748943156E+01 -0.57054126998E+02  0.72383049535E+02  0.41800000000E+01 0. -1.
         -5    1    3    3    0  502 -0.63353926157E+02  0.11611260857E+02  0.48615493216E+01  0.64727493386E+02  0.41800000000E+01 0. -1.
        -11    1    1    2    0    0 -0.34795134632E+02 -0.16689143842E+02 -0.30657417806E+02  0.49285963344E+02  0.00000000000E+00 0. -1.
         11    1    1    2    0    0  0.53971631636E+02  0.89527773006E+01 -0.52326321872E+02  0.75704248253E+02  0.00000000000E+00 0.  1.
</event>
<event>
 7    1  0.2899775E-009  0.1927124E+03  0.7561462E-02  0.1156037E+00
          1   -1    0    0  501    0  0.00000000000E+00  0.00000000000E+00  0.23498215038E+03  0.23498215038E+03  0.00000000000E+00 0. -1.
         -1   -1    0    0    0  501 -0.00000000000E+00 -0.00000000000E+00 -0.26312492942E+03  0.26312492942E+03  0.00000000000E+00 0.  1.
         25    2    1    2    0    0  0.46488806017E+02  0.16743788327E+03 -0.15496932924E+03  0.26431214651E+03  0.12509501967E+03 0.  0.
          5    1    3    3  502    0 -0.18703992160E+02  0.64466586587E+02 -0.17683956890E+00  0.67255362471E+02  0.41800000000E+01 0. -1.
         -5    1    3    3    0  502  0.65192798177E+02  0.10297129669E+03 -0.15479248967E+03  0.19705678404E+03  0.41800000000E+01 0. -1.
        -11    1    1    2    0    0 -0.59023743186E+02 -0.47854835566E+02  0.44248782761E+02  0.87930895154E+02  0.00000000000E+00 0.  1.
         11    1    1    2    0    0  0.12534937169E+02 -0.11958304771E+03  0.82577767441E+02  0.14586403815E+03  0.00000000000E+00 0. -1.
</event>
<event>
 7    1  0.2899775E-009  0.1039383E+03  0.7561462E-02  0.1272226E+00
         -1   -1    0    0    0  501 -0.00000000000E+00  0.00000000000E+00  0.81538652470E+03  0.81538652470E+03  0.00000000000E+00 0.  1.
          1   -1    0    0  501    0  0.00000000000E+00 -0.00000000000E+00 -0.16327081107E+02  0.16327081107E+02  0.00000000000E+00 0. -1.
         25    2    1    2    0    0  0.38603584074E+02  0.41956677069E+01  0.49852361103E+03  0.51544228077E+03  0.12508842363E+03 0.  0.
          5    1    3    3  502    0 -0.31680896558E+02  0.20569023083E+02  0.60156865868E+02  0.71155356990E+02  0.41800000000E+01 0. -1.
         -5    1    3    3    0  502  0.70284480632E+02 -0.16373355376E+02  0.43836674516E+03  0.44428692378E+03  0.41800000000E+01 0. -1.
        -11    1    1    2    0    0 -0.45513172133E+02 -0.40321650724E+02  0.20760754026E+03  0.21632885875E+03  0.00000000000E+00 0.  1.
         11    1    1    2    0    0  0.69095880587E+01  0.36125983017E+02  0.92928292306E+02  0.99942466284E+02  0.00000000000E+00 0. -1.
</event>
<event>
 7    1  0.2899775E-009  0.1246752E+03  0.7561462E-02  0.1235578E+00
          2   -1    0    0  501    0  0.00000000000E+00  0.00000000000E+00  0.11053000311E+03  0.11053000311E+03  0.00000000000E+00 0. -1.
         -2   -1    0    0    0  501 -0.00000000000E+00 -0.00000000000E+00 -0.21390059926E+03  0.21390059926E+03  0.00000000000E+00 0.  1.
         25    2    1    2    0    0  0.11220774757E+02  0.71417955343E+02 -0.14077798142E+03  0.20172441462E+03  0.12509144364E+03 0.  0.
          5    1    3    3  502    0 -0.45385247805E+02  0.41298206968E+01 -0.87720722328E+02  0.98940758351E+02  0.41800000000E+01 0.  1.
         -5    1    3    3    0  502  0.56606022562E+02  0.67288134646E+02 -0.53057259091E+02  0.10278365627E+03  0.41800000000E+01 0.  1.
        -11    1    1    2    0    0 -0.21874459356E+02 -0.90822078284E+02  0.37242629846E+02  0.10056915707E+03  0.00000000000E+00 0. -1.
         11    1    1    2    0    0  0.10653684599E+02  0.19404122941E+02  0.16475542402E+00  0.22137030673E+02  0.00000000000E+00 0.  1.
</event>
<event>
 7    1  0.3724971E-009  0.8928870E+02  0.7561462E-02  0.1304583E+00
          2   -1    0    0  501    0  0.00000000000E+00  0.00000000000E+00  0.34815381017E+03  0.34815381017E+03  0.00000000000E+00 0. -1.
         -2   -1    0    0    0  501 -0.00000000000E+00 -0.00000000000E+00 -0.61498596943E+02  0.61498596943E+02  0.00000000000E+00 0.  1.
         25    2    1    2    0    0 -0.76308471965E+02  0.22982281429E+02  0.23482666834E+03  0.27774474560E+03  0.12508961343E+03 0.  0.
          5    1    3    3  502    0 -0.97997220101E+01 -0.16445317830E+02 -0.92588730692E+01  0.21672151728E+02  0.41800000000E+01 0. -1.
         -5    1    3    3    0  502 -0.66508749955E+02  0.39427599259E+02  0.24408554141E+03  0.25607259387E+03  0.41800000000E+01 0. -1.
        -11    1    1    2    0    0  0.48594625099E+02 -0.57880752995E+01  0.76637458378E+02  0.90929859952E+02  0.00000000000E+00 0. -1.
         11    1    1    2    0    0  0.27713846865E+02 -0.17194206129E+02 -0.24808913492E+02  0.40977801566E+02  0.00000000000E+00 0.  1.
</event>
<event>
 7    1  0.2899775E-009  0.3471077E+03  0.7561462E-02  0.1063808E+00
         -2   -1    0    0    0  501 -0.00000000000E+00  0.00000000000E+00  0.82777401618E+02  0.82777401618E+02  0.00000000000E+00 0.  1.
          2   -1    0    0  501    0  0.00000000000E+00 -0.00000000000E+00 -0.16560866929E+04  0.16560866929E+04  0.00000000000E+00 0. -1.
         25    2    1    2    0    0 -0.30740261124E+03  0.14148705322E+03 -0.10431421267E+04  0.11037699288E+04  0.12509039815E+03 0.  0.
          5    1    3    3  502    0 -0.38692866129E+02 -0.18314518581E+02 -0.75800365037E+02  0.87153469350E+02  0.41800000000E+01 0.  1.
         -5    1    3    3    0  502 -0.26870974511E+03  0.15980157180E+03 -0.96734176162E+03  0.10166164595E+04  0.41800000000E+01 0.  1.
        -11    1    1    2    0    0  0.24430393281E+03 -0.11671043000E+03 -0.34933588290E+03  0.44197431502E+03  0.00000000000E+00 0. -1.
         11    1    1    2    0    0  0.63098678431E+02 -0.24776623219E+02 -0.18083128170E+03  0.19311985066E+03  0.00000000000E+00 0.  1.
</event>
<event>
 7    1  0.2899775E-009  0.9465767E+02  0.7561462E-02  0.1291949E+00
         -1   -1    0    0    0  501 -0.00000000000E+00  0.00000000000E+00  0.22904825438E+02  0.22904825438E+02  0.00000000000E+00 0.  1.
          1   -1    0    0  501    0  0.00000000000E+00 -0.00000000000E+00 -0.61421059392E+03  0.61421059392E+03  0.00000000000E+00 0. -1.
         25    2    1    2    0    0 -0.12475810133E+01  0.35894875206E+02 -0.24555460603E+03  0.27791110411E+03  0.12509004247E+03 0.  0.
          5    1    3    3  502    0  0.35896987399E+02 -0.59399927028E+01 -0.13280481788E+02  0.38957936472E+02  0.41800000000E+01 0. -1.
         -5    1    3    3    0  502 -0.37144568412E+02  0.41834867909E+02 -0.23227412424E+03  0.23895316764E+03  0.41800000000E+01 0. -1.
        -11    1    1    2    0    0 -0.28957051453E+02  0.18506464745E+02 -0.10187421599E+03  0.10751444530E+03  0.00000000000E+00 0. -1.
         11    1    1    2    0    0  0.30204632466E+02 -0.54401339952E+02 -0.24387694647E+03  0.25168986994E+03  0.00000000000E+00 0.  1.
</event>
<event>
 7    1  0.2899775E-009  0.1089169E+03  0.7561462E-02  0.1262589E+00
         -1   -1    0    0    0  501 -0.00000000000E+00  0.00000000000E+00  0.34044125722E+03  0.34044125722E+03  0.00000000000E+00 0.  1.
          1   -1    0    0  501    0  0.00000000000E+00 -0.00000000000E+00 -0.43172593101E+02  0.43172593101E+02  0.00000000000E+00 0. -1.
         25    2    1    2    0    0  0.20137895551E+02 -0.53161744548E+02  0.14258366631E+03  0.19801245642E+03  0.12508846900E+03 0.  0.
          5    1    3    3  502    0 -0.48301090449E+02 -0.10920824683E+01  0.33020753748E+02  0.58668821028E+02  0.41800000000E+01 0. -1.
         -5    1    3    3    0  502  0.68438986000E+02 -0.52069662080E+02  0.10956291257E+03  0.13934363539E+03  0.41800000000E+01 0. -1.
        -11    1    1    2    0    0 -0.21109586862E+02 -0.76281773554E+01  0.35869903213E+01  0.22730381581E+02  0.00000000000E+00 0. -1.
         11    1    1    2    0    0  0.97169131135E+00  0.60789921904E+02  0.15109800748E+03  0.16287101232E+03  0.00000000000E+00 0.  1.
</event>
<event>
 7    1  0.2899775E-009  0.1321464E+03  0.7561462E-02  0.1224305E+00
         -1   -1    0    0    0  501 -0.00000000000E+00  0.00000000000E+00  0.30291047175E+02  0.30291047175E+02  0.00000000000E+00 0.  1.
          1   -1    0    0  501    0  0.00000000000E+00 -0.00000000000E+00 -0.67946109833E+03  0.67946109833E+03  0.00000000000E+00 0. -1.
         25    2    1    2    0    0  0.92147645964E+02  0.15996141622E+02 -0.39606736864E+03  0.42575099997E+03  0.12508992075E+03 0.  0.
          5    1    3    3  502    0  0.10305060558E+03  0.49075356599E+02 -0.34786112599E+03  0.36613201623E+03  0.41800000000E+01 0.  1.
         -5    1    3    3    0  502 -0.10902959613E+02 -0.33079214977E+02 -0.48206242646E+02  0.59618983737E+02  0.41800000000E+01 0.  1.
        -11    1    1    2    0    0 -0.74712144631E+02 -0.40453558996E+02 -0.11682279626E+03  0.14445054765E+03  0.00000000000E+00 0.  1.
         11    1    1    2    0    0 -0.17435501333E+02  0.24457417375E+02 -0.13627988625E+03  0.13955059788E+03  0.00000000000E+00 0. -1.
</event>
<event>
 7    1  0.2899775E-009  0.6724822E+02  0.7561462E-02  0.1369709E+00
         -2   -1    0    0    0  501 -0.00000000000E+00  0.00000000000E+00  0.10466133338E+02  0.10466133338E+02  0.00000000000E+00 0.  1.
          2   -1    0    0  501    0  0.00000000000E+00 -0.00000000000E+00 -0.13783112622E+04  0.13783112622E+04  0.00000000000E+00 0. -1.
         25    2    1    2    0    0 -0.27365175031E+02  0.12372910519E+02 -0.99548678631E+03  0.10037646385E+04  0.12509023134E+03 0.  0.
          5    1    3    3  502    0 -0.35726533419E+01  0.19410813613E+02 -0.96027524142E+03  0.96048714475E+03  0.41800000000E+01 0. -1.
         -5    1    3    3    0  502 -0.23792521689E+02 -0.70379030940E+01 -0.35211544890E+02  0.43277493710E+02  0.41800000000E+01 0. -1.
        -11    1    1    2    0    0  0.91250410489E+01 -0.48147363885E+02 -0.28067793490E+03  0.28492374096E+03  0.00000000000E+00 0. -1.
         11    1    1    2    0    0  0.18240133982E+02  0.35774453366E+02 -0.91680407674E+02  0.10008901614E+03  0.00000000000E+00 0.  1.
</event>
<event>
 7    1  0.2899775E-009  0.1078406E+03  0.7561462E-02  0.1264622E+00
         -1   -1    0    0    0  501 -0.00000000000E+00  0.00000000000E+00  0.21016421977E+02  0.21016421977E+02  0.00000000000E+00 0.  1.
          1   -1    0    0  501    0  0.00000000000E+00 -0.00000000000E+00 -0.10695702714E+04  0.10695702714E+04  0.00000000000E+00 0. -1.
         25    2    1    2    0    0  0.10443832881E+02 -0.50527230490E+02 -0.88860041252E+03  0.89884622767E+03  0.12510704695E+03 0.  0.
          5    1    3    3  502    0 -0.17729038242E+02  0.31675544448E+02 -0.46333087535E+03  0.46476943893E+03  0.41800000000E+01 0.  1.
         -5    1    3    3    0  502  0.28172871122E+02 -0.82202774937E+02 -0.42526953717E+03  0.43407678874E+03  0.41800000000E+01 0.  1.
        -11    1    1    2    0    0 -0.43120809447E+02  0.20415974902E+02 -0.35142178037E+02  0.59255285973E+02  0.00000000000E+00 0.  1.
         11    1    1    2    0    0  0.32676976566E+02  0.30111255588E+02 -0.12481125891E+03  0.13248517978E+03  0.00000000000E+00 0. -1.
</event>
<event>
 7    1  0.2899775E-009  0.6474823E+02  0.7561462E-02  0.1378921E+00
         -2   -1    0    0    0  501 -0.00000000000E+00  0.00000000000E+00  0.36786530760E+03  0.36786530760E+03  0.00000000000E+00 0. -1.
          2   -1    0    0  501    0  0.00000000000E+00 -0.00000000000E+00 -0.40502484552E+02  0.40502484552E+02  0.00000000000E+00 0.  1.
         25    2    1    2    0    0  0.55474134701E+01 -0.90883324971E+01  0.27666152657E+03  0.30381254677E+03  0.12508833561E+03 0.  0.
          5    1    3    3  502    0  0.22921359448E+02  0.18872594878E+02  0.53233580504E+01  0.30452817559E+02  0.41800000000E+01 0. -1.
         -5    1    3    3    0  502 -0.17373945978E+02 -0.27960927375E+02  0.27133816852E+03  0.27335972921E+03  0.41800000000E+01 0. -1.
        -11    1    1    2    0    0 -0.33428647991E+02  0.16783601164E+02 -0.87732796008E+01  0.38420492052E+02  0.00000000000E+00 0.  1.
         11    1    1    2    0    0  0.27881234521E+02 -0.76952686672E+01  0.59474576085E+02  0.66134753336E+02  0.00000000000E+00 0. -1.
</event>
<event>
 7    1  0.2899775E-009  0.1920843E+03  0.7561462E-02  0.1156595E+00
          2   -1    0    0  501    0  0.00000000000E+00  0.00000000000E+00  0.84135476695E+03  0.84135476695E+03  0.00000000000E+00 0.  1.
         -2   -1    0    0    0  501 -0.00000000000E+00 -0.00000000000E+00 -0.53669045232E+02  0.53669045232E+02  0.00000000000E+00 0. -1.
         25    2    1    2    0    0  0.14249518924E+03 -0.99812753681E+02  0.51107742623E+03  0.55417969096E+03  0.12509008561E+03 0.  0.
          5    1    3    3  502    0 -0.20419701098E+02 -0.18335028256E+02  0.11342786826E+03  0.11677538762E+03  0.41800000000E+01 0.  1.
         -5    1    3    3    0  502  0.16291489034E+03 -0.81477725425E+02  0.39764955797E+03  0.43740430334E+03  0.41800000000E+01 0.  1.
        -11    1    1    2    0    0 -0.75250125093E+02  0.47225242514E+02  0.57840996645E+02  0.10601125294E+03  0.00000000000E+00 0. -1.
         11    1    1    2    0    0 -0.67245064145E+02  0.52587511166E+02  0.21876729884E+03  0.23483286828E+03  0.00000000000E+00 0.  1.
</event>
<event>
 7    1  0.2940827E-009  0.1636138E+03  0.7561462E-02  0.1184676E+00
         -2   -1    0    0    0  501 -0.00000000000E+00  0.00000000000E+00  0.28079270914E+02  0.28079270914E+02  0.00000000000E+00 0.  1.
          2   -1    0    0  501    0  0.00000000000E+00 -0.00000000000E+00 -0.11256940999E+04  0.11256940999E+04  0.00000000000E+00 0. -1.
         25    2    1    2    0    0 -0.13730586188E+03  0.19948323404E+02 -0.50926437565E+03  0.54244781328E+03  0.12509432646E+03 0.  0.
          5    1    3    3  502    0 -0.13878580386E+03 -0.73645662861E+01 -0.48836062722E+03  0.50776895416E+03  0.41800000000E+01 0.  1.
         -5    1    3    3    0  502  0.14799419783E+01  0.27312889690E+02 -0.20903748428E+02  0.34678859119E+02  0.41800000000E+01 0.  1.
        -11    1    1    2    0    0  0.46640471750E+02  0.31486988918E+02 -0.28674737551E+03  0.29221707931E+03  0.00000000000E+00 0.  1.
         11    1    1    2    0    0  0.90665390135E+02 -0.51435312322E+02 -0.30160307782E+03  0.31910847822E+03  0.00000000000E+00 0. -1.
</event>
<event>
 7    1  0.2899775E-009  0.9802517E+02  0.7561462E-02  0.1284504E+00
          2   -1    0    0  501    0  0.00000000000E+00  0.00000000000E+00  0.13641021049E+03  0.13641021049E+03  0.00000000000E+00 0. -1.
         -2   -1    0    0    0  501 -0.00000000000E+00 -0.00000000000E+00 -0.96613495548E+02  0.96613495548E+02  0.00000000000E+00 0.  1.
         25    2    1    2    0    0 -0.30062245197E+02  0.16209558943E+02  0.38063481795E+02  0.13517589009E+03  0.12512875061E+03 0.  0.
          5    1    3    3  502    0  0.31276894392E+02 -0.73616262016E+01  0.57949775274E+02  0.66393422246E+02  0.41800000000E+01 0. -1.
         -5    1    3    3    0  502 -0.61339139589E+02  0.23571185145E+02 -0.19886293479E+02  0.68782467846E+02  0.41800000000E+01 0. -1.
        -11    1    1    2    0    0 -0.29554869461E+02  0.11938364344E+02  0.16901461204E+01  0.31919765757E+02  0.00000000000E+00 0. -1.
         11    1    1    2    0    0  0.59617114658E+02 -0.28147923288E+02  0.43087028080E-01  0.65928050191E+02  0.00000000000E+00 0.  1.
</event>
<event>
 7    1  0.2899775E-009  0.9633741E+02  0.7561462E-02  0.1288192E+00
         -2   -1    0    0    0  501 -0.00000000000E+00  0.00000000000E+00  0.10972882127E+03  0.10972882127E+03  0.00000000000E+00 0.  1.
          2   -1    0    0  501    0  0.00000000000E+00 -0.00000000000E+00 -0.16860202796E+03  0.16860202796E+03  0.00000000000E+00 0. -1.
         25    2    1    2    0    0  0.41036595686E+02  0.55717211362E+02 -0.66139748106E+02  0.15751346783E+03  0.12509043306E+03 0.  0.
          5    1    3    3  502    0  0.37973144549E+02  0.82752462866E+02 -0.59634389222E+01  0.91339831515E+02  0.41800000000E+01 0.  1.
         -5    1    3    3    0  502  0.30634511363E+01 -0.27035251504E+02 -0.60176309183E+02  0.66173636319E+02  0.41800000000E+01 0.  1.
        -11    1    1    2    0    0 -0.18903518517E+02 -0.46185070707E+02 -0.42483441213E+02  0.65538130473E+02  0.00000000000E+00 0. -1.
         11    1    1    2    0    0 -0.22133077169E+02 -0.95321406552E+01  0.49749982636E+02  0.55279250924E+02  0.00000000000E+00 0.  1.
</event>
<event>
 7    1  0.2899775E-009  0.1391718E+03  0.7561462E-02  0.1214448E+00
         -2   -1    0    0    0  501 -0.00000000000E+00  0.00000000000E+00  0.13789200430E+03  0.13789200430E+03  0.00000000000E+00 0.  1.
          2   -1    0    0  501    0  0.00000000000E+00 -0.00000000000E+00 -0.17940982996E+03  0.17940982996E+03  0.00000000000E+00 0. -1.
         25    2    1    2    0    0  0.11095531339E+03  0.19937491221E+02 -0.24493679415E+02  0.17016011644E+03  0.12508373104E+03 0.  0.
          5    1    3    3  502    0  0.11991951916E+03  0.14121707843E+02 -0.58523323598E+02  0.13424814901E+03  0.41800000000E+01 0. -1.
         -5    1    3    3    0  502 -0.89642057711E+01  0.58157833775E+01  0.34029644183E+02  0.35911967429E+02  0.41800000000E+01 0. -1.
        -11    1    1    2    0    0 -0.62050227957E+02  0.36008244585E+02 -0.55815338220E+01  0.71958168316E+02  0.00000000000E+00 0.  1.
         11    1    1    2    0    0 -0.48905085435E+02 -0.55945735806E+02 -0.11442612418E+02  0.75183549499E+02  0.00000000000E+00 0. -1.
</event>
<event>
 7    1  0.2899775E-009  0.1888151E+03  0.7561462E-02  0.1159534E+00
          2   -1    0    0  501    0  0.00000000000E+00  0.00000000000E+00  0.77680333021E+03  0.77680333021E+03  0.00000000000E+00 0. -1.
         -2   -1    0    0    0  501 -0.00000000000E+00 -0.00000000000E+00 -0.55890247829E+02  0.55890247829E+02  0.00000000000E+00 0.  1.
         25    2    1    2    0    0  0.58694955846E+02 -0.15266757100E+03  0.23496755412E+03  0.31242469388E+03  0.12508778030E+03 0.  0.
          5    1    3    3  502    0 -0.33691845480E+02 -0.14997811745E+02  0.24531324218E+02  0.44489696300E+02  0.41800000000E+01 0. -1.
         -5    1    3    3    0  502  0.92386801326E+02 -0.13766975925E+03  0.21043622990E+03  0.26793499758E+03  0.41800000000E+01 0. -1.
        -11    1    1    2    0    0 -0.16721679940E+02  0.12083694577E+03  0.41057545682E+03  0.42831458974E+03  0.00000000000E+00 0. -1.
         11    1    1    2    0    0 -0.41973275906E+02  0.31830625226E+02  0.75370071443E+02  0.91954294417E+02  0.00000000000E+00 0.  1.
</event>
<event>
 7    1  0.2899775E-009  0.1067731E+03  0.7561462E-02  0.1266665E+00
         -2   -1    0    0    0  501 -0.00000000000E+00  0.00000000000E+00  0.35301019663E+02  0.35301019663E+02  0.00000000000E+00 0.  1.
          2   -1    0    0  501    0  0.00000000000E+00 -0.00000000000E+00 -0.66866794900E+03  0.66866794900E+03  0.00000000000E+00 0. -1.
         25    2    1    2    0    0  0.33588534153E+02  0.30903203584E+02 -0.56795471164E+03  0.58335478171E+03  0.12508816591E+03 0.  0.
          5    1    3    3  502    0  0.12214716050E+02 -0.45273579148E+02 -0.30853776352E+03  0.31210882745E+03  0.41800000000E+01 0. -1.
         -5    1    3    3    0  502  0.21373818103E+02  0.76176782732E+02 -0.25941694812E+03  0.27124595426E+03  0.41800000000E+01 0. -1.
        -11    1    1    2    0    0  0.23245093672E+01 -0.47584212349E+02 -0.43535764306E+01  0.47839463170E+02  0.00000000000E+00 0.  1.
         11    1    1    2    0    0 -0.35913043520E+02  0.16681008765E+02 -0.61058641263E+02  0.72774723779E+02  0.00000000000E+00 0. -1.
</event>
<event>
 7    1  0.2899775E-009  0.1679339E+03  0.7561462E-02  0.1180020E+00
          2   -1    0    0  501    0  0.00000000000E+00  0.00000000000E+00  0.27402243404E+03  0.27402243404E+03  0.00000000000E+00 0. -1.
         -2   -1    0    0    0  501 -0.00000000000E+00 -0.00000000000E+00 -0.13718253122E+03  0.13718253122E+03  0.00000000000E+00 0.  1.
         25    2    1    2    0    0  0.14260280067E+03 -0.60094731982E+02  0.11351373789E+03  0.22908546503E+03  0.12509135073E+03 0.  0.
          5    1    3    3  502    0  0.66997169576E+02 -0.47191124852E+02 -0.10995352340E+02  0.82788846889E+02  0.41800000000E+01 0. -1.
         -5    1    3    3    0  502  0.75605631098E+02 -0.12903607130E+02  0.12450909023E+03  0.14629661814E+03  0.41800000000E+01 0. -1.
        -11    1    1    2    0    0 -0.36286387661E+02  0.60656600884E+02  0.27190434482E+02  0.75731399614E+02  0.00000000000E+00 0.  1.
         11    1    1    2    0    0 -0.10631641301E+03 -0.56186890139E+00 -0.38642695420E+01  0.10638810061E+03  0.00000000000E+00 0. -1.
</event>
<event>
 7    1  0.2899775E-009  0.1057791E+03  0.7561462E-02  0.1268592E+00
         -1   -1    0    0    0  501 -0.00000000000E+00  0.00000000000E+00  0.45018776993E+02  0.45018776993E+02  0.00000000000E+00 0.  1.
          1   -1    0    0  501    0  0.00000000000E+00 -0.00000000000E+00 -0.28075481489E+03  0.28075481489E+03  0.00000000000E+00 0. -1.
         25    2    1    2    0    0  0.38025667864E+01 -0.26760688815E+02 -0.12091106164E+03  0.17606220207E+03  0.12509124746E+03 0.  0.
          5    1    3    3  502    0  0.20175090185E+02 -0.73565899082E+02 -0.87326103169E+02  0.11602713677E+03  0.41800000000E+01 0.  1.
         -5    1    3    3    0  502 -0.16372523398E+02  0.46805210267E+02 -0.33584958467E+02  0.60035065302E+02  0.41800000000E+01 0.  1.
        -11    1    1    2    0    0 -0.39296777329E+01 -0.29187698561E+02 -0.10382890577E+02  0.31227688533E+02  0.00000000000E+00 0. -1.
         11    1    1    2    0    0  0.12711094652E+00  0.55948387376E+02 -0.10444208569E+03  0.11848370128E+03  0.00000000000E+00 0.  1.
</event>
<event>
 7    1  0.2899775E-009  0.1773581E+03  0.7561462E-02  0.1170385E+00
          1   -1    0    0  501    0  0.00000000000E+00  0.00000000000E+00  0.33766678907E+03  0.33766678907E+03  0.00000000000E+00 0. -1.
         -1   -1    0    0    0  501 -0.00000000000E+00 -0.00000000000E+00 -0.12273168415E+03  0.12273168415E+03  0.00000000000E+00 0.  1.
         25    2    1    2    0    0  0.10136379165E+03  0.99950238747E+02  0.34522273253E+01  0.18953824673E+03  0.12509260816E+03 0.  0.
          5    1    3    3  502    0  0.92976618655E+02  0.12774593828E+03  0.13259048869E+02  0.15860942955E+03  0.41800000000E+01 0.  1.
         -5    1    3    3    0  502  0.83871729989E+01 -0.27795699535E+02 -0.98068215437E+01  0.30928817183E+02  0.41800000000E+01 0.  1.
        -11    1    1    2    0    0 -0.11777654248E+03 -0.87117820124E+02  0.16979978297E+03  0.22426055123E+03  0.00000000000E+00 0. -1.
         11    1    1    2    0    0  0.16412750827E+02 -0.12832418623E+02  0.41683094630E+02  0.46599675271E+02  0.00000000000E+00 0.  1.
</event>
<event>
 7    1  0.3512253E-009  0.9456668E+02  0.7561462E-02  0.1292155E+00
          2   -1    0    0  501    0  0.00000000000E+00  0.00000000000E+00  0.31926626597E+03  0.31926626597E+03  0.00000000000E+00 0.  1.
         -2   -1    0    0    0  501 -0.00000000000E+00 -0.00000000000E+00 -0.54484577063E+02  0.54484577063E+02  0.00000000000E+00 0. -1.
         25    2    1    2    0    0 -0.25357415074E+02 -0.87254491250E+01  0.47373984951E+02  0.13642517705E+03  0.12509357506E+03 0.  0.
          5    1    3    3  502    0 -0.70386455437E+02  0.17414145160E+02  0.12702034164E+02  0.73731401944E+02  0.41800000000E+01 0.  1.
         -5    1    3    3    0  502  0.45029040364E+02 -0.26139594285E+02  0.34671950786E+02  0.62693775104E+02  0.41800000000E+01 0.  1.
        -11    1    1    2    0    0 -0.14604286627E+02 -0.12319222717E+02  0.44316876919E+01  0.19613472207E+02  0.00000000000E+00 0. -1.
         11    1    1    2    0    0  0.39961701700E+02  0.21044671842E+02  0.21297601627E+03  0.21771219378E+03  0.00000000000E+00 0.  1.
</event>
<event>
 7    1  0.2899775E-009  0.1770143E+03  0.7561462E-02  0.1170724E+00
         -2   -1    0    0    0  501 -0.00000000000E+00  0.00000000000E+00  0.82169070735E+02  0.82169070735E+02  0.00000000000E+00 0. -1.
          2   -1    0    0  501    0  0.00000000000E+00 -0.00000000000E+00 -0.78956266088E+03  0.78956266088E+03  0.00000000000E+00 0.  1.
         25    2    1    2    0    0 -0.14561781169E+03  0.62365358084E+02 -0.77543096231E+02  0.21622727678E+03  0.12508924207E+03 0.  0.
          5    1    3    3  502    0 -0.15760786025E+03  0.59047402034E+02 -0.35334898792E+02  0.17202575613E+03  0.41800000000E+01 0.  1.
         -5    1    3    3    0  502  0.11990048561E+02  0.33179560498E+01 -0.42208197439E+02  0.44201520651E+02  0.41800000000E+01 0.  1.
        -11    1    1    2    0    0  0.66434681189E+02 -0.65510012012E+02 -0.23626047790E+03  0.25401602696E+03  0.00000000000E+00 0. -1.
         11    1    1    2    0    0  0.79183130500E+02  0.31446539282E+01 -0.39359001602E+03  0.40148842787E+03  0.00000000000E+00 0.  1.
</event>
<event>
 7    1  0.2899775E-009  0.1377345E+03  0.7561462E-02  0.1216410E+00
         -2   -1    0    0    0  501 -0.00000000000E+00  0.00000000000E+00  0.27474166061E+02  0.27474166061E+02  0.00000000000E+00 0. -1.
          2   -1    0    0  501    0  0.00000000000E+00 -0.00000000000E+00 -0.96743425189E+03  0.96743425189E+03  0.00000000000E+00 0.  1.
         25    2    1    2    0    0  0.46286622037E+02 -0.10957430234E+03 -0.55425668922E+03  0.58051453965E+03  0.12509066348E+03 0.  0.
          5    1    3    3  502    0  0.91119372794E+01 -0.19054052363E+01  0.38356112328E+01  0.10901480800E+02  0.41800000000E+01 0.  1.
         -5    1    3    3    0  502  0.37174684758E+02 -0.10766889710E+03 -0.55809230045E+03  0.56961305885E+03  0.41800000000E+01 0.  1.
        -11    1    1    2    0    0  0.27077248984E+02  0.49656521789E+02 -0.15533612219E+03  0.16531260818E+03  0.00000000000E+00 0.  1.
         11    1    1    2    0    0 -0.73363871021E+02  0.59917780550E+02 -0.23036727443E+03  0.24908127012E+03  0.00000000000E+00 0. -1.
</event>
<event>
 7    1  0.2899775E-009  0.8474014E+02  0.7561462E-02  0.1316114E+00
         -1   -1    0    0    0  501 -0.00000000000E+00  0.00000000000E+00  0.14700661751E+03  0.14700661751E+03  0.00000000000E+00 0.  1.
          1   -1    0    0  501    0  0.00000000000E+00 -0.00000000000E+00 -0.94859781226E+02  0.94859781226E+02  0.00000000000E+00 0. -1.
         25    2    1    2    0    0  0.26295354441E+02 -0.71567512357E+01 -0.65745291444E+01  0.12819304187E+03  0.12509023462E+03 0.  0.
          5    1    3    3  502    0  0.35923512827E+02  0.49068309654E+02 -0.28046549096E+02  0.67099024600E+02  0.41800000000E+01 0. -1.
         -5    1    3    3    0  502 -0.96281583861E+01 -0.56225060890E+02  0.21472019951E+02  0.61094017274E+02  0.41800000000E+01 0. -1.
        -11    1    1    2    0    0  0.93933631339E-01 -0.16131546383E+02  0.73683943805E+02  0.75429166686E+02  0.00000000000E+00 0.  1.
         11    1    1    2    0    0 -0.26389288072E+02  0.23288297619E+02 -0.14962578373E+02  0.38244190180E+02  0.00000000000E+00 0. -1.
</event>
<event>
 7    1  0.2922340E-009  0.1031946E+03  0.7561462E-02  0.1273718E+00
          4   -1    0    0  501    0  0.00000000000E+00  0.00000000000E+00  0.66445778425E+02  0.66445778425E+02  0.00000000000E+00 0.  1.
         -4   -1    0    0    0  501 -0.00000000000E+00 -0.00000000000E+00 -0.22238467318E+03  0.22238467318E+03  0.00000000000E+00 0. -1.
         25    2    1    2    0    0  0.59951537233E+01 -0.28550380866E+02 -0.14287650193E+03  0.19212703864E+03  0.12509211828E+03 0.  0.
          5    1    3    3  502    0  0.29245106980E+01  0.40757437079E+02 -0.10549676657E+03  0.11321113725E+03  0.41800000000E+01 0.  1.
         -5    1    3    3    0  502  0.30706430253E+01 -0.69307817944E+02 -0.37379735358E+02  0.78915901390E+02  0.41800000000E+01 0.  1.
        -11    1    1    2    0    0 -0.48727105443E+02  0.15371971187E+02 -0.64761796028E+01  0.51503098987E+02  0.00000000000E+00 0.  1.
         11    1    1    2    0    0  0.42731951720E+02  0.13178409678E+02 -0.65862132248E+01  0.45200313982E+02  0.00000000000E+00 0. -1.
</event>
<event>
 7    1  0.2899775E-009  0.1302574E+03  0.7561462E-02  0.1227074E+00
          2   -1    0    0  501    0  0.00000000000E+00  0.00000000000E+00  0.70804175651E+03  0.70804175651E+03  0.00000000000E+00 0. -1.
         -2   -1    0    0    0  501 -0.00000000000E+00 -0.00000000000E+00 -0.34319108941E+02  0.34319108941E+02  0.00000000000E+00 0.  1.
         25    2    1    2    0    0 -0.10302006099E+03 -0.13690393293E+02  0.44420186803E+03  0.47303634645E+03  0.12509007022E+03 0.  0.
          5    1    3    3  502    0  0.23230830714E+02  0.13741386381E+02  0.13784876130E+03  0.14052846896E+03  0.41800000000E+01 0. -1.
         -5    1    3    3    0  502 -0.12625089170E+03 -0.27431779675E+02  0.30635310673E+03  0.33250787750E+03  0.41800000000E+01 0. -1.
        -11    1    1    2    0    0  0.22950844607E+02  0.37234648514E+01 -0.27736280575E+01  0.23415773985E+02  0.00000000000E+00 0.  1.
         11    1    1    2    0    0  0.80069216383E+02  0.99669284418E+01  0.23229440759E+03  0.24590874501E+03  0.00000000000E+00 0. -1.
</event>
<event>
 7    1  0.2899775E-009  0.1142038E+03  0.7561462E-02  0.1252977E+00
         -1   -1    0    0    0  501 -0.00000000000E+00  0.00000000000E+00  0.53879032566E+02  0.53879032566E+02  0.00000000000E+00 0.  1.
          1   -1    0    0  501    0  0.00000000000E+00 -0.00000000000E+00 -0.26597147746E+03  0.26597147746E+03  0.00000000000E+00 0. -1.
         25    2    1    2    0    0 -0.44765083679E+02 -0.17513718024E+02 -0.99159472503E+02  0.16670710145E+03  0.12509202073E+03 0.  0.
          5    1    3    3  502    0  0.39860547786E+02 -0.34190045813E+01 -0.60174145131E+02  0.72380612075E+02  0.41800000000E+01 0.  1.
         -5    1    3    3    0  502 -0.84625631465E+02 -0.14094713443E+02 -0.38985327372E+02  0.94326489377E+02  0.41800000000E+01 0.  1.
        -11    1    1    2    0    0 -0.12426659070E+01  0.47407072161E+02 -0.41109086665E+02  0.62760909138E+02  0.00000000000E+00 0.  1.
         11    1    1    2    0    0  0.46007749586E+02 -0.29893354137E+02 -0.71823885723E+02  0.90382499434E+02  0.00000000000E+00 0. -1.
</event>
<event>
 7    1  0.2899775E-009  0.9951017E+02  0.7561462E-02  0.1281329E+00
         -1   -1    0    0    0  501 -0.00000000000E+00  0.00000000000E+00  0.98613533892E+02  0.98613533892E+02  0.00000000000E+00 0.  1.
          1   -1    0    0  501    0  0.00000000000E+00 -0.00000000000E+00 -0.19088627346E+03  0.19088627346E+03  0.00000000000E+00 0. -1.
         25    2    1    2    0    0  0.23490039209E+02  0.57369120319E+02  0.12907230128E+02  0.14020463922E+03  0.12509095236E+03 0.  0.
          5    1    3    3  502    0 -0.27291411388E+02  0.44845598085E+02  0.52584945244E+02  0.74421755351E+02  0.41800000000E+01 0. -1.
         -5    1    3    3    0  502  0.50781450597E+02  0.12523522234E+02 -0.39677715116E+02  0.65782883873E+02  0.41800000000E+01 0. -1.
        -11    1    1    2    0    0 -0.47894087750E+02 -0.47824369789E+02 -0.10266853446E+03  0.12297089881E+03  0.00000000000E+00 0.  1.
         11    1    1    2    0    0  0.24404048541E+02 -0.95447505299E+01 -0.25114352356E+01  0.26324269312E+02  0.00000000000E+00 0. -1.
</event>
<event>
 7    1  0.2899775E-009  0.1081973E+03  0.7561462E-02  0.1263945E+00
          2   -1    0    0  501    0  0.00000000000E+00  0.00000000000E+00  0.85323944347E+03  0.85323944347E+03  0.00000000000E+00 0. -1.
         -2   -1    0    0    0  501 -0.00000000000E+00 -0.00000000000E+00 -0.23810005051E+02  0.23810005051E+02  0.00000000000E+00 0.  1.
         25    2    1    2    0    0 -0.55467376314E+02  0.72200738570E+02  0.48467919387E+03  0.50877423242E+03  0.12509085544E+03 0.  0.
          5    1    3    3  502    0 -0.32906819859E+02  0.15694871551E+01  0.21234453899E+02  0.39416957208E+02  0.41800000000E+01 0. -1.
         -5    1    3    3    0  502 -0.22560556456E+02  0.70631251415E+02  0.46344473997E+03  0.46935727521E+03  0.41800000000E+01 0. -1.
        -11    1    1    2    0    0  0.95691321584E+01 -0.60907260429E+02  0.89471186828E+02  0.10865705654E+03  0.00000000000E+00 0.  1.
         11    1    1    2    0    0  0.45898244156E+02 -0.11293478141E+02  0.25527905772E+03  0.25961815957E+03  0.00000000000E+00 0. -1.
</event>
<event>
 7    1  0.2899775E-009  0.8763199E+02  0.7561462E-02  0.1308690E+00
         -3   -1    0    0    0  501 -0.00000000000E+00  0.00000000000E+00  0.83157742562E+02  0.83157742562E+02  0.00000000000E+00 0.  1.
          3   -1    0    0  501    0  0.00000000000E+00 -0.00000000000E+00 -0.23494356193E+03  0.23494356193E+03  0.00000000000E+00 0. -1.
         25    2    1    2    0    0  0.22430223041E+01 -0.58311779514E+02 -0.86728781455E+01  0.13829707257E+03  0.12508223969E+03 0.  0.
          5    1    3    3  502    0 -0.40766520897E+02 -0.49699223446E+02 -0.47127183327E+02  0.79814571637E+02  0.41800000000E+01 0. -1.
         -5    1    3    3    0  502  0.43009543201E+02 -0.86125560678E+01  0.38454305182E+02  0.58482500933E+02  0.41800000000E+01 0. -1.
        -11    1    1    2    0    0 -0.13258495733E+02  0.52856067789E+02 -0.15401655166E+03  0.16337273272E+03  0.00000000000E+00 0. -1.
         11    1    1    2    0    0  0.11015473429E+02  0.54557117251E+01  0.10903610441E+02  0.16431499199E+02  0.00000000000E+00 0.  1.
</event>
<event>
 7    1  0.2899775E-009  0.1346417E+03  0.7561462E-02  0.1220726E+00
         -2   -1    0    0    0  501 -0.00000000000E+00  0.00000000000E+00  0.23331694911E+03  0.23331694911E+03  0.00000000000E+00 0.  1.
          2   -1    0    0  501    0  0.00000000000E+00 -0.00000000000E+00 -0.89436826770E+02  0.89436826770E+02  0.00000000000E+00 0. -1.
         25    2    1    2    0    0  0.11017439876E+01  0.90107724978E+02  0.10282537242E+03  0.18531217190E+03  0.12508768085E+03 0.  0.
          5    1    3    3  502    0 -0.46816650312E+02  0.75999570650E+01  0.69327404977E+02  0.84103029521E+02  0.41800000000E+01 0. -1.
         -5    1    3    3    0  502  0.47918394299E+02  0.82507767913E+02  0.33497967447E+02  0.10120914238E+03  0.41800000000E+01 0. -1.
        -11    1    1    2    0    0 -0.22982419562E+02  0.89918794091E+01  0.24201607497E+02  0.34565348395E+02  0.00000000000E+00 0.  1.
         11    1    1    2    0    0  0.21880675574E+02 -0.99099604387E+02  0.16853142417E+02  0.10287625558E+03  0.00000000000E+00 0. -1.
</event>
<event>
 7    1  0.2899775E-009  0.6760433E+02  0.7561462E-02  0.1368434E+00
          3   -1    0    0  501    0  0.00000000000E+00  0.00000000000E+00  0.14282732877E+03  0.14282732877E+03  0.00000000000E+00 0. -1.
         -3   -1    0    0    0  501 -0.00000000000E+00 -0.00000000000E+00 -0.97329136504E+02  0.97329136504E+02  0.00000000000E+00 0.  1.
         25    2    1    2    0    0 -0.41240581661E+02  0.19942588375E+02  0.16210414088E+02  0.13419759556E+03  0.12509086586E+03 0.  0.
          5    1    3    3  502    0 -0.51159890198E+02  0.12097139557E+02 -0.46365109049E+02  0.70220160123E+02  0.41800000000E+01 0. -1.
         -5    1    3    3    0  502  0.99193085378E+01  0.78454488172E+01  0.62575523137E+02  0.63977435435E+02  0.41800000000E+01 0. -1.
        -11    1    1    2    0    0 -0.81452674796E+01 -0.17966845176E+02  0.48942753733E+02  0.52768798081E+02  0.00000000000E+00 0. -1.
         11    1    1    2    0    0  0.49385849140E+02 -0.19757431985E+01 -0.19654975554E+02  0.53190071635E+02  0.00000000000E+00 0.  1.
</event>
<event>
 7    1  0.2899775E-009  0.1014367E+03  0.7561462E-02  0.1277303E+00
         -1   -1    0    0    0  501 -0.00000000000E+00  0.00000000000E+00  0.16037798982E+02  0.16037798982E+02  0.00000000000E+00 0.  1.
          1   -1    0    0  501    0  0.00000000000E+00 -0.00000000000E+00 -0.88563364326E+03  0.88563364326E+03  0.00000000000E+00 0. -1.
         25    2    1    2    0    0 -0.18774123328E+02  0.38135044628E+02 -0.63076281189E+03  0.64445093848E+03  0.12509411621E+03 0.  0.
          5    1    3    3  502    0  0.31175149058E+02 -0.27244927044E+02 -0.32985284741E+03  0.33246736579E+03  0.41800000000E+01 0. -1.
         -5    1    3    3    0  502 -0.49949272386E+02  0.65379971672E+02 -0.30090996448E+03  0.31198357270E+03  0.41800000000E+01 0. -1.
        -11    1    1    2    0    0  0.40612313436E+02 -0.75690104386E+01 -0.19574159108E+03  0.20005354384E+03  0.00000000000E+00 0.  1.
         11    1    1    2    0    0 -0.21838190108E+02 -0.30566034190E+02 -0.43091441301E+02  0.57166959921E+02  0.00000000000E+00 0. -1.
</event>
<event>
 7    1  0.2899775E-009  0.7488691E+02  0.7561462E-02  0.1344222E+00
          1   -1    0    0  501    0  0.00000000000E+00  0.00000000000E+00  0.67200091460E+03  0.67200091460E+03  0.00000000000E+00 0. -1.
         -1   -1    0    0    0  501 -0.00000000000E+00 -0.00000000000E+00 -0.26238221767E+02  0.26238221767E+02  0.00000000000E+00 0.  1.
         25    2    1    2    0    0  0.57416412115E+02 -0.11213677425E+02  0.48596625061E+03  0.50520614452E+03  0.12509061031E+03 0.  0.
          5    1    3    3  502    0  0.46999067501E+02 -0.14772443010E+02  0.54525065484E+02  0.73604297323E+02  0.41800000000E+01 0. -1.
         -5    1    3    3    0  502  0.10417344614E+02  0.35587655844E+01  0.43144118513E+03  0.43160184720E+03  0.41800000000E+01 0. -1.
        -11    1    1    2    0    0  0.14370537963E+02  0.85446246884E+01  0.94460081179E+02  0.95928253965E+02  0.00000000000E+00 0. -1.
         11    1    1    2    0    0 -0.71786950078E+02  0.26690527369E+01  0.65336361037E+02  0.97104737874E+02  0.00000000000E+00 0.  1.
</event>
<event>
 7    1  0.2899775E-009  0.1587233E+03  0.7561462E-02  0.1190146E+00
         -1   -1    0    0    0  501 -0.00000000000E+00  0.00000000000E+00  0.12908822243E+02  0.12908822243E+02  0.00000000000E+00 0.  1.
          1   -1    0    0  501    0  0.00000000000E+00 -0.00000000000E+00 -0.22766896969E+04  0.22766896969E+04  0.00000000000E+00 0. -1.
         25    2    1    2    0    0  0.84342395582E+02 -0.96428163480E+02 -0.13600469086E+04  0.13717805951E+04  0.12506948936E+03 0.  0.
          5    1    3    3  502    0  0.10000691065E+03 -0.58233503300E+02 -0.12260438290E+04  0.12315004938E+04  0.41800000000E+01 0. -1.
         -5    1    3    3    0  502 -0.15664515070E+02 -0.38194660181E+02 -0.13400307956E+03  0.14028010133E+03  0.41800000000E+01 0. -1.
        -11    1    1    2    0    0 -0.91199017328E+02  0.33972728151E+02 -0.55604025509E+03  0.56449284522E+03  0.00000000000E+00 0. -1.
         11    1    1    2    0    0  0.68566217453E+01  0.62455435330E+02 -0.34769371102E+03  0.35332507885E+03  0.00000000000E+00 0.  1.
</event>
<event>
 7    1  0.2899775E-009  0.1127249E+03  0.7561462E-02  0.1255605E+00
         -2   -1    0    0    0  501 -0.00000000000E+00  0.00000000000E+00  0.50465722021E+02  0.50465722021E+02  0.00000000000E+00 0. -1.
          2   -1    0    0  501    0  0.00000000000E+00 -0.00000000000E+00 -0.36655853858E+03  0.36655853858E+03  0.00000000000E+00 0.  1.
         25    2    1    2    0    0 -0.59289306138E+01  0.73124372060E+02 -0.20041674317E+03  0.24736689968E+03  0.12506472767E+03 0.  0.
          5    1    3    3  502    0 -0.20135941126E+02 -0.15133049715E+02  0.24380147280E+01  0.25649203390E+02  0.41800000000E+01 0.  1.
         -5    1    3    3    0  502  0.14207010513E+02  0.88257421775E+02 -0.20285475790E+03  0.22171769629E+03  0.41800000000E+01 0.  1.
        -11    1    1    2    0    0  0.38160244373E+02 -0.98438440966E+01 -0.82174233722E+02  0.91135669224E+02  0.00000000000E+00 0.  1.
         11    1    1    2    0    0 -0.32231313759E+02 -0.63280527964E+02 -0.33501839670E+02  0.78521691699E+02  0.00000000000E+00 0. -1.
</event>
<event>
 7    1  0.2899775E-009  0.1106593E+03  0.7561462E-02  0.1259354E+00
         -1   -1    0    0    0  501 -0.00000000000E+00  0.00000000000E+00  0.69259904984E+02  0.69259904984E+02  0.00000000000E+00 0.  1.
          1   -1    0    0  501    0  0.00000000000E+00 -0.00000000000E+00 -0.21606820649E+03  0.21606820649E+03  0.00000000000E+00 0. -1.
         25    2    1    2    0    0 -0.43839323172E+02  0.25310364753E+02 -0.11023981942E+03  0.17425132907E+03  0.12509279386E+03 0.  0.
          5    1    3    3  502    0 -0.73050728843E+02  0.48212348992E+02 -0.43640065805E+02  0.97891610076E+02  0.41800000000E+01 0. -1.
         -5    1    3    3    0  502  0.29211405671E+02 -0.22901984239E+02 -0.66599753612E+02  0.76359718992E+02  0.41800000000E+01 0. -1.
        -11    1    1    2    0    0 -0.19698386994E+02 -0.26219925861E+02  0.76324349230E+01  0.33671427430E+02  0.00000000000E+00 0.  1.
         11    1    1    2    0    0  0.63537710166E+02  0.90956110821E+00 -0.44200917016E+02  0.77405354981E+02  0.00000000000E+00 0. -1.
</event>
<event>
 7    1  0.2899775E-009  0.1260939E+03  0.7561462E-02  0.1233370E+00
         -1   -1    0    0    0  501 -0.00000000000E+00  0.00000000000E+00  0.60275542159E+02  0.60275542159E+02  0.00000000000E+00 0.  1.
          1   -1    0    0  501    0  0.00000000000E+00 -0.00000000000E+00 -0.57432073358E+03  0.57432073358E+03  0.00000000000E+00 0. -1.
         25    2    1    2    0    0  0.27209369426E+02  0.71549946339E+02 -0.49880655297E+02  0.15490399736E+03  0.12508966391E+03 0.  0.
          5    1    3    3  502    0 -0.25023038143E+02  0.75351328390E+02  0.40537266128E+01  0.79610804716E+02  0.41800000000E+01 0. -1.
         -5    1    3    3    0  502  0.52232407569E+02 -0.38013820503E+01 -0.53934381910E+02  0.75293192640E+02  0.41800000000E+01 0. -1.
        -11    1    1    2    0    0  0.32671081855E+02 -0.97581444002E+01 -0.10661063747E+03  0.11193055433E+03  0.00000000000E+00 0.  1.
         11    1    1    2    0    0 -0.59880451281E+02 -0.61791801939E+02 -0.35755389866E+03  0.36776172405E+03  0.00000000000E+00 0. -1.
</event>
<event>
 7    1  0.2899775E-009  0.1280484E+03  0.7561462E-02  0.1230381E+00
          2   -1    0    0  501    0  0.00000000000E+00  0.00000000000E+00  0.24830662606E+03  0.24830662606E+03  0.00000000000E+00 0.  1.
         -2   -1    0    0    0  501 -0.00000000000E+00 -0.00000000000E+00 -0.11504763548E+03  0.11504763548E+03  0.00000000000E+00 0. -1.
         25    2    1    2    0    0  0.11821284413E+03 -0.68227449367E+01  0.12873818375E+02  0.17272540949E+03  0.12508998968E+03 0.  0.
          5    1    3    3  502    0  0.64103166809E+02 -0.35368739342E+02 -0.46935919904E+02  0.87066737017E+02  0.41800000000E+01 0.  1.
         -5    1    3    3    0  502  0.54109677324E+02  0.28545994405E+02  0.59809738279E+02  0.85658672472E+02  0.41800000000E+01 0.  1.
        -11    1    1    2    0    0 -0.69501654242E+02 -0.93283603090E+01  0.12596893444E+02  0.71247315548E+02  0.00000000000E+00 0.  1.
         11    1    1    2    0    0 -0.48711189891E+02  0.16151105246E+02  0.10778827876E+03  0.11938153650E+03  0.00000000000E+00 0. -1.
</event>
<event>
 7    1  0.2899775E-009  0.1878717E+03  0.7561462E-02  0.1160395E+00
          2   -1    0    0  501    0  0.00000000000E+00  0.00000000000E+00  0.58264465151E+03  0.58264465151E+03  0.00000000000E+00 0. -1.
         -2   -1    0    0    0  501 -0.00000000000E+00 -0.00000000000E+00 -0.66035770682E+02  0.66035770682E+02  0.00000000000E+00 0.  1.
         25    2    1    2    0    0 -0.15997708028E+03  0.10271462933E+02  0.31953839303E+03  0.37874727427E+03  0.12508614624E+03 0.  0.
          5    1    3    3  502    0 -0.16422416280E+02  0.51173697796E+02  0.79561851580E+02  0.96104129617E+02  0.41800000000E+01 0.  1.
         -5    1    3    3    0  502 -0.14355466400E+03 -0.40902234862E+02  0.23997654145E+03  0.28264314465E+03  0.41800000000E+01 0.  1.
        -11    1    1    2    0    0  0.39894858383E+02 -0.31164096997E+02  0.18850720195E+02  0.54019906691E+02  0.00000000000E+00 0. -1.
         11    1    1    2    0    0  0.12008222190E+03  0.20892634063E+02  0.17821976761E+03  0.21591324124E+03  0.00000000000E+00 0.  1.
</event>
<event>
 7    1  0.2899775E-009  0.1230088E+03  0.7561462E-02  0.1238214E+00
          2   -1    0    0  501    0  0.00000000000E+00  0.00000000000E+00  0.47224403694E+03  0.47224403694E+03  0.00000000000E+00 0. -1.
         -2   -1    0    0    0  501 -0.00000000000E+00 -0.00000000000E+00 -0.32295555123E+02  0.32295555123E+02  0.00000000000E+00 0.  1.
         25    2    1    2    0    0 -0.57537022091E+02 -0.18887343433E+02  0.24090378787E+03  0.27811880440E+03  0.12509274040E+03 0.  0.
          5    1    3    3  502    0 -0.57192595676E+01  0.50920770081E+02  0.10142122881E+03  0.11370739997E+03  0.41800000000E+01 0. -1.
         -5    1    3    3    0  502 -0.51817762523E+02 -0.69808113514E+02  0.13948255906E+03  0.16441140443E+03  0.41800000000E+01 0. -1.
        -11    1    1    2    0    0  0.81625133126E+02  0.17222425660E+02  0.16168327933E+03  0.18193613472E+03  0.00000000000E+00 0.  1.
         11    1    1    2    0    0 -0.24088111035E+02  0.16649177732E+01  0.37361414622E+02  0.44484652938E+02  0.00000000000E+00 0. -1.
</event>
<event>
 7    1  0.2899775E-009  0.1174809E+03  0.7561462E-02  0.1247312E+00
         -1   -1    0    0    0  501 -0.00000000000E+00  0.00000000000E+00  0.68337704118E+03  0.68337704118E+03  0.00000000000E+00 0.  1.
          1   -1    0    0  501    0  0.00000000000E+00 -0.00000000000E+00 -0.34438396977E+02  0.34438396977E+02  0.00000000000E+00 0. -1.
         25    2    1    2    0    0  0.72413228906E+02 -0.28562585102E+02  0.52252721059E+03  0.54290133829E+03  0.12509068839E+03 0.  0.
          5    1    3    3  502    0  0.44676213547E+02  0.40192469090E+02  0.34888871821E+03  0.35405113857E+03  0.41800000000E+01 0. -1.
         -5    1    3    3    0  502  0.27737015359E+02 -0.68755054192E+02  0.17363849238E+03  0.18885019972E+03  0.41800000000E+01 0. -1.
        -11    1    1    2    0    0 -0.33131135657E+02  0.46650526485E+02  0.20955348526E+02  0.60934968640E+02  0.00000000000E+00 0. -1.
         11    1    1    2    0    0 -0.39282093249E+02 -0.18087941383E+02  0.10545608509E+03  0.11397913123E+03  0.00000000000E+00 0.  1.
</event>
<event>
 7    1  0.2899775E-009  0.2016732E+03  0.7561462E-02  0.1148335E+00
          1   -1    0    0  501    0  0.00000000000E+00  0.00000000000E+00  0.26531783041E+03  0.26531783041E+03  0.00000000000E+00 0. -1.
         -1   -1    0    0    0  501 -0.00000000000E+00 -0.00000000000E+00 -0.16970848904E+03  0.16970848904E+03  0.00000000000E+00 0.  1.
         25    2    1    2    0    0 -0.14801596735E+03  0.90009064257E+02 -0.77729953532E+01  0.21382617389E+03  0.12510337703E+03 0.  0.
          5    1    3    3  502    0 -0.13204307986E+02 -0.28081459976E+02 -0.14338035390E+02  0.34437970362E+02  0.41800000000E+01 0. -1.
         -5    1    3    3    0  502 -0.13481165937E+03  0.11809052423E+03  0.65650400371E+01  0.17938820353E+03  0.41800000000E+01 0. -1.
        -11    1    1    2    0    0  0.12012088207E+02 -0.49386066534E+02  0.11485368311E+02  0.52107461232E+02  0.00000000000E+00 0.  1.
         11    1    1    2    0    0  0.13600387915E+03 -0.40622997723E+02  0.91896968410E+02  0.16909268432E+03  0.00000000000E+00 0. -1.
</event>
<event>
 7    1  0.2899775E-009  0.1599315E+03  0.7561462E-02  0.1188774E+00
          3   -1    0    0  501    0  0.00000000000E+00  0.00000000000E+00  0.19196314557E+03  0.19196314557E+03  0.00000000000E+00 0. -1.
         -3   -1    0    0    0  501 -0.00000000000E+00 -0.00000000000E+00 -0.18508646628E+03  0.18508646628E+03  0.00000000000E+00 0.  1.
         25    2    1    2    0    0  0.11010396486E+03  0.99868044310E+02  0.54397022125E+02  0.20175014067E+03  0.12509026297E+03 0.  0.
          5    1    3    3  502    0  0.46301073282E+02  0.66780885542E+02  0.90088147211E+02  0.12139531593E+03  0.41800000000E+01 0.  1.
         -5    1    3    3    0  502  0.63802891580E+02  0.33087158768E+02 -0.35691125087E+02  0.80354824742E+02  0.41800000000E+01 0.  1.
        -11    1    1    2    0    0 -0.11033287266E+03 -0.11033224582E+03 -0.51177385030E+02  0.16421227723E+03  0.00000000000E+00 0.  1.
         11    1    1    2    0    0  0.22890779259E+00  0.10464201507E+02  0.36570422001E+01  0.11087193947E+02  0.00000000000E+00 0. -1.
</event>
<event>
 7    1  0.2899775E-009  0.8847925E+02  0.7561462E-02  0.1306577E+00
         -1   -1    0    0    0  501 -0.00000000000E+00  0.00000000000E+00  0.14815323933E+02  0.14815323933E+02  0.00000000000E+00 0.  1.
          1   -1    0    0  501    0  0.00000000000E+00 -0.00000000000E+00 -0.93751182962E+03  0.93751182962E+03  0.00000000000E+00 0. -1.
         25    2    1    2    0    0 -0.12896731094E+02  0.37182485668E+02 -0.63684431182E+03  0.65020536520E+03  0.12508987378E+03 0.  0.
          5    1    3    3  502    0 -0.29694334770E+02 -0.14549624662E+02 -0.45774282326E+02  0.56623338101E+02  0.41800000000E+01 0. -1.
         -5    1    3    3    0  502  0.16797603676E+02  0.51732110330E+02 -0.59107002949E+03  0.59358202710E+03  0.41800000000E+01 0. -1.
        -11    1    1    2    0    0  0.19029465008E+02 -0.61303118434E+02 -0.25235635677E+03  0.26039186560E+03  0.00000000000E+00 0.  1.
         11    1    1    2    0    0 -0.61327339140E+01  0.24120632765E+02 -0.33495837094E+02  0.41729922752E+02  0.00000000000E+00 0. -1.
</event>
<event>
 7    1  0.2899775E-009  0.8150039E+02  0.7561462E-02  0.1324847E+00
          1   -1    0    0  501    0  0.00000000000E+00  0.00000000000E+00  0.15394442115E+03  0.15394442115E+03  0.00000000000E+00 0. -1.
         -1   -1    0    0    0  501 -0.00000000000E+00 -0.00000000000E+00 -0.89924688589E+02  0.89924688589E+02  0.00000000000E+00 0.  1.
         25    2    1    2    0    0 -0.26450337051E+02 -0.12817879497E+02 -0.20173485495E+01  0.12851208471E+03  0.12508943943E+03 0.  0.
          5    1    3    3  502    0  0.53176130553E+01 -0.61958635368E+02  0.20594202531E+02  0.65641016774E+02  0.41800000000E+01 0. -1.
         -5    1    3    3    0  502 -0.31767950107E+02  0.49140755871E+02 -0.22611551081E+02  0.62871067939E+02  0.41800000000E+01 0. -1.
        -11    1    1    2    0    0  0.49267413875E+01  0.18990067310E+02  0.84243741127E+02  0.86497996255E+02  0.00000000000E+00 0. -1.
         11    1    1    2    0    0  0.21523595664E+02 -0.61721878138E+01 -0.18206660015E+02  0.28859028771E+02  0.00000000000E+00 0.  1.
</event>
<event>
 7    1  0.2899775E-009  0.8912162E+02  0.7561462E-02  0.1304993E+00
         -2   -1    0    0    0  501 -0.00000000000E+00  0.00000000000E+00  0.77208339216E+02  0.77208339216E+02  0.00000000000E+00 0.  1.
          2   -1    0    0  501    0  0.00000000000E+00 -0.00000000000E+00 -0.21591962211E+03  0.21591962211E+03  0.00000000000E+00 0. -1.
         25    2    1    2    0    0 -0.25369816868E+02  0.44946437557E+02 -0.12992805629E+03  0.18759128884E+03  0.12508150135E+03 0.  0.
          5    1    3    3  502    0 -0.34531181320E+02 -0.88250008260E+00 -0.13590643927E+03  0.14028974989E+03  0.41800000000E+01 0.  1.
         -5    1    3    3    0  502  0.91613644525E+01  0.45828937640E+02  0.59783829777E+01  0.47301538948E+02  0.41800000000E+01 0.  1.
        -11    1    1    2    0    0  0.55276640478E+02 -0.32582144067E+02  0.14358823888E+02  0.65751645744E+02  0.00000000000E+00 0. -1.
         11    1    1    2    0    0 -0.29906823610E+02 -0.12364293490E+02 -0.23142050489E+02  0.39785026741E+02  0.00000000000E+00 0.  1.
</event>
<event>
 7    1  0.2899775E-009  0.1229343E+03  0.7561462E-02  0.1238333E+00
          2   -1    0    0  501    0  0.00000000000E+00  0.00000000000E+00  0.94333172397E+03  0.94333172397E+03  0.00000000000E+00 0. -1.
         -2   -1    0    0    0  501 -0.00000000000E+00 -0.00000000000E+00 -0.20440948414E+02  0.20440948414E+02  0.00000000000E+00 0.  1.
         25    2    1    2    0    0 -0.41470276177E+02  0.48270972881E+02  0.70837412685E+03  0.72214373805E+03  0.12509118348E+03 0.  0.
          5    1    3    3  502    0  0.31811274926E+02 -0.21086823615E+02  0.23522190453E+03  0.23833469767E+03  0.41800000000E+01 0. -1.
         -5    1    3    3    0  502 -0.73281551103E+02  0.69357796496E+02  0.47315222232E+03  0.48380904038E+03  0.41800000000E+01 0. -1.
        -11    1    1    2    0    0  0.32165643629E+02  0.19809012957E+02  0.11213151748E+03  0.11832372051E+03  0.00000000000E+00 0. -1.
         11    1    1    2    0    0  0.93046325485E+01 -0.68079985838E+02  0.10238513123E+03  0.12330521382E+03  0.00000000000E+00 0.  1.
</event>
<event>
 7    1  0.2899775E-009  0.1369812E+03  0.7561462E-02  0.1217450E+00
          2   -1    0    0  501    0  0.00000000000E+00  0.00000000000E+00  0.10479577141E+04  0.10479577141E+04  0.00000000000E+00 0.  1.
         -2   -1    0    0    0  501 -0.00000000000E+00 -0.00000000000E+00 -0.34685980603E+02  0.34685980603E+02  0.00000000000E+00 0. -1.
         25    2    1    2    0    0 -0.84227186255E+02  0.17368275693E+02  0.90012954508E+03  0.91283995055E+03  0.12509077304E+03 0.  0.
          5    1    3    3  502    0 -0.18411747290E+02  0.66745009397E+02  0.39950070484E+03  0.40547771121E+03  0.41800000000E+01 0. -1.
         -5    1    3    3    0  502 -0.65815438965E+02 -0.49376733704E+02  0.50062884024E+03  0.50736223935E+03  0.41800000000E+01 0. -1.
        -11    1    1    2    0    0  0.21890912439E+01  0.28257302633E+02  0.93179317308E+01  0.29834394988E+02  0.00000000000E+00 0.  1.
         11    1    1    2    0    0  0.82038095011E+02 -0.45625578327E+02  0.10382425673E+03  0.13996934920E+03  0.00000000000E+00 0. -1.
</event>
<event>
 7    1  0.2899775E-009  0.2353069E+03  0.7561462E-02  0.1122959E+00
          1   -1    0    0  501    0  0.00000000000E+00  0.00000000000E+00  0.80224311830E+02  0.80224311830E+02  0.00000000000E+00 0. -1.
         -1   -1    0    0    0  501 -0.00000000000E+00 -0.00000000000E+00 -0.84275595422E+03  0.84275595422E+03  0.00000000000E+00 0.  1.
         25    2    1    2    0    0  0.19610097248E+03  0.12578414834E+03 -0.46168878890E+03  0.53205306673E+03  0.12508670849E+03 0.  0.
          5    1    3    3  502    0  0.43136150130E+02  0.15239035319E+02 -0.17051094774E+02  0.49001713016E+02  0.41800000000E+01 0. -1.
         -5    1    3    3    0  502  0.15296482235E+03  0.11054511303E+03 -0.44463769413E+03  0.48305135372E+03  0.41800000000E+01 0. -1.
        -11    1    1    2    0    0 -0.33455320355E+02 -0.39567726860E+02 -0.20876896097E+02  0.55863299755E+02  0.00000000000E+00 0. -1.
         11    1    1    2    0    0 -0.16264565213E+03 -0.86216421485E+02 -0.27996595739E+03  0.33506389956E+03  0.00000000000E+00 0.  1.
</event>
<event>
 7    1  0.2899775E-009  0.1185462E+03  0.7561462E-02  0.1245515E+00
          2   -1    0    0  501    0  0.00000000000E+00  0.00000000000E+00  0.12468971702E+04  0.12468971702E+04  0.00000000000E+00 0. -1.
         -2   -1    0    0    0  501 -0.00000000000E+00 -0.00000000000E+00 -0.17462356988E+02  0.17462356988E+02  0.00000000000E+00 0.  1.
         25    2    1    2    0    0 -0.63620308752E+02  0.15700006732E+02  0.97088545374E+03  0.98110135718E+03  0.12508906780E+03 0.  0.
          5    1    3    3  502    0 -0.64607782889E+02  0.60405451972E+02  0.77969642149E+03  0.78470820457E+03  0.41800000000E+01 0.  1.
         -5    1    3    3    0  502  0.98747413743E+00 -0.44705445241E+02  0.19118903225E+03  0.19639315261E+03  0.41800000000E+01 0.  1.
        -11    1    1    2    0    0  0.18945005440E+02  0.32685255303E+02  0.40079367586E+02  0.55078079591E+02  0.00000000000E+00 0.  1.
         11    1    1    2    0    0  0.44675303312E+02 -0.48385262035E+02  0.21846999192E+03  0.22818009045E+03  0.00000000000E+00 0. -1.
</event>
<event>
 7    1  0.2899775E-009  0.7105264E+02  0.7561462E-02  0.1356550E+00
          3   -1    0    0  501    0  0.00000000000E+00  0.00000000000E+00  0.13118970504E+03  0.13118970504E+03  0.00000000000E+00 0. -1.
         -3   -1    0    0    0  501 -0.00000000000E+00 -0.00000000000E+00 -0.90740122779E+02  0.90740122779E+02  0.00000000000E+00 0.  1.
         25    2    1    2    0    0  0.89148882481E+01  0.82896009107E+01  0.14103390978E+02  0.12647219019E+03  0.12509243197E+03 0.  0.
          5    1    3    3  502    0  0.88717040938E+01 -0.20791319202E+02 -0.50508711121E+02  0.55494039201E+02  0.41800000000E+01 0. -1.
         -5    1    3    3    0  502  0.43184154306E-01  0.29080920112E+02  0.64612102099E+02  0.70978150984E+02  0.41800000000E+01 0. -1.
        -11    1    1    2    0    0 -0.45013274442E+02  0.14207720108E+02  0.38992116401E+01  0.47363045068E+02  0.00000000000E+00 0. -1.
         11    1    1    2    0    0  0.36098386194E+02 -0.22497321019E+02  0.22446979640E+02  0.48094592563E+02  0.00000000000E+00 0.  1.
</event>
<event>
 7    1  0.2899775E-009  0.7929303E+02  0.7561462E-02  0.1331070E+00
         -1   -1    0    0    0  501 -0.00000000000E+00  0.00000000000E+00  0.13134460086E+03  0.13134460086E+03  0.00000000000E+00 0.  1.
          1   -1    0    0  501    0  0.00000000000E+00 -0.00000000000E+00 -0.11884452590E+03  0.11884452590E+03  0.00000000000E+00 0. -1.
         25    2    1    2    0    0 -0.31303066510E+02  0.32839432252E+01 -0.45100173115E+02  0.13664630237E+03  0.12509004789E+03 0.  0.
          5    1    3    3  502    0  0.26495195706E+02 -0.11626272389E+02  0.29151671388E+02  0.41285081444E+02  0.41800000000E+01 0. -1.
         -5    1    3    3    0  502 -0.57798262216E+02  0.14910215614E+02 -0.74251844502E+02  0.95361220927E+02  0.41800000000E+01 0. -1.
        -11    1    1    2    0    0 -0.18866349663E+02  0.24268833955E+01  0.60049305185E+02  0.62990062437E+02  0.00000000000E+00 0.  1.
         11    1    1    2    0    0  0.50169416172E+02 -0.57108266207E+01 -0.24490571113E+01  0.50552761947E+02  0.00000000000E+00 0. -1.
</event>
<event>
 7    1  0.2899775E-009  0.1198223E+03  0.7561462E-02  0.1243391E+00
         -1   -1    0    0    0  501 -0.00000000000E+00  0.00000000000E+00  0.57729751318E+02  0.57729751318E+02  0.00000000000E+00 0.  1.
          1   -1    0    0  501    0  0.00000000000E+00 -0.00000000000E+00 -0.26469341162E+03  0.26469341162E+03  0.00000000000E+00 0. -1.
         25    2    1    2    0    0  0.17061412248E+02  0.53658570464E+02 -0.13630550158E+03  0.19338252431E+03  0.12508907617E+03 0.  0.
          5    1    3    3  502    0  0.24558221734E+02 -0.35207243505E+02 -0.22221705844E+02  0.48517345976E+02  0.41800000000E+01 0. -1.
         -5    1    3    3    0  502 -0.74968094863E+01  0.88865813968E+02 -0.11408379573E+03  0.14486517833E+03  0.41800000000E+01 0. -1.
        -11    1    1    2    0    0  0.37759929819E+02 -0.25887422464E+02 -0.37699721071E+02  0.59306322686E+02  0.00000000000E+00 0.  1.
         11    1    1    2    0    0 -0.54821342067E+02 -0.27771148000E+02 -0.32958437655E+02  0.69734315942E+02  0.00000000000E+00 0. -1.
</event>
<event>
 7    1  0.2899775E-009  0.8776686E+02  0.7561462E-02  0.1308351E+00
          2   -1    0    0  501    0  0.00000000000E+00  0.00000000000E+00  0.12453702619E+03  0.12453702619E+03  0.00000000000E+00 0. -1.
         -2   -1    0    0    0  501 -0.00000000000E+00 -0.00000000000E+00 -0.11091527520E+03  0.11091527520E+03  0.00000000000E+00 0.  1.
         25    2    1    2    0    0  0.34741746347E+01  0.73797355904E+01 -0.34405026472E+02  0.12999128089E+03  0.12508995513E+03 0.  0.
          5    1    3    3  502    0 -0.59009514297E+02  0.56275252602E+01 -0.19984759397E+01  0.59458036666E+02  0.41800000000E+01 0.  1.
         -5    1    3    3    0  502  0.62483688931E+02  0.17522103301E+01 -0.32406550533E+02  0.70533244225E+02  0.41800000000E+01 0.  1.
        -11    1    1    2    0    0 -0.13033839667E+02 -0.27916177219E+02  0.68384987204E+02  0.75004669200E+02  0.00000000000E+00 0. -1.
         11    1    1    2    0    0  0.95596650323E+01  0.20536441629E+02 -0.20358209744E+02  0.30456351297E+02  0.00000000000E+00 0.  1.
</event>
<event>
 7    1  0.2899775E-009  0.1280799E+03  0.7561462E-02  0.1230333E+00
          1   -1    0    0  501    0  0.00000000000E+00  0.00000000000E+00  0.76993717701E+03  0.76993717701E+03  0.00000000000E+00 0. -1.
         -1   -1    0    0    0  501 -0.00000000000E+00 -0.00000000000E+00 -0.23731503744E+02  0.23731503744E+02  0.00000000000E+00 0.  1.
         25    2    1    2    0    0  0.14877450521E+02 -0.76816298492E+02  0.48011926604E+03  0.50227869287E+03  0.12508914197E+03 0.  0.
          5    1    3    3  502    0 -0.14157485704E+02 -0.10011150098E+03  0.26006889219E+03  0.27906280317E+03  0.41800000000E+01 0.  1.
         -5    1    3    3    0  502  0.29034936225E+02  0.23295202490E+02  0.22005037386E+03  0.22321588970E+03  0.41800000000E+01 0.  1.
        -11    1    1    2    0    0 -0.11998280418E+02  0.96687106823E+02  0.23484504288E+03  0.25425292432E+03  0.00000000000E+00 0. -1.
         11    1    1    2    0    0 -0.28791701023E+01 -0.19870808331E+02  0.31241364346E+02  0.37137063568E+02  0.00000000000E+00 0.  1.
</event>
<event>
 7    1  0.2899775E-009  0.1081864E+03  0.7561462E-02  0.1263966E+00
          1   -1    0    0  501    0  0.00000000000E+00  0.00000000000E+00  0.39569024457E+03  0.39569024457E+03  0.00000000000E+00 0. -1.
         -1   -1    0    0    0  501 -0.00000000000E+00 -0.00000000000E+00 -0.39013717115E+02  0.39013717115E+02  0.00000000000E+00 0.  1.
         25    2    1    2    0    0  0.60134424854E+02 -0.62596547635E+01  0.21951407473E+03  0.25978482636E+03  0.12508554942E+03 0.  0.
          5    1    3    3  502    0  0.66473362612E+02  0.30014548280E+02  0.20879306762E+03  0.22120487908E+03  0.41800000000E+01 0.  1.
         -5    1    3    3    0  502 -0.63389377589E+01 -0.36274203044E+02  0.10721007108E+02  0.38579947275E+02  0.41800000000E+01 0.  1.
        -11    1    1    2    0    0 -0.82894548171E+02  0.87793251452E+01  0.12082292836E+03  0.14678815580E+03  0.00000000000E+00 0.  1.
         11    1    1    2    0    0  0.22760123318E+02 -0.25196703818E+01  0.16339524372E+02  0.28130979524E+02  0.00000000000E+00 0. -1.
</event>
<event>
 7    1  0.2899775E-009  0.1132899E+03  0.7561462E-02  0.1254596E+00
         -4   -1    0    0    0  501 -0.00000000000E+00  0.00000000000E+00  0.27622925438E+02  0.27622925438E+02  0.00000000000E+00 0.  1.
          4   -1    0    0  501    0  0.00000000000E+00 -0.00000000000E+00 -0.94279646107E+03  0.94279646107E+03  0.00000000000E+00 0. -1.
         25    2    1    2    0    0  0.33501406608E+02 -0.99805640995E+02 -0.65703805304E+03  0.67707842598E+03  0.12511067728E+03 0.  0.
          5    1    3    3  502    0  0.12640590624E+02 -0.26717904099E+02 -0.20991728111E+02  0.36493231973E+02  0.41800000000E+01 0.  1.
         -5    1    3    3    0  502  0.20860815984E+02 -0.73087736896E+02 -0.63604632493E+03  0.64058519401E+03  0.41800000000E+01 0.  1.
        -11    1    1    2    0    0 -0.42426780942E+02  0.34469961620E+02 -0.46816415610E+02  0.71972124922E+02  0.00000000000E+00 0.  1.
         11    1    1    2    0    0  0.89253743333E+01  0.65335679375E+02 -0.21131906699E+03  0.22136883561E+03  0.00000000000E+00 0. -1.
</event>
<event>
 7    1  0.2899775E-009  0.1327109E+03  0.7561462E-02  0.1223488E+00
         -1   -1    0    0    0  501 -0.00000000000E+00  0.00000000000E+00  0.11035953501E+04  0.11035953501E+04  0.00000000000E+00 0.  1.
          1   -1    0    0  501    0  0.00000000000E+00 -0.00000000000E+00 -0.17496484657E+02  0.17496484657E+02  0.00000000000E+00 0. -1.
         25    2    1    2    0    0 -0.44992885932E+02 -0.68051261045E+02  0.72568994466E+03  0.74089747006E+03  0.12509129243E+03 0.  0.
          5    1    3    3  502    0 -0.19838796169E+02 -0.10353962312E+03  0.52732841642E+03  0.53777947391E+03  0.41800000000E+01 0. -1.
         -5    1    3    3    0  502 -0.25154089762E+02  0.35488362080E+02  0.19836152824E+03  0.20311799615E+03  0.41800000000E+01 0. -1.
        -11    1    1    2    0    0  0.69478489734E+02  0.53911690589E+02  0.21920893000E+03  0.23619120625E+03  0.00000000000E+00 0. -1.
         11    1    1    2    0    0 -0.24485603802E+02  0.14139570456E+02  0.14119999075E+03  0.14400315842E+03  0.00000000000E+00 0.  1.
</event>
<event>
 7    1  0.2899775E-009  0.1337588E+03  0.7561462E-02  0.1221983E+00
          1   -1    0    0  501    0  0.00000000000E+00  0.00000000000E+00  0.55521466190E+03  0.55521466190E+03  0.00000000000E+00 0. -1.
         -1   -1    0    0    0  501 -0.00000000000E+00 -0.00000000000E+00 -0.41816047347E+02  0.41816047347E+02  0.00000000000E+00 0.  1.
         25    2    1    2    0    0 -0.42268037983E+02  0.86814452121E+02  0.18823531483E+03  0.24577346590E+03  0.12509487064E+03 0.  0.
          5    1    3    3  502    0  0.33978499091E+02  0.20316650943E+01  0.13023984238E+02  0.36684637506E+02  0.41800000000E+01 0.  1.
         -5    1    3    3    0  502 -0.76246537073E+02  0.84782787027E+02  0.17521133059E+03  0.20908882839E+03  0.41800000000E+01 0.  1.
        -11    1    1    2    0    0 -0.11160885298E+02 -0.56704121268E+02  0.80961670872E+02  0.99472181437E+02  0.00000000000E+00 0.  1.
         11    1    1    2    0    0  0.53428923281E+02 -0.30110330853E+02  0.24420162885E+03  0.25178506191E+03  0.00000000000E+00 0. -1.
</event>
<event>
 7    1  0.2899775E-009  0.2236961E+03  0.7561462E-02  0.1131157E+00
         -2   -1    0    0    0  501 -0.00000000000E+00  0.00000000000E+00  0.33214555423E+02  0.33214555423E+02  0.00000000000E+00 0.  1.
          2   -1    0    0  501    0  0.00000000000E+00 -0.00000000000E+00 -0.17287324702E+04  0.17287324702E+04  0.00000000000E+00 0. -1.
         25    2    1    2    0    0  0.18712928290E+03 -0.91494932100E+02 -0.10378256195E+04  0.10658888750E+04  0.12509351042E+03 0.  0.
          5    1    3    3  502    0  0.34764334403E+02 -0.67519794787E+02 -0.20000596230E+03  0.21397976304E+03  0.41800000000E+01 0. -1.
         -5    1    3    3    0  502  0.15236494849E+03 -0.23975137313E+02 -0.83781965719E+03  0.85190911200E+03  0.41800000000E+01 0. -1.
        -11    1    1    2    0    0 -0.14370753305E+03  0.96834428948E+02 -0.59420122223E+03  0.61895383849E+03  0.00000000000E+00 0.  1.
         11    1    1    2    0    0 -0.43421749843E+02 -0.53394968480E+01 -0.63491073099E+02  0.77104312131E+02  0.00000000000E+00 0. -1.
</event>
<event>
 7    1  0.2899775E-009  0.1735676E+03  0.7561462E-02  0.1174178E+00
         -3   -1    0    0    0  501 -0.00000000000E+00  0.00000000000E+00  0.18074901582E+03  0.18074901582E+03  0.00000000000E+00 0.  1.
          3   -1    0    0  501    0  0.00000000000E+00 -0.00000000000E+00 -0.60354799541E+03  0.60354799541E+03  0.00000000000E+00 0. -1.
         25    2    1    2    0    0 -0.97884501731E+02  0.33139566338E+02  0.12223003964E+03  0.20314356937E+03  0.12509005016E+03 0.  0.
          5    1    3    3  502    0 -0.11236306271E+03  0.20918738187E+01  0.12545409506E+03  0.16848156031E+03  0.41800000000E+01 0. -1.
         -5    1    3    3    0  502  0.14478560981E+02  0.31047692520E+02 -0.32240554142E+01  0.34662009062E+02  0.41800000000E+01 0. -1.
        -11    1    1    2    0    0  0.13556288724E+03 -0.65443245608E+02 -0.43879829182E+03  0.46390091150E+03  0.00000000000E+00 0. -1.
         11    1    1    2    0    0 -0.37678385510E+02  0.32303679270E+02 -0.10623072741E+03  0.11725253036E+03  0.00000000000E+00 0.  1.
</event>
<event>
 7    1  0.2899775E-009  0.7707066E+02  0.7561462E-02  0.1337576E+00
          3   -1    0    0  501    0  0.00000000000E+00  0.00000000000E+00  0.13910520500E+03  0.13910520500E+03  0.00000000000E+00 0. -1.
         -3   -1    0    0    0  501 -0.00000000000E+00 -0.00000000000E+00 -0.87897621342E+02  0.87897621342E+02  0.00000000000E+00 0.  1.
         25    2    1    2    0    0  0.23288909995E+02  0.56913768772E+01  0.27040571353E+02  0.13019912620E+03  0.12508339164E+03 0.  0.
          5    1    3    3  502    0  0.34736287313E+02 -0.42641349367E+02 -0.22824097793E+02  0.59693434917E+02  0.41800000000E+01 0. -1.
         -5    1    3    3    0  502 -0.11447377319E+02  0.48332726244E+02  0.49864669146E+02  0.70505691279E+02  0.41800000000E+01 0. -1.
        -11    1    1    2    0    0  0.35999856928E+01  0.14863197831E+02  0.51233139264E+02  0.53466897288E+02  0.00000000000E+00 0. -1.
         11    1    1    2    0    0 -0.26888895688E+02 -0.20554574708E+02 -0.27066126965E+02  0.43336802854E+02  0.00000000000E+00 0.  1.
</event>
<event>
 7    1  0.2899775E-009  0.1408168E+03  0.7561462E-02  0.1212234E+00
         -1   -1    0    0    0  501 -0.00000000000E+00  0.00000000000E+00  0.18835505060E+02  0.18835505060E+02  0.00000000000E+00 0.  1.
          1   -1    0    0  501    0  0.00000000000E+00 -0.00000000000E+00 -0.11623399534E+04  0.11623399534E+04  0.00000000000E+00 0. -1.
         25    2    1    2    0    0 -0.94482308520E+02  0.35970759449E+02 -0.61026877889E+03  0.63110574531E+03  0.12508268113E+03 0.  0.
          5    1    3    3  502    0 -0.92673040343E+02  0.68285784773E+02 -0.55578158482E+03  0.56759306129E+03  0.41800000000E+01 0.  1.
         -5    1    3    3    0  502 -0.18092681774E+01 -0.32315025325E+02 -0.54487194077E+02  0.63512684020E+02  0.41800000000E+01 0.  1.
        -11    1    1    2    0    0  0.45269551839E+02 -0.63065183503E+02 -0.34519716296E+03  0.35381864141E+03  0.00000000000E+00 0.  1.
         11    1    1    2    0    0  0.49212756681E+02  0.27094424054E+02 -0.18803850646E+03  0.19625107171E+03  0.00000000000E+00 0. -1.
</event>
<event>
 7    1  0.2899775E-009  0.7072655E+02  0.7561462E-02  0.1357640E+00
         -2   -1    0    0    0  501 -0.00000000000E+00  0.00000000000E+00  0.56533033127E+03  0.56533033127E+03  0.00000000000E+00 0.  1.
          2   -1    0    0  501    0  0.00000000000E+00 -0.00000000000E+00 -0.32030897794E+02  0.32030897794E+02  0.00000000000E+00 0. -1.
         25    2    1    2    0    0 -0.54426619311E+02 -0.24552540620E+02  0.41174327699E+03  0.43444840898E+03  0.12509120582E+03 0.  0.
          5    1    3    3  502    0 -0.14888870965E+02 -0.25281050668E+02  0.10806633120E+02  0.31544662320E+02  0.41800000000E+01 0.  1.
         -5    1    3    3    0  502 -0.39537748346E+02  0.72851004750E+00  0.40093664387E+03  0.40290374666E+03  0.41800000000E+01 0.  1.
        -11    1    1    2    0    0  0.41133081093E+02 -0.32235246351E+01  0.40714443079E+01  0.41459596357E+02  0.00000000000E+00 0. -1.
         11    1    1    2    0    0  0.13293538217E+02  0.27776065255E+02  0.11748471218E+03  0.12145322373E+03  0.00000000000E+00 0.  1.
</event>
<event>
 7    1  0.2899775E-009  0.1269092E+03  0.7561462E-02  0.1232115E+00
          2   -1    0    0  501    0  0.00000000000E+00  0.00000000000E+00  0.96771727048E+03  0.96771727048E+03  0.00000000000E+00 0. -1.
         -2   -1    0    0    0  501 -0.00000000000E+00 -0.00000000000E+00 -0.28113283002E+02  0.28113283002E+02  0.00000000000E+00 0.  1.
         25    2    1    2    0    0 -0.67833327942E+02  0.10374620627E+03  0.51582141147E+03  0.54505469289E+03  0.12509298149E+03 0.  0.
          5    1    3    3  502    0 -0.37110114432E+01  0.26677158007E+02  0.35124183235E+03  0.35229779953E+03  0.41800000000E+01 0.  1.
         -5    1    3    3    0  502 -0.64122316499E+02  0.77069048259E+02  0.16457957913E+03  0.19275689336E+03  0.41800000000E+01 0.  1.
        -11    1    1    2    0    0  0.27065481162E+02 -0.63055324468E+02  0.96183172618E+02  0.11815124591E+03  0.00000000000E+00 0.  1.
         11    1    1    2    0    0  0.40767846780E+02 -0.40690881799E+02  0.32759940338E+03  0.33262461468E+03  0.00000000000E+00 0. -1.
</event>
<event>
 7    1  0.2899775E-009  0.1372873E+03  0.7561462E-02  0.1217026E+00
          2   -1    0    0  501    0  0.00000000000E+00  0.00000000000E+00  0.24310255704E+03  0.24310255704E+03  0.00000000000E+00 0. -1.
         -2   -1    0    0    0  501 -0.00000000000E+00 -0.00000000000E+00 -0.12554481883E+03  0.12554481883E+03  0.00000000000E+00 0.  1.
         25    2    1    2    0    0  0.88756336059E+02  0.10287463649E+03  0.84318586319E+02  0.20301203761E+03  0.12507351996E+03 0.  0.
          5    1    3    3  502    0  0.35271361130E+02  0.26622659092E+02  0.99125432130E+02  0.10861012194E+03  0.41800000000E+01 0. -1.
         -5    1    3    3    0  502  0.53484974929E+02  0.76251977396E+02 -0.14806845811E+02  0.94401915673E+02  0.41800000000E+01 0. -1.
        -11    1    1    2    0    0 -0.52749214024E+02 -0.47999803258E+02 -0.27279896389E+02  0.76358715547E+02  0.00000000000E+00 0.  1.
         11    1    1    2    0    0 -0.36007122034E+02 -0.54874833229E+02  0.60519048277E+02  0.89276622716E+02  0.00000000000E+00 0. -1.
</event>
<event>
 7    1  0.2899775E-009  0.1704377E+03  0.7561462E-02  0.1177392E+00
          1   -1    0    0  501    0  0.00000000000E+00  0.00000000000E+00  0.71062578458E+03  0.71062578458E+03  0.00000000000E+00 0. -1.
         -1   -1    0    0    0  501 -0.00000000000E+00 -0.00000000000E+00 -0.57618725834E+02  0.57618725834E+02  0.00000000000E+00 0.  1.
         25    2    1    2    0    0 -0.16572080124E+03 -0.37006262504E+02  0.43628659878E+03  0.48458888127E+03  0.12509012810E+03 0.  0.
          5    1    3    3  502    0 -0.14376070911E+03 -0.36267392999E+02  0.43772888275E+03  0.46217584583E+03  0.41800000000E+01 0.  1.
         -5    1    3    3    0  502 -0.21960092133E+02 -0.73886950468E+00 -0.14422839658E+01  0.22413035441E+02  0.41800000000E+01 0.  1.
        -11    1    1    2    0    0  0.98899826033E+02  0.27800380090E+02  0.17896629485E+03  0.20635641840E+03  0.00000000000E+00 0. -1.
         11    1    1    2    0    0  0.66820975206E+02  0.92058824133E+01  0.37754165118E+02  0.77299210748E+02  0.00000000000E+00 0.  1.
</event>
<event>
 6    1  0.2899775E-009  0.9559708E+02  0.7561462E-02  0.1289837E+00
         -1   -1    0    0    0  501 -0.00000000000E+00  0.00000000000E+00  0.85887522708E+02  0.85887522708E+02  0.00000000000E+00 0.  1.
          1   -1    0    0  501    0  0.00000000000E+00 -0.00000000000E+00 -0.20885182212E+03  0.20885182212E+03  0.00000000000E+00 0. -1.
          5    1    1    2  502    0 -0.12840932455E+01 -0.80768292569E+02 -0.12736048842E+03  0.15087522126E+03  0.41800000000E+01 0. -1.
         -5    1    1    2    0  502  0.21629633066E+02  0.15940811982E+02  0.14563542183E+02  0.30846712534E+02  0.41800000000E+01 0. -1.
        -11    1    1    2    0    0 -0.16693314386E+02 -0.14325163708E+01  0.30776985890E+02  0.35041999212E+02  0.00000000000E+00 0.  1.
         11    1    1    2    0    0 -0.36522254345E+01  0.66259996958E+02 -0.40944339069E+02  0.77975411825E+02  0.00000000000E+00 0. -1.
</event>
<event>
 7    1  0.2899775E-009  0.7736960E+02  0.7561462E-02  0.1336686E+00
         -1   -1    0    0    0  501 -0.00000000000E+00  0.00000000000E+00  0.11457057400E+02  0.11457057400E+02  0.00000000000E+00 0.  1.
          1   -1    0    0  501    0  0.00000000000E+00 -0.00000000000E+00 -0.14040683676E+04  0.14040683676E+04  0.00000000000E+00 0. -1.
         25    2    1    2    0    0  0.15264912284E+02  0.25631956629E+02 -0.11180220911E+04  0.11253939019E+04  0.12509206052E+03 0.  0.
          5    1    3    3  502    0  0.14262170005E+02  0.43831726806E+02 -0.14532519439E+03  0.15251725900E+03  0.41800000000E+01 0. -1.
         -5    1    3    3    0  502  0.10027422796E+01 -0.18199770177E+02 -0.97269689668E+03  0.97287664292E+03  0.41800000000E+01 0. -1.
        -11    1    1    2    0    0  0.32379370535E+02 -0.26898703591E+02 -0.17098204559E+03  0.17608754586E+03  0.00000000000E+00 0. -1.
         11    1    1    2    0    0 -0.47644282819E+02  0.12667469611E+01 -0.10360717355E+03  0.11404397724E+03  0.00000000000E+00 0.  1.
</event>
<event>
 7    1  0.2899775E-009  0.8529244E+02  0.7561462E-02  0.1314670E+00
          1   -1    0    0  501    0  0.00000000000E+00  0.00000000000E+00  0.13454688326E+03  0.13454688326E+03  0.00000000000E+00 0. -1.
         -1   -1    0    0    0  501 -0.00000000000E+00 -0.00000000000E+00 -0.13858641615E+03  0.13858641615E+03  0.00000000000E+00 0.  1.
         25    2    1    2    0    0 -0.58967921838E+02 -0.35242850120E+02  0.47437642029E+02  0.15039161228E+03  0.12509209756E+03 0.  0.
          5    1    3    3  502    0  0.17662926384E+02 -0.90591721440E+01  0.64424605657E+02  0.67542947689E+02  0.41800000000E+01 0.  1.
         -5    1    3    3    0  502 -0.76630848222E+02 -0.26183677976E+02 -0.16986963628E+02  0.82848664594E+02  0.41800000000E+01 0.  1.
        -11    1    1    2    0    0  0.20329595739E+02  0.16911397753E+02  0.24180950323E+02  0.35833032183E+02  0.00000000000E+00 0. -1.
         11    1    1    2    0    0  0.38638326099E+02  0.18331452367E+02 -0.75658125241E+02  0.86908654946E+02  0.00000000000E+00 0.  1.
</event>
<event>
 7    1  0.2899775E-009  0.1244088E+03  0.7561462E-02  0.1235996E+00
          1   -1    0    0  501    0  0.00000000000E+00  0.00000000000E+00  0.69875322922E+02  0.69875322922E+02  0.00000000000E+00 0. -1.
         -1   -1    0    0    0  501 -0.00000000000E+00 -0.00000000000E+00 -0.36074965436E+03  0.36074965436E+03  0.00000000000E+00 0.  1.
         25    2    1    2    0    0  0.99473186366E+02  0.52924017929E+02 -0.19137196222E+03  0.25488578293E+03  0.12509063887E+03 0.  0.
          5    1    3    3  502    0  0.70472310613E+02  0.22410797181E+02 -0.19860632057E+03  0.21196823668E+03  0.41800000000E+01 0. -1.
         -5    1    3    3    0  502  0.29000875753E+02  0.30513220748E+02  0.72343583447E+01  0.42917546243E+02  0.41800000000E+01 0. -1.
        -11    1    1    2    0    0 -0.76462775521E+02 -0.19143468027E+01 -0.20970659074E+02  0.79309452816E+02  0.00000000000E+00 0.  1.
         11    1    1    2    0    0 -0.23010410845E+02 -0.51009671126E+02 -0.78531710142E+02  0.96429741540E+02  0.00000000000E+00 0. -1.
</event>
<event>
 7    1  0.2899775E-009  0.1585697E+03  0.7561462E-02  0.1190321E+00
         -2   -1    0    0    0  501 -0.00000000000E+00  0.00000000000E+00  0.44877293387E+02  0.44877293387E+02  0.00000000000E+00 0.  1.
          2   -1    0    0  501    0  0.00000000000E+00 -0.00000000000E+00 -0.13947543925E+04  0.13947543925E+04  0.00000000000E+00 0. -1.
         25    2    1    2    0    0 -0.10220066532E+03 -0.11428025304E+03 -0.11686107518E+04  0.11852440688E+04  0.12508981178E+03 0.  0.
          5    1    3    3  502    0 -0.29062870024E+02 -0.96140953352E+01 -0.46155590623E+02  0.55541805777E+02  0.41800000000E+01 0.  1.
         -5    1    3    3    0  502 -0.73137795295E+02 -0.10466615771E+03 -0.11224551612E+04  0.11297022630E+04  0.41800000000E+01 0.  1.
        -11    1    1    2    0    0  0.65414087232E+02  0.43020729902E+02 -0.14826690704E+03  0.16766890508E+03  0.00000000000E+00 0.  1.
         11    1    1    2    0    0  0.36786578087E+02  0.71259523140E+02 -0.32999440278E+02  0.86718712076E+02  0.00000000000E+00 0. -1.
</event>
<event>
 7    1  0.2899775E-009  0.1490558E+03  0.7561462E-02  0.1201638E+00
          1   -1    0    0  501    0  0.00000000000E+00  0.00000000000E+00  0.24948564392E+03  0.24948564392E+03  0.00000000000E+00 0. -1.
         -1   -1    0    0    0  501 -0.00000000000E+00 -0.00000000000E+00 -0.11919337897E+03  0.11919337897E+03  0.00000000000E+00 0.  1.
         25    2    1    2    0    0  0.82555184950E+02 -0.99307222746E+02  0.60629377138E+02  0.18974002261E+03  0.12509225298E+03 0.  0.
          5    1    3    3  502    0  0.10006572971E+03 -0.42374976333E+02  0.61688641013E+01  0.10892344176E+03  0.41800000000E+01 0. -1.
         -5    1    3    3    0  502 -0.17510544756E+02 -0.56932246412E+02  0.54460513036E+02  0.80816580845E+02  0.41800000000E+01 0. -1.
        -11    1    1    2    0    0 -0.71837011086E+02  0.79628559186E+02  0.96296394686E+02  0.14413278333E+03  0.00000000000E+00 0. -1.
         11    1    1    2    0    0 -0.10718173864E+02  0.19678663560E+02 -0.26633506868E+02  0.34806216953E+02  0.00000000000E+00 0.  1.
</event>
<event>
 7    1  0.2899775E-009  0.8719082E+02  0.7561462E-02  0.1309801E+00
         -1   -1    0    0    0  501 -0.00000000000E+00  0.00000000000E+00  0.58498600667E+03  0.58498600667E+03  0.00000000000E+00 0.  1.
          1   -1    0    0  501    0  0.00000000000E+00 -0.00000000000E+00 -0.23605434634E+02  0.23605434634E+02  0.00000000000E+00 0. -1.
         25    2    1    2    0    0 -0.32203206070E+02 -0.72831138996E+01  0.23957210114E+03  0.27227198190E+03  0.12508856963E+03 0.  0.
          5    1    3    3  502    0 -0.27564437633E+02 -0.38579214061E+02  0.22114246999E+02  0.52484914975E+02  0.41800000000E+01 0. -1.
         -5    1    3    3    0  502 -0.46387684373E+01  0.31296100162E+02  0.21745785414E+03  0.21978706692E+03  0.41800000000E+01 0. -1.
        -11    1    1    2    0    0  0.35016099507E+02 -0.36741937359E+02  0.13126552113E+03  0.14073639978E+03  0.00000000000E+00 0. -1.
         11    1    1    2    0    0 -0.28128934369E+01  0.44025051259E+02  0.19054294976E+03  0.19558305962E+03  0.00000000000E+00 0.  1.
</event>
<event>
 7    1  0.2899775E-009  0.8870407E+02  0.7561462E-02  0.1306021E+00
         -2   -1    0    0    0  501 -0.00000000000E+00  0.00000000000E+00  0.26555073580E+02  0.26555073580E+02  0.00000000000E+00 0.  1.
          2   -1    0    0  501    0  0.00000000000E+00 -0.00000000000E+00 -0.40843718534E+03  0.40843718534E+03  0.00000000000E+00 0. -1.
         25    2    1    2    0    0  0.51759026643E+01  0.35027012505E+02 -0.26781698839E+03  0.29770053827E+03  0.12508393039E+03 0.  0.
          5    1    3    3  502    0 -0.14303140797E+02 -0.35029713697E+02 -0.28523399421E+02  0.47568029104E+02  0.41800000000E+01 0.  1.
         -5    1    3    3    0  502  0.19479043461E+02  0.70056726201E+02 -0.23929358897E+03  0.25013250917E+03  0.41800000000E+01 0.  1.
        -11    1    1    2    0    0  0.24200566327E+02 -0.54235734813E+01 -0.13091142313E+02  0.28043904274E+02  0.00000000000E+00 0.  1.
         11    1    1    2    0    0 -0.29376468991E+02 -0.29603439023E+02 -0.10097398105E+03  0.10924781637E+03  0.00000000000E+00 0. -1.
</event>
<event>
 7    1  0.2899775E-009  0.1228004E+03  0.7561462E-02  0.1238547E+00
          2   -1    0    0  501    0  0.00000000000E+00  0.00000000000E+00  0.87040289042E+03  0.87040289042E+03  0.00000000000E+00 0. -1.
         -2   -1    0    0    0  501 -0.00000000000E+00 -0.00000000000E+00 -0.18073042492E+02  0.18073042492E+02  0.00000000000E+00 0.  1.
         25    2    1    2    0    0 -0.49641085614E+02  0.38862444055E+02  0.48539196508E+03  0.50519814463E+03  0.12508108823E+03 0.  0.
          5    1    3    3  502    0  0.31644012007E+02 -0.17298710039E+02  0.19715408742E+03  0.20046893887E+03  0.41800000000E+01 0. -1.
         -5    1    3    3    0  502 -0.81285097621E+02  0.56161154094E+02  0.28823787766E+03  0.30472920576E+03  0.41800000000E+01 0. -1.
        -11    1    1    2    0    0  0.69066173506E+02 -0.52431048729E+02  0.27581811104E+03  0.28912762160E+03  0.00000000000E+00 0.  1.
         11    1    1    2    0    0 -0.19425087892E+02  0.13568604674E+02  0.91119771805E+02  0.94150166682E+02  0.00000000000E+00 0. -1.
</event>
<event>
 7    1  0.3625486E-009  0.1113388E+03  0.7561462E-02  0.1258111E+00
          4   -1    0    0  501    0  0.00000000000E+00  0.00000000000E+00  0.35191413293E+03  0.35191413293E+03  0.00000000000E+00 0. -1.
         -4   -1    0    0    0  501 -0.00000000000E+00 -0.00000000000E+00 -0.37510538112E+02  0.37510538112E+02  0.00000000000E+00 0.  1.
         25    2    1    2    0    0  0.14654408646E+02  0.28239293440E+02  0.14453793853E+03  0.19377888279E+03  0.12508729094E+03 0.  0.
          5    1    3    3  502    0  0.18403761864E+02  0.76334440197E+02  0.72339681963E+02  0.10684637194E+03  0.41800000000E+01 0. -1.
         -5    1    3    3    0  502 -0.37493532180E+01 -0.48095146757E+02  0.72198256566E+02  0.86932510848E+02  0.41800000000E+01 0. -1.
        -11    1    1    2    0    0 -0.52580268388E+02 -0.22793349899E+02  0.84790533705E+02  0.10234088152E+03  0.00000000000E+00 0.  1.
         11    1    1    2    0    0  0.37925859742E+02 -0.54459435404E+01  0.85075122589E+02  0.93304906740E+02  0.00000000000E+00 0. -1.
</event>
<event>
 7    1  0.2899775E-009  0.1163551E+03  0.7561462E-02  0.1249234E+00
         -2   -1    0    0    0  501 -0.00000000000E+00  0.00000000000E+00  0.13115198629E+02  0.13115198629E+02  0.00000000000E+00 0.  1.
          2   -1    0    0  501    0  0.00000000000E+00 -0.00000000000E+00 -0.11588278547E+04  0.11588278547E+04  0.00000000000E+00 0. -1.
         25    2    1    2    0    0 -0.32176689154E+02 -0.30975755827E+02 -0.82747812664E+03  0.83807066546E+03  0.12509018132E+03 0.  0.
          5    1    3    3  502    0  0.31793572166E+02 -0.54946644261E+02 -0.44363843094E+03  0.44817685656E+03  0.41800000000E+01 0.  1.
         -5    1    3    3    0  502 -0.63970261320E+02  0.23970888434E+02 -0.38383969570E+03  0.38989380890E+03  0.41800000000E+01 0.  1.
        -11    1    1    2    0    0  0.22773598677E+02  0.63148947620E+02 -0.19911160171E+03  0.21012343115E+03  0.00000000000E+00 0.  1.
         11    1    1    2    0    0  0.94030904761E+01 -0.32173191792E+02 -0.11912292774E+03  0.12374895673E+03  0.00000000000E+00 0. -1.
</event>
<event>
 7    1  0.2899775E-009  0.1146430E+03  0.7561462E-02  0.1252206E+00
         -2   -1    0    0    0  501 -0.00000000000E+00  0.00000000000E+00  0.62462633019E+02  0.62462633019E+02  0.00000000000E+00 0.  1.
          2   -1    0    0  501    0  0.00000000000E+00 -0.00000000000E+00 -0.26033492651E+03  0.26033492651E+03  0.00000000000E+00 0. -1.
         25    2    1    2    0    0 -0.67779457752E+02 -0.25127488784E+02 -0.11868633447E+03  0.18697532365E+03  0.12509148684E+03 0.  0.
          5    1    3    3  502    0 -0.13902691435E+02  0.43666850532E+02 -0.93634067821E+01  0.46959817409E+02  0.41800000000E+01 0.  1.
         -5    1    3    3    0  502 -0.53876766317E+02 -0.68794339316E+02 -0.10932292769E+03  0.14001550624E+03  0.41800000000E+01 0.  1.
        -11    1    1    2    0    0  0.70747435016E+02  0.26336713473E+00 -0.23138939521E+02  0.74435740379E+02  0.00000000000E+00 0.  1.
         11    1    1    2    0    0 -0.29679772641E+01  0.24864121649E+02 -0.56047019502E+02  0.61386495498E+02  0.00000000000E+00 0. -1.
</event>
<event>
 7    1  0.2899775E-009  0.1274538E+03  0.7561462E-02  0.1231284E+00
         -2   -1    0    0    0  501 -0.00000000000E+00  0.00000000000E+00  0.43827726582E+02  0.43827726582E+02  0.00000000000E+00 0.  1.
          2   -1    0    0  501    0  0.00000000000E+00 -0.00000000000E+00 -0.59937050086E+03  0.59937050086E+03  0.00000000000E+00 0. -1.
         25    2    1    2    0    0  0.18048776952E+02 -0.85087016141E+02 -0.13406024857E+03  0.20294337488E+03  0.12509318325E+03 0.  0.
          5    1    3    3  502    0 -0.37649269941E+02 -0.47331298640E+02 -0.95758266762E+01  0.61374980363E+02  0.41800000000E+01 0.  1.
         -5    1    3    3    0  502  0.55698046893E+02 -0.37755717501E+02 -0.12448442190E+03  0.14156839452E+03  0.41800000000E+01 0.  1.
        -11    1    1    2    0    0  0.37007328748E+02  0.47447370959E+02 -0.18432423987E+03  0.19389744917E+03  0.00000000000E+00 0. -1.
         11    1    1    2    0    0 -0.55056105700E+02  0.37639645181E+02 -0.23715828584E+03  0.24635740339E+03  0.00000000000E+00 0.  1.
</event>
<event>
 7    1  0.2899775E-009  0.8701104E+02  0.7561462E-02  0.1310256E+00
         -1   -1    0    0    0  501 -0.00000000000E+00  0.00000000000E+00  0.30497840732E+03  0.30497840732E+03  0.00000000000E+00 0.  1.
          1   -1    0    0  501    0  0.00000000000E+00 -0.00000000000E+00 -0.37677559909E+02  0.37677559909E+02  0.00000000000E+00 0. -1.
         25    2    1    2    0    0 -0.93262616821E+01 -0.16011386501E+02  0.18511852906E+03  0.22418867464E+03  0.12509335867E+03 0.  0.
          5    1    3    3  502    0  0.80096430888E+01  0.38401641463E+02  0.15409325120E+03  0.15906301555E+03  0.41800000000E+01 0.  1.
         -5    1    3    3    0  502 -0.17335904771E+02 -0.54413027964E+02  0.31025277853E+02  0.65125659093E+02  0.41800000000E+01 0.  1.
        -11    1    1    2    0    0 -0.84246996873E+01  0.43654246984E+02  0.70987034255E+02  0.83760538901E+02  0.00000000000E+00 0.  1.
         11    1    1    2    0    0  0.17750961369E+02 -0.27642860483E+02  0.11195284098E+02  0.34706753684E+02  0.00000000000E+00 0. -1.
</event>
<event>
 7    1  0.2899775E-009  0.1154122E+03  0.7561462E-02  0.1250863E+00
          1   -1    0    0  501    0  0.00000000000E+00  0.00000000000E+00  0.60104295766E+03  0.60104295766E+03  0.00000000000E+00 0. -1.
         -1   -1    0    0    0  501 -0.00000000000E+00 -0.00000000000E+00 -0.44910155154E+02  0.44910155154E+02  0.00000000000E+00 0.  1.
         25    2    1    2    0    0 -0.84363826490E+02  0.69021035336E+02  0.18559969775E+03  0.24894896258E+03  0.12508868704E+03 0.  0.
          5    1    3    3  502    0 -0.28837938559E+02  0.58431369514E+01 -0.13596978093E+02  0.32682092390E+02  0.41800000000E+01 0.  1.
         -5    1    3    3    0  502 -0.55525887932E+02  0.63177898385E+02  0.19919667584E+03  0.21626687019E+03  0.41800000000E+01 0.  1.
        -11    1    1    2    0    0  0.45552551298E+02 -0.62804064299E+02  0.33549263628E+03  0.34434676479E+03  0.00000000000E+00 0.  1.
         11    1    1    2    0    0  0.38811275192E+02 -0.62169710369E+01  0.35040468478E+02  0.52657385446E+02  0.00000000000E+00 0. -1.
</event>
<event>
 7    1  0.3312429E-009  0.2237894E+03  0.7561462E-02  0.1131089E+00
          2   -1    0    0  501    0  0.00000000000E+00  0.00000000000E+00  0.11375364001E+04  0.11375364001E+04  0.00000000000E+00 0. -1.
         -2   -1    0    0    0  501 -0.00000000000E+00 -0.00000000000E+00 -0.55534305539E+02  0.55534305539E+02  0.00000000000E+00 0.  1.
         25    2    1    2    0    0 -0.20141382073E+03 -0.27167706981E+01  0.31170675328E+03  0.39164059332E+03  0.12508535597E+03 0.  0.
          5    1    3    3  502    0 -0.45207852300E+02 -0.55589102694E+02  0.84602216852E+02  0.11094550799E+03  0.41800000000E+01 0. -1.
         -5    1    3    3    0  502 -0.15620596843E+03  0.52872331996E+02  0.22710453642E+03  0.28069508533E+03  0.41800000000E+01 0. -1.
        -11    1    1    2    0    0  0.11002011178E+03 -0.29549109912E+02  0.29244959936E+03  0.31385401552E+03  0.00000000000E+00 0.  1.
         11    1    1    2    0    0  0.91393708947E+02  0.32265880610E+02  0.47784574189E+03  0.48757609675E+03  0.00000000000E+00 0. -1.
</event>
<event>
 7    1  0.2899775E-009  0.7276945E+02  0.7561462E-02  0.1350921E+00
         -1   -1    0    0    0  501 -0.00000000000E+00  0.00000000000E+00  0.59393225608E+02  0.59393225608E+02  0.00000000000E+00 0.  1.
          1   -1    0    0  501    0  0.00000000000E+00 -0.00000000000E+00 -0.20902547898E+03  0.20902547898E+03  0.00000000000E+00 0. -1.
         25    2    1    2    0    0 -0.52075893857E+01  0.90921101609E+01 -0.11609940828E+03  0.17098500424E+03  0.12508802348E+03 0.  0.
          5    1    3    3  502    0  0.19106910468E+02  0.19197399995E+02 -0.13535260832E+03  0.13809929462E+03  0.41800000000E+01 0.  1.
         -5    1    3    3    0  502 -0.24314499854E+02 -0.10105289834E+02  0.19253200039E+02  0.32885709625E+02  0.41800000000E+01 0.  1.
        -11    1    1    2    0    0  0.42685249935E+02 -0.26401739401E+02 -0.17713117287E+02  0.53224401635E+02  0.00000000000E+00 0. -1.
         11    1    1    2    0    0 -0.37477660549E+02  0.17309629240E+02 -0.15819727801E+02  0.44209298709E+02  0.00000000000E+00 0.  1.
</event>
<event>
 7    1  0.2899775E-009  0.1376120E+03  0.7561462E-02  0.1216579E+00
          4   -1    0    0  501    0  0.00000000000E+00  0.00000000000E+00  0.19561939713E+03  0.19561939713E+03  0.00000000000E+00 0. -1.
         -4   -1    0    0    0  501 -0.00000000000E+00 -0.00000000000E+00 -0.12691467562E+03  0.12691467562E+03  0.00000000000E+00 0.  1.
         25    2    1    2    0    0 -0.11147560233E+03 -0.83216526711E+01  0.57748184407E+02  0.17742381840E+03  0.12509316014E+03 0.  0.
          5    1    3    3  502    0 -0.11271006587E+03 -0.46377999374E+02  0.65372469802E+02  0.13836730098E+03  0.41800000000E+01 0. -1.
         -5    1    3    3    0  502  0.12344635368E+01  0.38056346702E+02 -0.76242853950E+01  0.39056517412E+02  0.41800000000E+01 0. -1.
        -11    1    1    2    0    0  0.20544863989E+02  0.12309274234E+02 -0.35576364918E+02  0.42886914196E+02  0.00000000000E+00 0.  1.
         11    1    1    2    0    0  0.90930738342E+02 -0.39876215624E+01  0.46532902024E+02  0.10222334015E+03  0.00000000000E+00 0. -1.
</event>
<event>
 7    1  0.2899775E-009  0.9598268E+02  0.7561462E-02  0.1288978E+00
          1   -1    0    0  501    0  0.00000000000E+00  0.00000000000E+00  0.24873454604E+03  0.24873454604E+03  0.00000000000E+00 0. -1.
         -1   -1    0    0    0  501 -0.00000000000E+00 -0.00000000000E+00 -0.61802245932E+02  0.61802245932E+02  0.00000000000E+00 0.  1.
         25    2    1    2    0    0 -0.52840719155E+02  0.11432229246E+02  0.74200841368E+02  0.15516523818E+03  0.12509056245E+03 0.  0.
          5    1    3    3  502    0 -0.58110290041E+02 -0.29786569271E+02 -0.50035935000E+01  0.65624338972E+02  0.41800000000E+01 0. -1.
         -5    1    3    3    0  502  0.52695708861E+01  0.41218798517E+02  0.79204434868E+02  0.89540899209E+02  0.41800000000E+01 0. -1.
        -11    1    1    2    0    0  0.30816826739E+02  0.26672417460E+02  0.76807699355E+01  0.41473954360E+02  0.00000000000E+00 0.  1.
         11    1    1    2    0    0  0.22023892415E+02 -0.38104646706E+02  0.10505068881E+03  0.11389759943E+03  0.00000000000E+00 0. -1.
</event>
<event>
 7    1  0.2899775E-009  0.9987295E+02  0.7561462E-02  0.1280563E+00
         -2   -1    0    0    0  501 -0.00000000000E+00  0.00000000000E+00  0.27115542226E+02  0.27115542226E+02  0.00000000000E+00 0.  1.
          2   -1    0    0  501    0  0.00000000000E+00 -0.00000000000E+00 -0.52883742118E+03  0.52883742118E+03  0.00000000000E+00 0. -1.
         25    2    1    2    0    0 -0.16015713152E+02 -0.35144478568E+02 -0.35117291805E+03  0.37478014407E+03  0.12508437384E+03 0.  0.
          5    1    3    3  502    0 -0.67662271854E+02 -0.32288670927E+02 -0.16091751337E+03  0.17757437825E+03  0.41800000000E+01 0.  1.
         -5    1    3    3    0  502  0.51646558702E+02 -0.28558076413E+01 -0.19025540468E+03  0.19720576582E+03  0.41800000000E+01 0.  1.
        -11    1    1    2    0    0 -0.43947650834E+01  0.48287933143E+02 -0.27481694015E+02  0.55734028684E+02  0.00000000000E+00 0.  1.
         11    1    1    2    0    0  0.20410478235E+02 -0.13143454575E+02 -0.12306726688E+03  0.12543879064E+03  0.00000000000E+00 0. -1.
</event>
<event>
 7    1  0.2899775E-009  0.8254800E+02  0.7561462E-02  0.1321972E+00
          2   -1    0    0  501    0  0.00000000000E+00  0.00000000000E+00  0.10428857556E+03  0.10428857556E+03  0.00000000000E+00 0. -1.
         -2   -1    0    0    0  501 -0.00000000000E+00 -0.00000000000E+00 -0.12046356627E+03  0.12046356627E+03  0.00000000000E+00 0.  1.
         25    2    1    2    0    0 -0.14976288198E+02  0.14950456880E+02 -0.78267792054E+01  0.12710871565E+03  0.12509021445E+03 0.  0.
          5    1    3    3  502    0 -0.65689317121E+02  0.17943997516E+02 -0.25974565922E+02  0.73001533583E+02  0.41800000000E+01 0.  1.
         -5    1    3    3    0  502  0.50713028923E+02 -0.29935406362E+01  0.18147786717E+02  0.54107182063E+02  0.41800000000E+01 0.  1.
        -11    1    1    2    0    0 -0.10796946048E+02  0.62947507139E+01  0.38290218137E+02  0.40278266292E+02  0.00000000000E+00 0. -1.
         11    1    1    2    0    0  0.25773234245E+02 -0.21245207594E+02 -0.46638429651E+02  0.57365159892E+02  0.00000000000E+00 0.  1.
</event>
<event>
 7    1  0.2899775E-009  0.2164181E+03  0.7561462E-02  0.1136582E+00
          2   -1    0    0  501    0  0.00000000000E+00  0.00000000000E+00  0.15526640620E+04  0.15526640620E+04  0.00000000000E+00 0. -1.
         -2   -1    0    0    0  501 -0.00000000000E+00 -0.00000000000E+00 -0.41166245673E+02  0.41166245673E+02  0.00000000000E+00 0.  1.
         25    2    1    2    0    0  0.20653942417E+03 -0.53756618546E+01  0.47301741037E+03  0.53111213947E+03  0.12508877928E+03 0.  0.
          5    1    3    3  502    0  0.39833703781E+02  0.12581435131E+02  0.17114837308E+02  0.45336591435E+02  0.41800000000E+01 0. -1.
         -5    1    3    3    0  502  0.16670572039E+03 -0.17957096985E+02  0.45590257306E+03  0.48577554803E+03  0.41800000000E+01 0. -1.
        -11    1    1    2    0    0 -0.58295912529E+02 -0.36881989780E+02  0.25185924625E+03  0.26113554815E+03  0.00000000000E+00 0.  1.
         11    1    1    2    0    0 -0.14824351164E+03  0.42257651635E+02  0.78662115971E+03  0.80158262005E+03  0.00000000000E+00 0. -1.
</event>
<event>
 7    1  0.2899775E-009  0.1364318E+03  0.7561462E-02  0.1218212E+00
          2   -1    0    0  501    0  0.00000000000E+00  0.00000000000E+00  0.25353378707E+03  0.25353378707E+03  0.00000000000E+00 0. -1.
         -2   -1    0    0    0  501 -0.00000000000E+00 -0.00000000000E+00 -0.83734468737E+02  0.83734468737E+02  0.00000000000E+00 0.  1.
         25    2    1    2    0    0  0.54484313651E+02 -0.77399266918E+02  0.71565825963E+02  0.17241788284E+03  0.12508825654E+03 0.  0.
          5    1    3    3  502    0 -0.36186557752E+02 -0.34983859290E+02  0.21876742463E+01  0.50552899930E+02  0.41800000000E+01 0.  1.
         -5    1    3    3    0  502  0.90670871402E+02 -0.42415407629E+02  0.69378151716E+02  0.12186498291E+03  0.41800000000E+01 0.  1.
        -11    1    1    2    0    0 -0.64770319199E+02  0.26070474332E+02  0.86570848831E+02  0.11121769530E+03  0.00000000000E+00 0. -1.
         11    1    1    2    0    0  0.10286005549E+02  0.51328792586E+02  0.11662643537E+02  0.53632677658E+02  0.00000000000E+00 0.  1.
</event>
<event>
 7    1  0.2899775E-009  0.1120382E+03  0.7561462E-02  0.1256841E+00
          2   -1    0    0  501    0  0.00000000000E+00  0.00000000000E+00  0.15339256446E+04  0.15339256446E+04  0.00000000000E+00 0.  1.
         -2   -1    0    0    0  501 -0.00000000000E+00 -0.00000000000E+00 -0.12635641577E+02  0.12635641577E+02  0.00000000000E+00 0. -1.
         25    2    1    2    0    0  0.42500997403E+02  0.67996279912E+02  0.93950081610E+03  0.95117742760E+03  0.12508751520E+03 0.  0.
          5    1    3    3  502    0 -0.28284831669E+01  0.49660553575E+02  0.82617772911E+03  0.82768428968E+03  0.41800000000E+01 0. -1.
         -5    1    3    3    0  502  0.45329480569E+02  0.18335726337E+02  0.11332308698E+03  0.12349313792E+03  0.41800000000E+01 0. -1.
        -11    1    1    2    0    0 -0.41274058280E+02 -0.92112436597E+02  0.50083454242E+03  0.51090457793E+03  0.00000000000E+00 0.  1.
         11    1    1    2    0    0 -0.12269391223E+01  0.24116156685E+02  0.80954644461E+02  0.84479280612E+02  0.00000000000E+00 0. -1.
</event>
<event>
 7    1  0.2899775E-009  0.2341983E+03  0.7561462E-02  0.1123719E+00
          2   -1    0    0  501    0  0.00000000000E+00  0.00000000000E+00  0.10149577162E+04  0.10149577162E+04  0.00000000000E+00 0.  1.
         -2   -1    0    0    0  501 -0.00000000000E+00 -0.00000000000E+00 -0.61523953260E+02  0.61523953260E+02  0.00000000000E+00 0. -1.
         25    2    1    2    0    0 -0.21299517165E+03 -0.67650085262E+02  0.43665537869E+03  0.50622043390E+03  0.12509089004E+03 0.  0.
          5    1    3    3  502    0 -0.14850647237E+03 -0.91326837648E+02  0.23154713010E+03  0.28987291952E+03  0.41800000000E+01 0. -1.
         -5    1    3    3    0  502 -0.64488699275E+02  0.23676752386E+02  0.20510824859E+03  0.21634751438E+03  0.41800000000E+01 0. -1.
        -11    1    1    2    0    0  0.11300403872E+03  0.21405081535E+02  0.36516127097E+03  0.38284571841E+03  0.00000000000E+00 0.  1.
         11    1    1    2    0    0  0.99991132926E+02  0.46245003727E+02  0.15161711327E+03  0.18741551716E+03  0.00000000000E+00 0. -1.
</event>
<event>
 6    1  0.2899775E-009  0.1016079E+03  0.7561462E-02  0.1276951E+00
          4   -1    0    0  501    0  0.00000000000E+00  0.00000000000E+00  0.10738017813E+03  0.10738017813E+03  0.00000000000E+00 0. -1.
         -4   -1    0    0    0  501 -0.00000000000E+00 -0.00000000000E+00 -0.11822597972E+03  0.11822597972E+03  0.00000000000E+00 0.  1.
          5    1    1    2  502    0 -0.33701703706E+02  0.45297395782E+02  0.97775998412E+01  0.57452003933E+02  0.41800000000E+01 0. -1.
         -5    1    1    2    0  502  0.55869004610E+02 -0.42138272290E+02  0.43174817455E+01  0.70235978788E+02  0.41800000000E+01 0. -1.
        -11    1    1    2    0    0 -0.37862673434E+02 -0.28016474883E+02 -0.42697882371E+02  0.63573690025E+02  0.00000000000E+00 0.  1.
         11    1    1    2    0    0  0.15695372531E+02  0.24857351391E+02  0.17756999194E+02  0.34344485109E+02  0.00000000000E+00 0. -1.
</event>
<event>
 7    1  0.2899775E-009  0.1477280E+03  0.7561462E-02  0.1203293E+00
          1   -1    0    0  501    0  0.00000000000E+00  0.00000000000E+00  0.12601628847E+03  0.12601628847E+03  0.00000000000E+00 0. -1.
         -1   -1    0    0    0  501 -0.00000000000E+00 -0.00000000000E+00 -0.20396703586E+03  0.20396703586E+03  0.00000000000E+00 0.  1.
         25    2    1    2    0    0  0.10818463178E+03 -0.45373550484E+02 -0.41567353176E+02  0.17645640472E+03  0.12508534799E+03 0.  0.
          5    1    3    3  502    0  0.53337835949E+02 -0.68861427447E+02 -0.68472494142E+02  0.11087279102E+03  0.41800000000E+01 0. -1.
         -5    1    3    3    0  502  0.54846795827E+02  0.23487876963E+02  0.26905140966E+02  0.65583613709E+02  0.41800000000E+01 0. -1.
        -11    1    1    2    0    0 -0.35145535056E+02  0.64045220294E+02 -0.10424176384E+02  0.73794731046E+02  0.00000000000E+00 0.  1.
         11    1    1    2    0    0 -0.73039096720E+02 -0.18671669810E+02 -0.25959217832E+02  0.79732188567E+02  0.00000000000E+00 0. -1.
</event>
<event>
 7    1  0.2899775E-009  0.8336589E+02  0.7561462E-02  0.1319762E+00
         -2   -1    0    0    0  501 -0.00000000000E+00  0.00000000000E+00  0.63484409673E+02  0.63484409673E+02  0.00000000000E+00 0. -1.
          2   -1    0    0  501    0  0.00000000000E+00 -0.00000000000E+00 -0.20446657011E+03  0.20446657011E+03  0.00000000000E+00 0.  1.
         25    2    1    2    0    0  0.74864205349E+01 -0.25301122735E+02 -0.11074182165E+03  0.16913868255E+03  0.12509176459E+03 0.  0.
          5    1    3    3  502    0  0.52320216902E+02 -0.20944056014E+02 -0.82543723587E+01  0.57110994056E+02  0.41800000000E+01 0. -1.
         -5    1    3    3    0  502 -0.44833796367E+02 -0.43570667203E+01 -0.10248744929E+03  0.11202768850E+03  0.41800000000E+01 0. -1.
        -11    1    1    2    0    0  0.25300276775E+02  0.33400213534E+01 -0.48901795173E+02  0.55160178741E+02  0.00000000000E+00 0.  1.
         11    1    1    2    0    0 -0.32786697310E+02  0.21961101381E+02  0.18661456387E+02  0.43652118492E+02  0.00000000000E+00 0. -1.
</event>
<event>
 7    1  0.2899775E-009  0.1855187E+03  0.7561462E-02  0.1162566E+00
         -1   -1    0    0    0  501 -0.00000000000E+00  0.00000000000E+00  0.60861517367E+03  0.60861517367E+03  0.00000000000E+00 0.  1.
          1   -1    0    0  501    0  0.00000000000E+00 -0.00000000000E+00 -0.61975183525E+02  0.61975183525E+02  0.00000000000E+00 0. -1.
         25    2    1    2    0    0  0.12929576235E+03  0.87668161106E+02  0.33003124212E+03  0.38596773427E+03  0.12508944997E+03 0.  0.
          5    1    3    3  502    0 -0.16456937705E+02  0.43625047291E+02  0.94776514563E+02  0.10570731130E+03  0.41800000000E+01 0. -1.
         -5    1    3    3    0  502  0.14575270006E+03  0.44043113815E+02  0.23525472755E+03  0.28026042297E+03  0.41800000000E+01 0. -1.
        -11    1    1    2    0    0 -0.12926791298E+03 -0.57066838932E+02  0.21032316451E+03  0.25338242038E+03  0.00000000000E+00 0.  1.
         11    1    1    2    0    0 -0.27849378088E-01 -0.30601322174E+02  0.62855835223E+01  0.31240202538E+02  0.00000000000E+00 0. -1.
</event>
<event>
 7    1  0.2899775E-009  0.1120945E+03  0.7561462E-02  0.1256740E+00
          3   -1    0    0  501    0  0.00000000000E+00  0.00000000000E+00  0.19504724722E+03  0.19504724722E+03  0.00000000000E+00 0. -1.
         -3   -1    0    0    0  501 -0.00000000000E+00 -0.00000000000E+00 -0.66167253096E+02  0.66167253096E+02  0.00000000000E+00 0.  1.
         25    2    1    2    0    0 -0.25211985771E+02 -0.20633686145E+02  0.83579836456E+02  0.15393272645E+03  0.12509317320E+03 0.  0.
          5    1    3    3  502    0 -0.41689819337E+02 -0.67357611888E+02  0.46976066306E+02  0.92191713950E+02  0.41800000000E+01 0. -1.
         -5    1    3    3    0  502  0.16477833565E+02  0.46723925743E+02  0.36603770150E+02  0.61741012504E+02  0.41800000000E+01 0. -1.
        -11    1    1    2    0    0  0.57888412783E+02  0.23203512083E+02  0.39967669884E+02  0.74073517153E+02  0.00000000000E+00 0. -1.
         11    1    1    2    0    0 -0.32676427011E+02 -0.25698259377E+01  0.53324877835E+01  0.33208256707E+02  0.00000000000E+00 0.  1.
</event>
<event>
 7    1  0.2899775E-009  0.1114046E+03  0.7561462E-02  0.1257991E+00
          2   -1    0    0  501    0  0.00000000000E+00  0.00000000000E+00  0.61276823861E+02  0.61276823861E+02  0.00000000000E+00 0.  1.
         -2   -1    0    0    0  501 -0.00000000000E+00 -0.00000000000E+00 -0.28698536479E+03  0.28698536479E+03  0.00000000000E+00 0. -1.
         25    2    1    2    0    0 -0.69635616092E+02 -0.20164517928E+02 -0.15755762232E+03  0.21384138363E+03  0.12509199091E+03 0.  0.
          5    1    3    3  502    0 -0.66645013681E+02 -0.68084016124E+02 -0.92303188956E+02  0.13271903477E+03  0.41800000000E+01 0. -1.
         -5    1    3    3    0  502 -0.29906024111E+01  0.47919498196E+02 -0.65254433369E+02  0.81122348859E+02  0.41800000000E+01 0. -1.
        -11    1    1    2    0    0  0.32780604858E+02 -0.69326680367E+01 -0.80368374790E+02  0.87072990114E+02  0.00000000000E+00 0. -1.
         11    1    1    2    0    0  0.36855011234E+02  0.27097185965E+02  0.12217456188E+02  0.47347814901E+02  0.00000000000E+00 0.  1.
</event>
<event>
 7    1  0.5337852E-009  0.7547545E+02  0.7561462E-02  0.1342405E+00
         -1   -1    0    0    0  501 -0.00000000000E+00  0.00000000000E+00  0.64846092330E+02  0.64846092330E+02  0.00000000000E+00 0.  1.
          1   -1    0    0  501    0  0.00000000000E+00 -0.00000000000E+00 -0.28770707827E+03  0.28770707827E+03  0.00000000000E+00 0. -1.
         25    2    1    2    0    0 -0.32675751130E+02 -0.22131458022E+02 -0.28629574382E+02  0.13429716930E+03  0.12513421198E+03 0.  0.
          5    1    3    3  502    0  0.26863668145E+01 -0.45435171744E+02 -0.64217268627E+02  0.78821960062E+02  0.41800000000E+01 0. -1.
         -5    1    3    3    0  502 -0.35362117945E+02  0.23303713722E+02  0.35587694244E+02  0.55475209242E+02  0.41800000000E+01 0. -1.
        -11    1    1    2    0    0  0.46452353412E+01  0.32478907776E+02 -0.14180610155E+02  0.35742794603E+02  0.00000000000E+00 0.  1.
         11    1    1    2    0    0  0.28030515789E+02 -0.10347449753E+02 -0.18005080140E+03  0.18251320669E+03  0.00000000000E+00 0. -1.
</event>
<event>
 7    1  0.2899775E-009  0.8419560E+02  0.7561462E-02  0.1317550E+00
         -1   -1    0    0    0  501 -0.00000000000E+00  0.00000000000E+00  0.98355640645E+02  0.98355640645E+02  0.00000000000E+00 0.  1.
          1   -1    0    0  501    0  0.00000000000E+00 -0.00000000000E+00 -0.20940107228E+03  0.20940107228E+03  0.00000000000E+00 0. -1.
         25    2    1    2    0    0  0.37749762915E+02 -0.53881782110E+02 -0.13232741507E+03  0.19361444202E+03  0.12509083234E+03 0.  0.
          5    1    3    3  502    0  0.46665367660E+02 -0.58366874034E+02 -0.15684912231E+02  0.76471154006E+02  0.41800000000E+01 0. -1.
         -5    1    3    3    0  502 -0.89156047448E+01  0.44850919240E+01 -0.11664250284E+03  0.11714328802E+03  0.41800000000E+01 0. -1.
        -11    1    1    2    0    0  0.12510224171E+02  0.10971746081E+02 -0.27403091854E+02  0.32059544039E+02  0.00000000000E+00 0. -1.
         11    1    1    2    0    0 -0.50259987086E+02  0.42910036029E+02  0.48685075291E+02  0.82082726867E+02  0.00000000000E+00 0.  1.
</event>
<event>
 7    1  0.2899775E-009  0.1116473E+03  0.7561462E-02  0.1257549E+00
         -1   -1    0    0    0  501 -0.00000000000E+00  0.00000000000E+00  0.87047345370E+03  0.87047345370E+03  0.00000000000E+00 0.  1.
          1   -1    0    0  501    0  0.00000000000E+00 -0.00000000000E+00 -0.20790493924E+02  0.20790493924E+02  0.00000000000E+00 0. -1.
         25    2    1    2    0    0  0.80038490549E+01  0.47969207037E+02  0.67216221085E+03  0.68543445683E+03  0.12511295093E+03 0.  0.
          5    1    3    3  502    0 -0.27927938000E+02  0.78005291045E+02  0.50569170058E+03  0.51245132802E+03  0.41800000000E+01 0. -1.
         -5    1    3    3    0  502  0.35931787055E+02 -0.30036084008E+02  0.16647051027E+03  0.17298312881E+03  0.41800000000E+01 0. -1.
        -11    1    1    2    0    0 -0.39854385790E+02 -0.55015467332E+01  0.33555251938E+02  0.52388873015E+02  0.00000000000E+00 0. -1.
         11    1    1    2    0    0  0.31850536735E+02 -0.42467660304E+02  0.14396549699E+03  0.15344061778E+03  0.00000000000E+00 0.  1.
</event>
<event>
 7    1  0.2899775E-009  0.1118285E+03  0.7561462E-02  0.1257221E+00
         -1   -1    0    0    0  501 -0.00000000000E+00  0.00000000000E+00  0.12228880802E+03  0.12228880802E+03  0.00000000000E+00 0.  1.
          1   -1    0    0  501    0  0.00000000000E+00 -0.00000000000E+00 -0.13619648430E+03  0.13619648430E+03  0.00000000000E+00 0. -1.
         25    2    1    2    0    0  0.14942880749E+02  0.63438472158E+02  0.13016329732E+02  0.14164999926E+03  0.12509023949E+03 0.  0.
          5    1    3    3  502    0  0.66881046371E+02  0.34002788232E+02  0.27599881453E+02  0.80053043836E+02  0.41800000000E+01 0. -1.
         -5    1    3    3    0  502 -0.51938165622E+02  0.29435683925E+02 -0.14583551721E+02  0.61596955421E+02  0.41800000000E+01 0. -1.
        -11    1    1    2    0    0  0.23039294852E+02 -0.31587420763E+02  0.23914075821E+02  0.45830746013E+02  0.00000000000E+00 0.  1.
         11    1    1    2    0    0 -0.37982175601E+02 -0.31851051395E+02 -0.50838081828E+02  0.71004547053E+02  0.00000000000E+00 0. -1.
</event>
<event>
 7    1  0.2899775E-009  0.2595356E+03  0.7561462E-02  0.1107423E+00
          2   -1    0    0  501    0  0.00000000000E+00  0.00000000000E+00  0.19325276211E+04  0.19325276211E+04  0.00000000000E+00 0.  1.
         -2   -1    0    0    0  501 -0.00000000000E+00 -0.00000000000E+00 -0.37121741479E+02  0.37121741479E+02  0.00000000000E+00 0. -1.
         25    2    1    2    0    0 -0.29823164525E+02  0.23690143891E+03  0.78429164314E+03  0.82931917707E+03  0.12508078614E+03 0.  0.
          5    1    3    3  502    0 -0.77518262813E+02  0.12727035092E+03  0.46739980132E+03  0.49059848142E+03  0.41800000000E+01 0.  1.
         -5    1    3    3    0  502  0.47695098288E+02  0.10963108799E+03  0.31689184182E+03  0.33872069566E+03  0.41800000000E+01 0.  1.
        -11    1    1    2    0    0  0.54441279376E+02 -0.13576036656E+03  0.76675737231E+03  0.78058413898E+03  0.00000000000E+00 0. -1.
         11    1    1    2    0    0 -0.24618114850E+02 -0.10114107235E+03  0.34435686422E+03  0.35974604658E+03  0.00000000000E+00 0.  1.
</event>
<event>
 7    1  0.2899775E-009  0.9125077E+02  0.7561462E-02  0.1299851E+00
         -1   -1    0    0    0  501 -0.00000000000E+00  0.00000000000E+00  0.53262400850E+02  0.53262400850E+02  0.00000000000E+00 0.  1.
          1   -1    0    0  501    0  0.00000000000E+00 -0.00000000000E+00 -0.34743512806E+03  0.34743512806E+03  0.00000000000E+00 0. -1.
         25    2    1    2    0    0  0.50088536206E+02  0.38089612348E+02 -0.76333223997E+02  0.15947731490E+03  0.12508626165E+03 0.  0.
          5    1    3    3  502    0  0.37018267512E+02  0.55214951135E+02 -0.10440712464E+03  0.12384410779E+03  0.41800000000E+01 0. -1.
         -5    1    3    3    0  502  0.13070268694E+02 -0.17125338787E+02  0.28073900639E+02  0.35633207116E+02  0.41800000000E+01 0. -1.
        -11    1    1    2    0    0 -0.45569940772E+02 -0.57870614924E+02 -0.11623043962E+03  0.13760502414E+03  0.00000000000E+00 0. -1.
         11    1    1    2    0    0 -0.45185954340E+01  0.19781002576E+02 -0.10160906359E+03  0.10361518987E+03  0.00000000000E+00 0.  1.
</event>
<event>
 7    1  0.2899775E-009  0.8808649E+02  0.7561462E-02  0.1307553E+00
          2   -1    0    0  501    0  0.00000000000E+00  0.00000000000E+00  0.51487797610E+03  0.51487797610E+03  0.00000000000E+00 0. -1.
         -2   -1    0    0    0  501 -0.00000000000E+00 -0.00000000000E+00 -0.34088152452E+02  0.34088152452E+02  0.00000000000E+00 0.  1.
         25    2    1    2    0    0  0.60177644925E+01  0.54564737081E+00  0.41152683680E+03  0.43016279045E+03  0.12509667324E+03 0.  0.
          5    1    3    3  502    0 -0.37553825292E+02 -0.28442997402E+02  0.69102916145E+02  0.83737562151E+02  0.41800000000E+01 0. -1.
         -5    1    3    3    0  502  0.43571589785E+02  0.28988644772E+02  0.34242392066E+03  0.34642522830E+03  0.41800000000E+01 0. -1.
        -11    1    1    2    0    0 -0.23083626771E+02  0.32101589825E+02 -0.90843605793E+00  0.39549856514E+02  0.00000000000E+00 0.  1.
         11    1    1    2    0    0  0.17065862279E+02 -0.32647237195E+02  0.70171422904E+02  0.79253481590E+02  0.00000000000E+00 0. -1.
</event>
<event>
 7    1  0.2899775E-009  0.9925082E+02  0.7561462E-02  0.1281879E+00
          1   -1    0    0  501    0  0.00000000000E+00  0.00000000000E+00  0.10516414055E+04  0.10516414055E+04  0.00000000000E+00 0. -1.
         -1   -1    0    0    0  501 -0.00000000000E+00 -0.00000000000E+00 -0.17436786010E+02  0.17436786010E+02  0.00000000000E+00 0.  1.
         25    2    1    2    0    0  0.44430460785E+02  0.56622153593E+02  0.72307248418E+03  0.73733407327E+03  0.12509030381E+03 0.  0.
          5    1    3    3  502    0  0.39999230427E+02  0.66400249443E+01  0.63164031926E+03  0.63295417976E+03  0.41800000000E+01 0. -1.
         -5    1    3    3    0  502  0.44312303582E+01  0.49982128648E+02  0.91432164916E+02  0.10437989350E+03  0.41800000000E+01 0. -1.
        -11    1    1    2    0    0  0.19705270715E+02  0.28641973787E+01  0.11875282416E+03  0.12041069125E+03  0.00000000000E+00 0. -1.
         11    1    1    2    0    0 -0.64135731500E+02 -0.59486350971E+02  0.19237931120E+03  0.21133342704E+03  0.00000000000E+00 0.  1.
</event>
<event>
 7    1  0.2899775E-009  0.4289320E+03  0.7561462E-02  0.1034198E+00
         -1   -1    0    0    0  501 -0.00000000000E+00  0.00000000000E+00  0.25371089162E+03  0.25371089162E+03  0.00000000000E+00 0.  1.
          1   -1    0    0  501    0  0.00000000000E+00 -0.00000000000E+00 -0.75840138294E+03  0.75840138294E+03  0.00000000000E+00 0. -1.
         25    2    1    2    0    0 -0.31650349588E+03  0.28209831458E+03 -0.26587740621E+03  0.51584164419E+03  0.12509150552E+03 0.  0.
          5    1    3    3  502    0 -0.17906735135E+03  0.18410102224E+03 -0.22650927834E+03  0.34246493000E+03  0.41800000000E+01 0.  1.
         -5    1    3    3    0  502 -0.13743614452E+03  0.97997292347E+02 -0.39368127868E+02  0.17337671418E+03  0.41800000000E+01 0.  1.
        -11    1    1    2    0    0  0.18731481455E+03 -0.11088860882E+03 -0.91805723833E+02  0.23624439516E+03  0.00000000000E+00 0. -1.
         11    1    1    2    0    0  0.12918868132E+03 -0.17120970577E+03 -0.14700736128E+03  0.26002623522E+03  0.00000000000E+00 0.  1.
</event>
<event>
 7    1  0.2899775E-009  0.1461993E+03  0.7561462E-02  0.1205223E+00
          2   -1    0    0  501    0  0.00000000000E+00  0.00000000000E+00  0.10939535839E+03  0.10939535839E+03  0.00000000000E+00 0. -1.
         -2   -1    0    0    0  501 -0.00000000000E+00 -0.00000000000E+00 -0.24655327258E+03  0.24655327258E+03  0.00000000000E+00 0.  1.
         25    2    1    2    0    0 -0.11691175803E+03 -0.23615617733E+02 -0.35144608531E+02  0.17637598789E+03  0.12508912434E+03 0.  0.
          5    1    3    3  502    0 -0.51123332899E+02  0.51644209531E+02 -0.14356423101E+02  0.74190961910E+02  0.41800000000E+01 0. -1.
         -5    1    3    3    0  502 -0.65788425130E+02 -0.75259827264E+02 -0.20788185430E+02  0.10218502598E+03  0.41800000000E+01 0. -1.
        -11    1    1    2    0    0  0.93272935628E+02  0.22212018979E+02 -0.25122422568E+02  0.99117861274E+02  0.00000000000E+00 0. -1.
         11    1    1    2    0    0  0.23638822401E+02  0.14035987535E+01 -0.76890883084E+02  0.80454781806E+02  0.00000000000E+00 0.  1.
</event>
<event>
 7    1  0.2899775E-009  0.7634014E+02  0.7561462E-02  0.1339771E+00
          1   -1    0    0  501    0  0.00000000000E+00  0.00000000000E+00  0.38899630640E+03  0.38899630640E+03  0.00000000000E+00 0. -1.
         -1   -1    0    0    0  501 -0.00000000000E+00 -0.00000000000E+00 -0.91754275416E+02  0.91754275416E+02  0.00000000000E+00 0.  1.
         25    2    1    2    0    0 -0.49830214163E+02  0.44983252249E+02  0.33368529104E+03  0.36262948530E+03  0.12509087467E+03 0.  0.
          5    1    3    3  502    0 -0.48519585281E+02  0.54576173039E+02  0.78760785858E+02  0.10748694157E+03  0.41800000000E+01 0.  1.
         -5    1    3    3    0  502 -0.13106288824E+01 -0.95929207891E+01  0.25492450519E+03  0.25514254373E+03  0.41800000000E+01 0.  1.
        -11    1    1    2    0    0  0.18671187233E+02 -0.71899753693E+01 -0.60376224651E+02  0.63605011451E+02  0.00000000000E+00 0.  1.
         11    1    1    2    0    0  0.31159026930E+02 -0.37793276880E+02  0.23932964593E+02  0.54516085065E+02  0.00000000000E+00 0. -1.
</event>
<event>
 7    1  0.2899775E-009  0.2484959E+03  0.7561462E-02  0.1114259E+00
          2   -1    0    0  501    0  0.00000000000E+00  0.00000000000E+00  0.64578323147E+03  0.64578323147E+03  0.00000000000E+00 0.  1.
         -2   -1    0    0    0  501 -0.00000000000E+00 -0.00000000000E+00 -0.11048221204E+03  0.11048221204E+03  0.00000000000E+00 0. -1.
         25    2    1    2    0    0  0.23078904101E+03  0.58773418858E+02  0.20049577996E+03  0.33550560611E+03  0.12509019838E+03 0.  0.
          5    1    3    3  502    0 -0.56678392111E+01 -0.74500910662E+01  0.41949874516E+02  0.43184402625E+02  0.41800000000E+01 0. -1.
         -5    1    3    3    0  502  0.23645688022E+03  0.66223509924E+02  0.15854590544E+03  0.29232120348E+03  0.41800000000E+01 0. -1.
        -11    1    1    2    0    0 -0.17995589714E+03 -0.29113561175E+02  0.30365181499E+03  0.35416966147E+03  0.00000000000E+00 0. -1.
         11    1    1    2    0    0 -0.50833143875E+02 -0.29659857682E+02  0.31153424486E+02  0.66590175935E+02  0.00000000000E+00 0.  1.
</event>
<event>
 7    1  0.2899775E-009  0.1121959E+03  0.7561462E-02  0.1256557E+00
         -1   -1    0    0    0  501 -0.00000000000E+00  0.00000000000E+00  0.22409549275E+02  0.22409549275E+02  0.00000000000E+00 0.  1.
          1   -1    0    0  501    0  0.00000000000E+00 -0.00000000000E+00 -0.61902121428E+03  0.61902121428E+03  0.00000000000E+00 0. -1.
         25    2    1    2    0    0  0.42279754947E+02  0.15034456438E+02 -0.37946291917E+03  0.40206119679E+03  0.12508991317E+03 0.  0.
          5    1    3    3  502    0  0.82664562986E+02 -0.76488736943E+01 -0.19815022209E+03  0.21487884530E+03  0.41800000000E+01 0. -1.
         -5    1    3    3    0  502 -0.40384808040E+02  0.22683330133E+02 -0.18131269708E+03  0.18718235149E+03  0.41800000000E+01 0. -1.
        -11    1    1    2    0    0 -0.30784952590E+02  0.33141305995E+02 -0.63705107136E+02  0.78130660718E+02  0.00000000000E+00 0. -1.
         11    1    1    2    0    0 -0.11494802357E+02 -0.48175762433E+02 -0.15344363869E+03  0.16123890604E+03  0.00000000000E+00 0.  1.
</event>
<event>
 7    1  0.2899775E-009  0.3276852E+03  0.7561462E-02  0.1072166E+00
         -1   -1    0    0    0  501 -0.00000000000E+00  0.00000000000E+00  0.25023377422E+03  0.25023377422E+03  0.00000000000E+00 0.  1.
          1   -1    0    0  501    0  0.00000000000E+00 -0.00000000000E+00 -0.47811826743E+03  0.47811826743E+03  0.00000000000E+00 0. -1.
         25    2    1    2    0    0  0.18889003091E+03 -0.26633198997E+03 -0.14826692045E+03  0.37979229165E+03  0.12508769899E+03 0.  0.
          5    1    3    3  502    0  0.25183592701E+02 -0.50953244462E+02 -0.84320422155E+02  0.10177353514E+03  0.41800000000E+01 0. -1.
         -5    1    3    3    0  502  0.16370643821E+03 -0.21537874551E+03 -0.63946498300E+02  0.27801875651E+03  0.41800000000E+01 0. -1.
        -11    1    1    2    0    0 -0.26960686174E+02  0.57939034653E+02 -0.53531370687E+02  0.83363169224E+02  0.00000000000E+00 0.  1.
         11    1    1    2    0    0 -0.16192934474E+03  0.20839295531E+03 -0.26086202066E+02  0.26519658077E+03  0.00000000000E+00 0. -1.
</event>
<event>
 7    1  0.2899775E-009  0.4034887E+03  0.7561462E-02  0.1042578E+00
          1   -1    0    0  501    0  0.00000000000E+00  0.00000000000E+00  0.17188129639E+04  0.17188129639E+04  0.00000000000E+00 0.  1.
         -1   -1    0    0    0  501 -0.00000000000E+00 -0.00000000000E+00 -0.99149337165E+02  0.99149337165E+02  0.00000000000E+00 0. -1.
         25    2    1    2    0    0  0.39204545647E+03 -0.35197164502E+02  0.70856644094E+03  0.82015332963E+03  0.12508638034E+03 0.  0.
          5    1    3    3  502    0  0.57848309219E+02  0.38291680020E+02  0.96564348210E+02  0.11897405340E+03  0.41800000000E+01 0. -1.
         -5    1    3    3    0  502  0.33419714725E+03 -0.73488844522E+02  0.61200209273E+03  0.70117927622E+03  0.41800000000E+01 0. -1.
        -11    1    1    2    0    0 -0.10035500904E+03  0.24903086613E+02  0.35524099131E+03  0.36998304484E+03  0.00000000000E+00 0.  1.
         11    1    1    2    0    0 -0.29169044743E+03  0.10294077889E+02  0.55585619447E+03  0.62782592659E+03  0.00000000000E+00 0. -1.
</event>
<event>
 7    1  0.2899775E-009  0.1255414E+03  0.7561462E-02  0.1234226E+00
          2   -1    0    0  501    0  0.00000000000E+00  0.00000000000E+00  0.10272591815E+03  0.10272591815E+03  0.00000000000E+00 0.  1.
         -2   -1    0    0    0  501 -0.00000000000E+00 -0.00000000000E+00 -0.22658361986E+03  0.22658361986E+03  0.00000000000E+00 0. -1.
         25    2    1    2    0    0  0.80870219067E+02  0.54199371926E+02 -0.22707200893E+02  0.16012739751E+03  0.12509037618E+03 0.  0.
          5    1    3    3  502    0 -0.29780200052E+02  0.89726273715E+01  0.14907180607E+02  0.34742837978E+02  0.41800000000E+01 0. -1.
         -5    1    3    3    0  502  0.11065041912E+03  0.45226744555E+02 -0.37614381500E+02  0.12538455954E+03  0.41800000000E+01 0. -1.
        -11    1    1    2    0    0 -0.66622115416E+02 -0.32486519567E+02 -0.10470581709E+02  0.74856618261E+02  0.00000000000E+00 0.  1.
         11    1    1    2    0    0 -0.14248103651E+02 -0.21712852359E+02 -0.90679919112E+02  0.94325522238E+02  0.00000000000E+00 0. -1.
</event>
<event>
 7    1  0.2899775E-009  0.2251917E+03  0.7561462E-02  0.1130071E+00
         -1   -1    0    0    0  501 -0.00000000000E+00  0.00000000000E+00  0.54157004426E+03  0.54157004426E+03  0.00000000000E+00 0.  1.
          1   -1    0    0  501    0  0.00000000000E+00 -0.00000000000E+00 -0.99924518795E+02  0.99924518795E+02  0.00000000000E+00 0. -1.
         25    2    1    2    0    0  0.72036271028E+02  0.18484828222E+03  0.15146978404E+03  0.27919261118E+03  0.12508919569E+03 0.  0.
          5    1    3    3  502    0  0.92046909894E+02  0.66220268494E+02  0.62840402247E+02  0.12970792626E+03  0.41800000000E+01 0.  1.
         -5    1    3    3    0  502 -0.20010638866E+02  0.11862801373E+03  0.88629381793E+02  0.14948468492E+03  0.41800000000E+01 0.  1.
        -11    1    1    2    0    0 -0.64136597579E+02 -0.49649623128E+02  0.11943138370E+03  0.14436912287E+03  0.00000000000E+00 0. -1.
         11    1    1    2    0    0 -0.78996734492E+01 -0.13519865909E+03  0.17074435772E+03  0.21793282900E+03  0.00000000000E+00 0.  1.
</event>
<event>
 7    1  0.2899775E-009  0.1049406E+03  0.7561462E-02  0.1270237E+00
         -3   -1    0    0    0  501 -0.00000000000E+00  0.00000000000E+00  0.12827706558E+03  0.12827706558E+03  0.00000000000E+00 0.  1.
          3   -1    0    0  501    0  0.00000000000E+00 -0.00000000000E+00 -0.12978381722E+03  0.12978381722E+03  0.00000000000E+00 0. -1.
         25    2    1    2    0    0 -0.30559470503E+02 -0.43612234931E+02  0.45291583392E+02  0.14329927234E+03  0.12508975040E+03 0.  0.
          5    1    3    3  502    0  0.32055571312E+02 -0.89294674479E+01 -0.25811916135E+02  0.42320473244E+02  0.41800000000E+01 0.  1.
         -5    1    3    3    0  502 -0.62615041815E+02 -0.34682767483E+02  0.71103499528E+02  0.10097879910E+03  0.41800000000E+01 0.  1.
        -11    1    1    2    0    0  0.43915683709E+02 -0.13536044368E+02 -0.17580399950E+02  0.49202461678E+02  0.00000000000E+00 0.  1.
         11    1    1    2    0    0 -0.13356213206E+02  0.57148279299E+02 -0.29217935085E+02  0.65559148779E+02  0.00000000000E+00 0. -1.
</event>
<event>
 7    1  0.2899775E-009  0.9033228E+02  0.7561462E-02  0.1302049E+00
         -1   -1    0    0    0  501 -0.00000000000E+00  0.00000000000E+00  0.18220713639E+02  0.18220713639E+02  0.00000000000E+00 0.  1.
          1   -1    0    0  501    0  0.00000000000E+00 -0.00000000000E+00 -0.75063623508E+03  0.75063623508E+03  0.00000000000E+00 0. -1.
         25    2    1    2    0    0  0.16184353184E+02  0.20671134331E+02 -0.50395280158E+03  0.51990970171E+03  0.12509373535E+03 0.  0.
          5    1    3    3  502    0 -0.13449124430E+01 -0.31296170470E+02 -0.40867522129E+03  0.40989531343E+03  0.41800000000E+01 0. -1.
         -5    1    3    3    0  502  0.17529265627E+02  0.51967304801E+02 -0.95277580294E+02  0.11001438828E+03  0.41800000000E+01 0. -1.
        -11    1    1    2    0    0 -0.11166453857E+02 -0.56645711755E+02 -0.10023294857E+03  0.11567225394E+03  0.00000000000E+00 0.  1.
         11    1    1    2    0    0 -0.50178993274E+01  0.35974577424E+02 -0.12822977129E+03  0.13327499308E+03  0.00000000000E+00 0. -1.
</event>
<event>
 7    1  0.2899775E-009  0.1038796E+03  0.7561462E-02  0.1272343E+00
          1   -1    0    0  501    0  0.00000000000E+00  0.00000000000E+00  0.24591322907E+03  0.24591322907E+03  0.00000000000E+00 0. -1.
         -1   -1    0    0    0  501 -0.00000000000E+00 -0.00000000000E+00 -0.88325826951E+02  0.88325826951E+02  0.00000000000E+00 0.  1.
         25    2    1    2    0    0 -0.83904982161E+02  0.23468166012E+02  0.12699828432E+03  0.19843160190E+03  0.12512288185E+03 0.  0.
          5    1    3    3  502    0 -0.49374308883E+02 -0.11049205892E+02  0.13899942873E+03  0.14798047478E+03  0.41800000000E+01 0.  1.
         -5    1    3    3    0  502 -0.34530673277E+02  0.34517371904E+02 -0.12001144411E+02  0.50451127116E+02  0.41800000000E+01 0.  1.
        -11    1    1    2    0    0  0.93725874122E+02 -0.14795856463E+02  0.53856114766E+02  0.10910516920E+03  0.00000000000E+00 0. -1.
         11    1    1    2    0    0 -0.98208919618E+01 -0.86723095486E+01 -0.23266996973E+02  0.26702284920E+02  0.00000000000E+00 0.  1.
</event>
<event>
 7    1  0.2899775E-009  0.1339300E+03  0.7561462E-02  0.1221738E+00
          2   -1    0    0  501    0  0.00000000000E+00  0.00000000000E+00  0.10304048792E+03  0.10304048792E+03  0.00000000000E+00 0. -1.
         -2   -1    0    0    0  501 -0.00000000000E+00 -0.00000000000E+00 -0.25470353327E+03  0.25470353327E+03  0.00000000000E+00 0.  1.
         25    2    1    2    0    0  0.45252879183E+02  0.93027339828E+02 -0.12400851829E+02  0.16279760290E+03  0.12508944541E+03 0.  0.
          5    1    3    3  502    0 -0.14625942863E+02 -0.23994860609E+02  0.84412604861E+01  0.29637793759E+02  0.41800000000E+01 0.  1.
         -5    1    3    3    0  502  0.59878822047E+02  0.11702220044E+03 -0.20842112315E+02  0.13315980914E+03  0.41800000000E+01 0.  1.
        -11    1    1    2    0    0  0.20729756446E-01 -0.31715267120E+02 -0.10801308309E+03  0.11257301949E+03  0.00000000000E+00 0.  1.
         11    1    1    2    0    0 -0.45273608940E+02 -0.61312072707E+02 -0.31249110425E+02  0.82373398791E+02  0.00000000000E+00 0. -1.
</event>
<event>
 6    1  0.2899775E-009  0.1579281E+03  0.7561462E-02  0.1191056E+00
          1   -1    0    0  501    0  0.00000000000E+00  0.00000000000E+00  0.97566333257E+03  0.97566333257E+03  0.00000000000E+00 0. -1.
         -1   -1    0    0    0  501 -0.00000000000E+00 -0.00000000000E+00 -0.26941233184E+02  0.26941233184E+02  0.00000000000E+00 0.  1.
          5    1    1    2  502    0  0.13192403608E+03 -0.41770625440E+02  0.46658611177E+03  0.48669169763E+03  0.41800000000E+01 0.  1.
         -5    1    1    2    0  502 -0.19622746402E+02  0.22193585256E+02  0.13118472605E+03  0.13455300870E+03  0.41800000000E+01 0.  1.
        -11    1    1    2    0    0 -0.81602822089E+02 -0.31854418053E+02  0.23612342250E+03  0.25184915162E+03  0.00000000000E+00 0. -1.
         11    1    1    2    0    0 -0.30698467587E+02  0.51431458236E+02  0.11482783907E+03  0.12951070780E+03  0.00000000000E+00 0.  1.
</event>
<event>
 7    1  0.2899775E-009  0.1828404E+03  0.7561462E-02  0.1165082E+00
         -2   -1    0    0    0  501 -0.00000000000E+00  0.00000000000E+00  0.17143207653E+03  0.17143207653E+03  0.00000000000E+00 0. -1.
          2   -1    0    0  501    0  0.00000000000E+00 -0.00000000000E+00 -0.22952183913E+03  0.22952183913E+03  0.00000000000E+00 0.  1.
         25    2    1    2    0    0  0.65142909852E+02  0.12084031957E+03 -0.98284846329E+02  0.21012606291E+03  0.12508824788E+03 0.  0.
          5    1    3    3  502    0  0.15152189281E+02 -0.25789458297E+02 -0.10254248546E+02  0.31895250626E+02  0.41800000000E+01 0. -1.
         -5    1    3    3    0  502  0.49990720571E+02  0.14662977787E+03 -0.88030597783E+02  0.17823081229E+03  0.41800000000E+01 0. -1.
        -11    1    1    2    0    0 -0.64824172867E+02 -0.14369922662E+03  0.50799750581E+02  0.16562685706E+03  0.00000000000E+00 0. -1.
         11    1    1    2    0    0 -0.31873698507E+00  0.22858907046E+02 -0.10604666856E+02  0.25200995689E+02  0.00000000000E+00 0.  1.
</event>
<event>
 7    1  0.2899775E-009  0.1228708E+03  0.7561462E-02  0.1238435E+00
          2   -1    0    0  501    0  0.00000000000E+00  0.00000000000E+00  0.29070086928E+03  0.29070086928E+03  0.00000000000E+00 0. -1.
         -2   -1    0    0    0  501 -0.00000000000E+00 -0.00000000000E+00 -0.80012490631E+02  0.80012490631E+02  0.00000000000E+00 0.  1.
         25    2    1    2    0    0 -0.55168178784E+02  0.96330285644E+02  0.12571549201E+03  0.20923144166E+03  0.12510139633E+03 0.  0.
          5    1    3    3  502    0 -0.48150233697E+02  0.90423607120E+02  0.21791761739E+02  0.10481997429E+03  0.41800000000E+01 0.  1.
         -5    1    3    3    0  502 -0.70179450878E+01  0.59066785241E+01  0.10392373028E+03  0.10441146737E+03  0.41800000000E+01 0.  1.
        -11    1    1    2    0    0  0.69799278899E+02 -0.95747940039E+02  0.60693680592E+02  0.13312899842E+03  0.00000000000E+00 0.  1.
         11    1    1    2    0    0 -0.14631100115E+02 -0.58234560495E+00  0.24279206044E+02  0.28352919834E+02  0.00000000000E+00 0. -1.
</event>
<event>
 7    1  0.2899775E-009  0.1072940E+03  0.7561462E-02  0.1265665E+00
          1   -1    0    0  501    0  0.00000000000E+00  0.00000000000E+00  0.56494395376E+02  0.56494395376E+02  0.00000000000E+00 0. -1.
         -1   -1    0    0    0  501 -0.00000000000E+00 -0.00000000000E+00 -0.23463741087E+03  0.23463741087E+03  0.00000000000E+00 0.  1.
         25    2    1    2    0    0 -0.29544387394E+02 -0.15791652584E+02 -0.85136428389E+02  0.15497763146E+03  0.12509039810E+03 0.  0.
          5    1    3    3  502    0  0.29550472334E+02  0.29260082295E+02  0.13277321163E+00  0.41795608140E+02  0.41800000000E+01 0.  1.
         -5    1    3    3    0  502 -0.59094859728E+02 -0.45051734879E+02 -0.85269201600E+02  0.11318202332E+03  0.41800000000E+01 0.  1.
        -11    1    1    2    0    0 -0.20717488528E+01 -0.36877762796E+02 -0.25513299520E+02  0.44890867496E+02  0.00000000000E+00 0.  1.
         11    1    1    2    0    0  0.31616136247E+02  0.52669415380E+02 -0.67493287583E+02  0.91263307284E+02  0.00000000000E+00 0. -1.
</event>
<event>
 7    1  0.2899775E-009  0.8430504E+02  0.7561462E-02  0.1317260E+00
         -3   -1    0    0    0  501 -0.00000000000E+00  0.00000000000E+00  0.39762062076E+03  0.39762062076E+03  0.00000000000E+00 0.  1.
          3   -1    0    0  501    0  0.00000000000E+00 -0.00000000000E+00 -0.34830806462E+02  0.34830806462E+02  0.00000000000E+00 0. -1.
         25    2    1    2    0    0  0.51208914782E+01 -0.66022715225E+01  0.12405358422E+03  0.17636898309E+03  0.12508762097E+03 0.  0.
          5    1    3    3  502    0 -0.52224332789E+00  0.40682186449E+02  0.12183242318E+03  0.12851429792E+03  0.41800000000E+01 0. -1.
         -5    1    3    3    0  502  0.56431348061E+01 -0.47284457971E+02  0.22211610420E+01  0.47854685167E+02  0.41800000000E+01 0. -1.
        -11    1    1    2    0    0 -0.32140934236E+02  0.30148076780E+02  0.19305083935E+03  0.19801659718E+03  0.00000000000E+00 0.  1.
         11    1    1    2    0    0  0.27020042758E+02 -0.23545805257E+02  0.45685390724E+02  0.58065846945E+02  0.00000000000E+00 0. -1.
</event>
<event>
 7    1  0.2899775E-009  0.2200444E+03  0.7561462E-02  0.1133850E+00
          1   -1    0    0  501    0  0.00000000000E+00  0.00000000000E+00  0.19966859243E+03  0.19966859243E+03  0.00000000000E+00 0. -1.
         -1   -1    0    0    0  501 -0.00000000000E+00 -0.00000000000E+00 -0.29258828815E+03  0.29258828815E+03  0.00000000000E+00 0.  1.
         25    2    1    2    0    0 -0.12687709280E+03  0.15460101592E+03  0.34245653296E+02  0.23836856513E+03  0.12509011661E+03 0.  0.
          5    1    3    3  502    0 -0.14676540320E+03  0.12982087692E+03  0.50564510995E+02  0.20240500446E+03  0.41800000000E+01 0.  1.
         -5    1    3    3    0  502  0.19888310398E+02  0.24780138996E+02 -0.16318857699E+02  0.35963560666E+02  0.41800000000E+01 0.  1.
        -11    1    1    2    0    0  0.33733425375E+02 -0.96615931707E+02 -0.94796395022E+02  0.13949530012E+03  0.00000000000E+00 0.  1.
         11    1    1    2    0    0  0.93143667422E+02 -0.57985084211E+02 -0.32368953997E+02  0.11439301532E+03  0.00000000000E+00 0. -1.
</event>
<event>
 7    1  0.2899775E-009  0.1385408E+03  0.7561462E-02  0.1215306E+00
         -1   -1    0    0    0  501 -0.00000000000E+00  0.00000000000E+00  0.18425703475E+03  0.18425703475E+03  0.00000000000E+00 0.  1.
          1   -1    0    0  501    0  0.00000000000E+00 -0.00000000000E+00 -0.12666368837E+03  0.12666368837E+03  0.00000000000E+00 0. -1.
         25    2    1    2    0    0 -0.43262935521E+02 -0.93196625080E+02  0.56840991495E+02  0.17156773757E+03  0.12508915918E+03 0.  0.
          5    1    3    3  502    0  0.11463280783E+02  0.23545214157E+02 -0.72941669404E+01  0.27503839502E+02  0.41800000000E+01 0. -1.
         -5    1    3    3    0  502 -0.54726216304E+02 -0.11674183924E+03  0.64135158436E+02  0.14406389807E+03  0.41800000000E+01 0. -1.
        -11    1    1    2    0    0  0.52295457528E+02  0.35602405533E+02  0.34430257839E+02  0.72026306393E+02  0.00000000000E+00 0.  1.
         11    1    1    2    0    0 -0.90325220070E+01  0.57594219547E+02 -0.33677902951E+02  0.67326679156E+02  0.00000000000E+00 0. -1.
</event>
<event>
 7    1  0.2899775E-009  0.1138158E+03  0.7561462E-02  0.1253662E+00
          1   -1    0    0  501    0  0.00000000000E+00  0.00000000000E+00  0.25145886956E+03  0.25145886956E+03  0.00000000000E+00 0. -1.
         -1   -1    0    0    0  501 -0.00000000000E+00 -0.00000000000E+00 -0.95809419026E+02  0.95809419026E+02  0.00000000000E+00 0.  1.
         25    2    1    2    0    0  0.36909915706E+02  0.60792809708E+02  0.17382972322E+03  0.22565693856E+03  0.12508466596E+03 0.  0.
          5    1    3    3  502    0  0.36571750637E+02 -0.22156564171E+02  0.11800804786E+03  0.12558573980E+03  0.41800000000E+01 0.  1.
         -5    1    3    3    0  502  0.33816506919E+00  0.82949373879E+02  0.55821675355E+02  0.10007119876E+03  0.41800000000E+01 0.  1.
        -11    1    1    2    0    0 -0.49787331005E+02 -0.69915740440E+02 -0.39990620202E+02  0.94690225441E+02  0.00000000000E+00 0.  1.
         11    1    1    2    0    0  0.12877415299E+02  0.91229307321E+01  0.21810347515E+02  0.26921124580E+02  0.00000000000E+00 0. -1.
</event>
<event>
 7    1  0.2899775E-009  0.2441820E+03  0.7561462E-02  0.1117038E+00
          1   -1    0    0  501    0  0.00000000000E+00  0.00000000000E+00  0.13204824660E+04  0.13204824660E+04  0.00000000000E+00 0. -1.
         -1   -1    0    0    0  501 -0.00000000000E+00 -0.00000000000E+00 -0.48148655264E+02  0.48148655264E+02  0.00000000000E+00 0.  1.
         25    2    1    2    0    0  0.68244825378E+02  0.21342687010E+03  0.82073147175E+03  0.85991678447E+03  0.12509333483E+03 0.  0.
          5    1    3    3  502    0 -0.30408548122E+02  0.17587793310E+02  0.15508380947E+03  0.15906750338E+03  0.41800000000E+01 0.  1.
         -5    1    3    3    0  502  0.98653373500E+02  0.19583907679E+03  0.66564766228E+03  0.70084928109E+03  0.41800000000E+01 0.  1.
        -11    1    1    2    0    0  0.80427458018E+01 -0.76484823141E+02  0.16502188595E+03  0.18206272758E+03  0.00000000000E+00 0.  1.
         11    1    1    2    0    0 -0.76287571179E+02 -0.13694204696E+03  0.28658045306E+03  0.32665160924E+03  0.00000000000E+00 0. -1.
</event>
<event>
 7    1  0.2899775E-009  0.1763075E+03  0.7561462E-02  0.1171425E+00
         -2   -1    0    0    0  501 -0.00000000000E+00  0.00000000000E+00  0.35132778701E+03  0.35132778701E+03  0.00000000000E+00 0.  1.
          2   -1    0    0  501    0  0.00000000000E+00 -0.00000000000E+00 -0.16028737399E+03  0.16028737399E+03  0.00000000000E+00 0. -1.
         25    2    1    2    0    0  0.59151885979E+02  0.14290024704E+03  0.25253646978E+03  0.32146710310E+03  0.12508798337E+03 0.  0.
          5    1    3    3  502    0  0.79224635995E+02  0.60310156427E+02  0.19425205413E+03  0.21832359206E+03  0.41800000000E+01 0.  1.
         -5    1    3    3    0  502 -0.20072750016E+02  0.82590090617E+02  0.58284415658E+02  0.10314351104E+03  0.41800000000E+01 0.  1.
        -11    1    1    2    0    0 -0.58624092858E+02 -0.56365784049E+02  0.42997159531E+01  0.81439385018E+02  0.00000000000E+00 0.  1.
         11    1    1    2    0    0 -0.52779312052E+00 -0.86534462995E+02 -0.65795772716E+02  0.10870867288E+03  0.00000000000E+00 0. -1.
</event>
<event>
 7    1  0.2899775E-009  0.1637164E+03  0.7561462E-02  0.1184564E+00
         -1   -1    0    0    0  501 -0.00000000000E+00  0.00000000000E+00  0.20004875519E+03  0.20004875519E+03  0.00000000000E+00 0.  1.
          1   -1    0    0  501    0  0.00000000000E+00 -0.00000000000E+00 -0.20255478283E+03  0.20255478283E+03  0.00000000000E+00 0. -1.
         25    2    1    2    0    0 -0.12623862120E+03  0.82073762971E+02  0.74067158722E+02  0.20929748364E+03  0.12508877091E+03 0.  0.
          5    1    3    3  502    0  0.48407096828E+01  0.74506585748E+01 -0.26301455497E+02  0.28074610322E+02  0.41800000000E+01 0. -1.
         -5    1    3    3    0  502 -0.13107933088E+03  0.74623104396E+02  0.10036861422E+03  0.18122287332E+03  0.41800000000E+01 0. -1.
        -11    1    1    2    0    0  0.13037786168E+02 -0.46154226941E+02 -0.54343725101E+02  0.72480597338E+02  0.00000000000E+00 0. -1.
         11    1    1    2    0    0  0.11320083503E+03 -0.35919536030E+02 -0.22229461253E+02  0.12082545704E+03  0.00000000000E+00 0.  1.
</event>
<event>
 7    1  0.2899775E-009  0.8412657E+02  0.7561462E-02  0.1317733E+00
          1   -1    0    0  501    0  0.00000000000E+00  0.00000000000E+00  0.42037789580E+03  0.42037789580E+03  0.00000000000E+00 0.  1.
         -1   -1    0    0    0  501 -0.00000000000E+00 -0.00000000000E+00 -0.60519847098E+02  0.60519847098E+02  0.00000000000E+00 0. -1.
         25    2    1    2    0    0 -0.12688011673E+02  0.20811668300E+02  0.36539097527E+03  0.38697728488E+03  0.12508694185E+03 0.  0.
          5    1    3    3  502    0 -0.21275141959E+02  0.48137428862E+02  0.58803659324E+02  0.79026492221E+02  0.41800000000E+01 0.  1.
         -5    1    3    3    0  502  0.85871302863E+01 -0.27325760563E+02  0.30658731595E+03  0.30795079266E+03  0.41800000000E+01 0.  1.
        -11    1    1    2    0    0  0.46471500553E+02 -0.24487723067E+02 -0.21015904224E+02  0.56576648672E+02  0.00000000000E+00 0. -1.
         11    1    1    2    0    0 -0.33783488880E+02  0.36760547671E+01  0.15482977650E+02  0.37343809346E+02  0.00000000000E+00 0.  1.
</event>
<event>
 7    1  0.2899775E-009  0.7755902E+02  0.7561462E-02  0.1336125E+00
         -2   -1    0    0    0  501 -0.00000000000E+00  0.00000000000E+00  0.10117442232E+03  0.10117442232E+03  0.00000000000E+00 0. -1.
          2   -1    0    0  501    0  0.00000000000E+00 -0.00000000000E+00 -0.12232109405E+03  0.12232109405E+03  0.00000000000E+00 0.  1.
         25    2    1    2    0    0  0.13933904991E+01 -0.12724727821E+02  0.10054090583E+02  0.12614302561E+03  0.12508844047E+03 0.  0.
          5    1    3    3  502    0  0.97335220137E+01 -0.58479551504E+02  0.39109679493E+02  0.71145195375E+02  0.41800000000E+01 0. -1.
         -5    1    3    3    0  502 -0.83401315146E+01  0.45754823683E+02 -0.29055588910E+02  0.54997830238E+02  0.41800000000E+01 0. -1.
        -11    1    1    2    0    0 -0.18586154316E+02 -0.95150308496E+01 -0.56062810535E+02  0.59824908436E+02  0.00000000000E+00 0.  1.
         11    1    1    2    0    0  0.17192763817E+02  0.22239758671E+02  0.24862048217E+02  0.37527582322E+02  0.00000000000E+00 0. -1.
</event>
<event>
 7    1  0.2899775E-009  0.1289434E+03  0.7561462E-02  0.1229032E+00
         -1   -1    0    0    0  501 -0.00000000000E+00  0.00000000000E+00  0.18115718085E+02  0.18115718085E+02  0.00000000000E+00 0. -1.
          1   -1    0    0  501    0  0.00000000000E+00 -0.00000000000E+00 -0.13695152619E+04  0.13695152619E+04  0.00000000000E+00 0.  1.
         25    2    1    2    0    0 -0.10044273087E+03 -0.12655379796E+02 -0.94519059804E+03  0.95879274172E+03  0.12509737863E+03 0.  0.
          5    1    3    3  502    0 -0.57044169750E+02 -0.61649371448E+02 -0.69807326477E+03  0.70312050012E+03  0.41800000000E+01 0.  1.
         -5    1    3    3    0  502 -0.43398561117E+02  0.48993991652E+02 -0.24711733327E+03  0.25567224160E+03  0.41800000000E+01 0.  1.
        -11    1    1    2    0    0  0.59162289630E+02 -0.11654993210E+02 -0.34922236482E+03  0.35439000475E+03  0.00000000000E+00 0.  1.
         11    1    1    2    0    0  0.41280441237E+02  0.24310373006E+02 -0.56986581005E+02  0.74448233552E+02  0.00000000000E+00 0. -1.
</event>
<event>
 7    1  0.2899775E-009  0.1183508E+03  0.7561462E-02  0.1245843E+00
         -1   -1    0    0    0  501 -0.00000000000E+00  0.00000000000E+00  0.79794708884E+02  0.79794708884E+02  0.00000000000E+00 0.  1.
          1   -1    0    0  501    0  0.00000000000E+00 -0.00000000000E+00 -0.23819901149E+03  0.23819901149E+03  0.00000000000E+00 0. -1.
         25    2    1    2    0    0 -0.50285638234E+02  0.48652785522E+02 -0.14402638215E+03  0.20319200879E+03  0.12509058610E+03 0.  0.
          5    1    3    3  502    0 -0.83510448991E+02  0.25981829380E+02 -0.49978558416E+02  0.10081854616E+03  0.41800000000E+01 0.  1.
         -5    1    3    3    0  502  0.33224810757E+02  0.22670956142E+02 -0.94047823731E+02  0.10237346263E+03  0.41800000000E+01 0.  1.
        -11    1    1    2    0    0  0.63411183256E+02 -0.55578452393E+01  0.85965658139E+01  0.64232147321E+02  0.00000000000E+00 0.  1.
         11    1    1    2    0    0 -0.13125545022E+02 -0.43094940283E+02 -0.22974486271E+02  0.50569564261E+02  0.00000000000E+00 0. -1.
</event>
<event>
 7    1  0.2899775E-009  0.2017873E+03  0.7561462E-02  0.1148240E+00
          2   -1    0    0  501    0  0.00000000000E+00  0.00000000000E+00  0.15886314109E+04  0.15886314109E+04  0.00000000000E+00 0.  1.
         -2   -1    0    0    0  501 -0.00000000000E+00 -0.00000000000E+00 -0.28147367318E+02  0.28147367318E+02  0.00000000000E+00 0. -1.
         25    2    1    2    0    0 -0.11828457807E+03 -0.12477622470E+03  0.59523026793E+03  0.63206538368E+03  0.12508888732E+03 0.  0.
          5    1    3    3  502    0 -0.68899222457E+02 -0.14269194027E+03  0.41322747095E+03  0.44258615864E+03  0.41800000000E+01 0.  1.
         -5    1    3    3    0  502 -0.49385355610E+02  0.17915715574E+02  0.18200279697E+03  0.18947922503E+03  0.41800000000E+01 0.  1.
        -11    1    1    2    0    0  0.12840877713E+03  0.12841832225E+03  0.93789087414E+03  0.95531113849E+03  0.00000000000E+00 0. -1.
         11    1    1    2    0    0 -0.10124199067E+02 -0.36420975509E+01  0.27362901543E+02  0.29402256073E+02  0.00000000000E+00 0.  1.
</event>
<event>
 7    1  0.2899775E-009  0.9698871E+02  0.7561462E-02  0.1286759E+00
         -3   -1    0    0    0  501 -0.00000000000E+00  0.00000000000E+00  0.14516685636E+03  0.14516685636E+03  0.00000000000E+00 0.  1.
          3   -1    0    0  501    0  0.00000000000E+00 -0.00000000000E+00 -0.99678213483E+02  0.99678213483E+02  0.00000000000E+00 0. -1.
         25    2    1    2    0    0 -0.47137977625E+02  0.84145868458E+00  0.31614397247E+02  0.13736660233E+03  0.12508963320E+03 0.  0.
          5    1    3    3  502    0  0.38680816105E+02  0.33311447822E+01  0.33410847487E+02  0.51391236509E+02  0.41800000000E+01 0. -1.
         -5    1    3    3    0  502 -0.85818793730E+02 -0.24896860976E+01 -0.17964502402E+01  0.85975365818E+02  0.41800000000E+01 0. -1.
        -11    1    1    2    0    0  0.52086954522E+02  0.13494252066E+02 -0.29616749086E+02  0.61419032039E+02  0.00000000000E+00 0. -1.
         11    1    1    2    0    0 -0.49489768976E+01 -0.14335710751E+02  0.43490994715E+02  0.46059435476E+02  0.00000000000E+00 0.  1.
</event>
<event>
 7    1  0.2899775E-009  0.1608862E+03  0.7561462E-02  0.1187700E+00
          2   -1    0    0  501    0  0.00000000000E+00  0.00000000000E+00  0.91469398920E+02  0.91469398920E+02  0.00000000000E+00 0. -1.
         -2   -1    0    0    0  501 -0.00000000000E+00 -0.00000000000E+00 -0.41085419966E+03  0.41085419966E+03  0.00000000000E+00 0.  1.
         25    2    1    2    0    0 -0.48577614160E+02 -0.12465130075E+03 -0.53064739480E+02  0.19068783011E+03  0.12509296783E+03 0.  0.
          5    1    3    3  502    0 -0.60183943970E+02 -0.13577210951E+03 -0.15208467627E+02  0.14934839376E+03  0.41800000000E+01 0.  1.
         -5    1    3    3    0  502  0.11606329809E+02  0.11120808759E+02 -0.37856271853E+02  0.41339436349E+02  0.41800000000E+01 0.  1.
        -11    1    1    2    0    0  0.65408478467E+02  0.56624150268E+02 -0.18538215686E+03  0.20457543237E+03  0.00000000000E+00 0.  1.
         11    1    1    2    0    0 -0.16830864307E+02  0.68027150481E+02 -0.80937904404E+02  0.10706033610E+03  0.00000000000E+00 0. -1.
</event>
<event>
 7    1  0.2899775E-009  0.1069577E+03  0.7561462E-02  0.1266310E+00
          3   -1    0    0  501    0  0.00000000000E+00  0.00000000000E+00  0.15236099303E+03  0.15236099303E+03  0.00000000000E+00 0. -1.
         -3   -1    0    0    0  501 -0.00000000000E+00 -0.00000000000E+00 -0.91831570484E+02  0.91831570484E+02  0.00000000000E+00 0.  1.
         25    2    1    2    0    0 -0.68810996628E+01 -0.38311971685E+02  0.66595633849E+01  0.13117779121E+03  0.12509239151E+03 0.  0.
          5    1    3    3  502    0 -0.21825321041E+02  0.38671502794E+02 -0.19113985507E+02  0.48524701018E+02  0.41800000000E+01 0. -1.
         -5    1    3    3    0  502  0.14944221378E+02 -0.76983474479E+02  0.25773548892E+02  0.82653090190E+02  0.41800000000E+01 0. -1.
        -11    1    1    2    0    0  0.43035328660E+02  0.83765511934E+01  0.32227451552E+01  0.43961258047E+02  0.00000000000E+00 0.  1.
         11    1    1    2    0    0 -0.36154228997E+02  0.29935420492E+02  0.50647114006E+02  0.69053514259E+02  0.00000000000E+00 0. -1.
</event>
<event>
 7    1  0.2899775E-009  0.1786797E+03  0.7561462E-02  0.1169087E+00
          2   -1    0    0  501    0  0.00000000000E+00  0.00000000000E+00  0.34267970864E+04  0.34267970864E+04  0.00000000000E+00 0. -1.
         -2   -1    0    0    0  501 -0.00000000000E+00 -0.00000000000E+00 -0.14902236902E+02  0.14902236902E+02  0.00000000000E+00 0.  1.
         25    2    1    2    0    0  0.14263253530E+03  0.35452894631E+02  0.27746842031E+04  0.27813886674E+04  0.12509813733E+03 0.  0.
          5    1    3    3  502    0 -0.11693275346E+01 -0.27557569666E+02  0.20231050327E+03  0.20422487387E+03  0.41800000000E+01 0.  1.
         -5    1    3    3    0  502  0.14380186283E+03  0.63010464297E+02  0.25723736998E+04  0.25771637935E+04  0.41800000000E+01 0.  1.
        -11    1    1    2    0    0 -0.78895258033E+02  0.26788229117E+02  0.33811612308E+03  0.34823064720E+03  0.00000000000E+00 0.  1.
         11    1    1    2    0    0 -0.63737277266E+02 -0.62241123748E+02  0.29909452333E+03  0.31208000879E+03  0.00000000000E+00 0. -1.
</event>
<event>
 7    1  0.2899775E-009  0.1019912E+03  0.7561462E-02  0.1276164E+00
          2   -1    0    0  501    0  0.00000000000E+00  0.00000000000E+00  0.21867568372E+03  0.21867568372E+03  0.00000000000E+00 0.  1.
         -2   -1    0    0    0  501 -0.00000000000E+00 -0.00000000000E+00 -0.96794135534E+02  0.96794135534E+02  0.00000000000E+00 0. -1.
         25    2    1    2    0    0  0.58489896602E+02  0.17234035315E+02  0.62159663432E+02  0.15241011816E+03  0.12508773074E+03 0.  0.
          5    1    3    3  502    0  0.22144427458E+02  0.47322750859E+02 -0.21193792501E+02  0.56537312077E+02  0.41800000000E+01 0. -1.
         -5    1    3    3    0  502  0.36345469144E+02 -0.30088715544E+02  0.83353455933E+02  0.95872806084E+02  0.41800000000E+01 0. -1.
        -11    1    1    2    0    0 -0.36319699540E+02  0.33136991977E+02  0.88287401371E+02  0.10105367907E+03  0.00000000000E+00 0.  1.
         11    1    1    2    0    0 -0.22170197061E+02 -0.50371027292E+02 -0.28565516617E+02  0.62006022028E+02  0.00000000000E+00 0. -1.
</event>
<event>
 7    1  0.2899775E-009  0.1224615E+03  0.7561462E-02  0.1239091E+00
         -2   -1    0    0    0  501 -0.00000000000E+00  0.00000000000E+00  0.15416299543E+03  0.15416299543E+03  0.00000000000E+00 0.  1.
          2   -1    0    0  501    0  0.00000000000E+00 -0.00000000000E+00 -0.11570568346E+03  0.11570568346E+03  0.00000000000E+00 0. -1.
         25    2    1    2    0    0  0.23948575196E+02  0.86938253470E+02  0.30665115521E+02  0.15722182754E+03  0.12508620857E+03 0.  0.
          5    1    3    3  502    0  0.72877473775E+02  0.72788915882E+02  0.19620910138E+02  0.10493714773E+03  0.41800000000E+01 0. -1.
         -5    1    3    3    0  502 -0.48928898579E+02  0.14149337589E+02  0.11044205382E+02  0.52284679810E+02  0.41800000000E+01 0. -1.
        -11    1    1    2    0    0 -0.24364282606E+02 -0.76525337617E+02  0.31876048292E+02  0.86405023112E+02  0.00000000000E+00 0.  1.
         11    1    1    2    0    0  0.41570740990E+00 -0.10412915853E+02 -0.24083851851E+02  0.26241828236E+02  0.00000000000E+00 0. -1.
</event>
<event>
 7    1  0.2899775E-009  0.6089034E+02  0.7561462E-02  0.1394133E+00
          3   -1    0    0  501    0  0.00000000000E+00  0.00000000000E+00  0.70500420207E+03  0.70500420207E+03  0.00000000000E+00 0. -1.
         -3   -1    0    0    0  501 -0.00000000000E+00 -0.00000000000E+00 -0.93273428523E+02  0.93273428523E+02  0.00000000000E+00 0.  1.
         25    2    1    2    0    0  0.18424039662E+02  0.36401051894E+02  0.66978277743E+03  0.68258416565E+03  0.12509073680E+03 0.  0.
          5    1    3    3  502    0  0.17427090243E+02  0.14810070508E+02  0.15524796841E+02  0.27955918510E+02  0.41800000000E+01 0.  1.
         -5    1    3    3    0  502  0.99694941970E+00  0.21590981387E+02  0.65425798059E+03  0.65462824714E+03  0.41800000000E+01 0.  1.
        -11    1    1    2    0    0  0.23591995836E+02 -0.51348513265E+01 -0.58534276369E+02  0.63318326539E+02  0.00000000000E+00 0.  1.
         11    1    1    2    0    0 -0.42016035499E+02 -0.31266200568E+02  0.48227249117E+00  0.52375138413E+02  0.00000000000E+00 0. -1.
</event>
<event>
 7    1  0.2899775E-009  0.1728556E+03  0.7561462E-02  0.1174902E+00
         -2   -1    0    0    0  501 -0.00000000000E+00  0.00000000000E+00  0.10643243267E+03  0.10643243267E+03  0.00000000000E+00 0.  1.
          2   -1    0    0  501    0  0.00000000000E+00 -0.00000000000E+00 -0.35113601040E+03  0.35113601040E+03  0.00000000000E+00 0. -1.
         25    2    1    2    0    0 -0.11141751055E+03 -0.10391730521E+03 -0.75148931603E+02  0.21096806884E+03  0.12508995231E+03 0.  0.
          5    1    3    3  502    0  0.95052605149E+01 -0.65606595630E+02 -0.66710793103E+01  0.66757404584E+02  0.41800000000E+01 0. -1.
         -5    1    3    3    0  502 -0.12092277106E+03 -0.38310709579E+02 -0.68477852293E+02  0.14421066425E+03  0.41800000000E+01 0. -1.
        -11    1    1    2    0    0  0.26757251537E+02  0.26237779534E+02  0.48111440411E+01  0.37782518334E+02  0.00000000000E+00 0.  1.
         11    1    1    2    0    0  0.84660259010E+02  0.77679525675E+02 -0.17436579017E+03  0.20881785591E+03  0.00000000000E+00 0. -1.
</event>
<event>
 7    1  0.2899775E-009  0.1198321E+03  0.7561462E-02  0.1243374E+00
         -3   -1    0    0    0  501 -0.00000000000E+00  0.00000000000E+00  0.38205933449E+02  0.38205933449E+02  0.00000000000E+00 0.  1.
          3   -1    0    0  501    0  0.00000000000E+00 -0.00000000000E+00 -0.62783069736E+03  0.62783069736E+03  0.00000000000E+00 0. -1.
         25    2    1    2    0    0  0.52673084815E+02 -0.10117221811E+02 -0.11026956659E+03  0.17516460812E+03  0.12508577289E+03 0.  0.
          5    1    3    3  502    0  0.75795024381E+02  0.35823028936E+02 -0.60461669561E+02  0.10344689947E+03  0.41800000000E+01 0. -1.
         -5    1    3    3    0  502 -0.23121939565E+02 -0.45940250747E+02 -0.49807897033E+02  0.71717708656E+02  0.41800000000E+01 0. -1.
        -11    1    1    2    0    0  0.80815368647E+01  0.36867127296E+02 -0.13499597430E+03  0.14017278406E+03  0.00000000000E+00 0.  1.
         11    1    1    2    0    0 -0.60754621680E+02 -0.26749905485E+02 -0.34435922301E+03  0.35069923862E+03  0.00000000000E+00 0. -1.
</event>
<event>
 7    1  0.2899775E-009  0.8853938E+02  0.7561462E-02  0.1306428E+00
         -1   -1    0    0    0  501 -0.00000000000E+00  0.00000000000E+00  0.16080181933E+03  0.16080181933E+03  0.00000000000E+00 0.  1.
          1   -1    0    0  501    0  0.00000000000E+00 -0.00000000000E+00 -0.16393973272E+03  0.16393973272E+03  0.00000000000E+00 0. -1.
         25    2    1    2    0    0  0.98456239766E+01  0.32018033409E+02 -0.10550549731E+03  0.16703165498E+03  0.12508426372E+03 0.  0.
          5    1    3    3  502    0  0.37619029378E+02 -0.29121195506E+02 -0.77825281488E+01  0.48386729001E+02  0.41800000000E+01 0.  1.
         -5    1    3    3    0  502 -0.27773405401E+02  0.61139228916E+02 -0.97722969159E+02  0.11864492598E+03  0.41800000000E+01 0.  1.
        -11    1    1    2    0    0  0.54841319207E+01  0.13200212183E+02 -0.21012495544E+02  0.25413505732E+02  0.00000000000E+00 0. -1.
         11    1    1    2    0    0 -0.15329755897E+02 -0.45218245592E+02  0.12338007947E+03  0.13229639133E+03  0.00000000000E+00 0.  1.
</event>
<event>
 7    1  0.2899775E-009  0.1198986E+03  0.7561462E-02  0.1243264E+00
          2   -1    0    0  501    0  0.00000000000E+00  0.00000000000E+00  0.49801734606E+02  0.49801734606E+02  0.00000000000E+00 0. -1.
         -2   -1    0    0    0  501 -0.00000000000E+00 -0.00000000000E+00 -0.35534737307E+03  0.35534737307E+03  0.00000000000E+00 0.  1.
         25    2    1    2    0    0  0.26398268750E+02  0.71080379734E+02 -0.18328048423E+03  0.23449728111E+03  0.12509176622E+03 0.  0.
          5    1    3    3  502    0  0.70827943224E+02  0.32016524138E+02 -0.62081443804E+02  0.99565221960E+02  0.41800000000E+01 0.  1.
         -5    1    3    3    0  502 -0.44429674474E+02  0.39063855596E+02 -0.12119904042E+03  0.13493205915E+03  0.41800000000E+01 0.  1.
        -11    1    1    2    0    0 -0.30005245239E+02  0.14389570433E+01 -0.19222131286E+01  0.30101166797E+02  0.00000000000E+00 0.  1.
         11    1    1    2    0    0  0.36069764894E+01 -0.72519336777E+02 -0.12034294111E+03  0.14055065976E+03  0.00000000000E+00 0. -1.
</event>
<event>
 7    1  0.2899775E-009  0.2085683E+03  0.7561462E-02  0.1142705E+00
         -1   -1    0    0    0  501 -0.00000000000E+00  0.00000000000E+00  0.85179985886E+03  0.85179985886E+03  0.00000000000E+00 0.  1.
          1   -1    0    0  501    0  0.00000000000E+00 -0.00000000000E+00 -0.64757891646E+02  0.64757891646E+02  0.00000000000E+00 0. -1.
         25    2    1    2    0    0  0.35649861881E+02 -0.19963648101E+03  0.32610999381E+03  0.40387993827E+03  0.12508252986E+03 0.  0.
          5    1    3    3  502    0 -0.44027943580E+01 -0.51152125803E+02  0.10217160958E+02  0.52514639391E+02  0.41800000000E+01 0.  1.
         -5    1    3    3    0  502  0.40052656238E+02 -0.14848435521E+03  0.31589283285E+03  0.35136529888E+03  0.41800000000E+01 0.  1.
        -11    1    1    2    0    0 -0.37437578051E+02  0.51708009940E+02  0.70245393411E+02  0.94919470277E+02  0.00000000000E+00 0. -1.
         11    1    1    2    0    0  0.17877161710E+01  0.14792847107E+03  0.39068658000E+03  0.41775834196E+03  0.00000000000E+00 0.  1.
</event>
<event>
 7    1  0.2899775E-009  0.9844394E+02  0.7561462E-02  0.1283603E+00
         -1   -1    0    0    0  501 -0.00000000000E+00  0.00000000000E+00  0.30110090369E+02  0.30110090369E+02  0.00000000000E+00 0.  1.
          1   -1    0    0  501    0  0.00000000000E+00 -0.00000000000E+00 -0.45194595906E+03  0.45194595906E+03  0.00000000000E+00 0. -1.
         25    2    1    2    0    0 -0.31150851094E+02 -0.48119898994E+01 -0.30219571109E+03  0.32857787333E+03  0.12509052829E+03 0.  0.
          5    1    3    3  502    0 -0.28137153753E+02  0.44833125288E+02 -0.25294556062E+03  0.25845819310E+03  0.41800000000E+01 0.  1.
         -5    1    3    3    0  502 -0.30136973407E+01 -0.49645115188E+02 -0.49250150474E+02  0.70119680228E+02  0.41800000000E+01 0.  1.
        -11    1    1    2    0    0 -0.20538844270E+02 -0.26437742784E+02 -0.59318950426E+02  0.68114141316E+02  0.00000000000E+00 0.  1.
         11    1    1    2    0    0  0.51689695364E+02  0.31249732684E+02 -0.60321207171E+02  0.85364034781E+02  0.00000000000E+00 0. -1.
</event>
<event>
 7    1  0.2899775E-009  0.1700545E+03  0.7561462E-02  0.1177791E+00
         -3   -1    0    0    0  501 -0.00000000000E+00  0.00000000000E+00  0.15103251642E+03  0.15103251642E+03  0.00000000000E+00 0.  1.
          3   -1    0    0  501    0  0.00000000000E+00 -0.00000000000E+00 -0.24457548375E+03  0.24457548375E+03  0.00000000000E+00 0. -1.
         25    2    1    2    0    0 -0.12371013875E+03  0.96818622891E+02 -0.28111450116E+02  0.20276897172E+03  0.12508780155E+03 0.  0.
          5    1    3    3  502    0 -0.23539225397E+02  0.79103657861E+01 -0.59961244425E+02  0.65034546605E+02  0.41800000000E+01 0. -1.
         -5    1    3    3    0  502 -0.10017091335E+03  0.88908257105E+02  0.31849794308E+02  0.13773442511E+03  0.41800000000E+01 0. -1.
        -11    1    1    2    0    0  0.20595822724E+02 -0.71970421316E+02 -0.20243007568E+02  0.77548106447E+02  0.00000000000E+00 0.  1.
         11    1    1    2    0    0  0.10311431603E+03 -0.24848201574E+02 -0.45188509649E+02  0.11529092200E+03  0.00000000000E+00 0. -1.
</event>
<event>
 7    1  0.2899775E-009  0.7140453E+02  0.7561462E-02  0.1355381E+00
          1   -1    0    0  501    0  0.00000000000E+00  0.00000000000E+00  0.21207290082E+03  0.21207290082E+03  0.00000000000E+00 0. -1.
         -1   -1    0    0    0  501 -0.00000000000E+00 -0.00000000000E+00 -0.57130722822E+02  0.57130722822E+02  0.00000000000E+00 0.  1.
         25    2    1    2    0    0  0.15000183905E+02 -0.14027954273E+01  0.88479303229E+02  0.15396032774E+03  0.12509285377E+03 0.  0.
          5    1    3    3  502    0  0.12394809682E+02 -0.28685277858E+02 -0.23038783930E+02  0.39047848057E+02  0.41800000000E+01 0.  1.
         -5    1    3    3    0  502  0.26053742231E+01  0.27282482431E+02  0.11151808716E+03  0.11491247968E+03  0.41800000000E+01 0.  1.
        -11    1    1    2    0    0  0.62799695007E+01  0.39459610874E+02  0.55600245353E+01  0.40341204495E+02  0.00000000000E+00 0.  1.
         11    1    1    2    0    0 -0.21280153406E+02 -0.38056815447E+02  0.60902850233E+02  0.74902091409E+02  0.00000000000E+00 0. -1.
</event>
<event>
 7    1  0.2899775E-009  0.9580235E+02  0.7561462E-02  0.1289379E+00
          1   -1    0    0  501    0  0.00000000000E+00  0.00000000000E+00  0.47135872134E+03  0.47135872134E+03  0.00000000000E+00 0. -1.
         -1   -1    0    0    0  501 -0.00000000000E+00 -0.00000000000E+00 -0.33705213927E+02  0.33705213927E+02  0.00000000000E+00 0.  1.
         25    2    1    2    0    0 -0.28415263245E+02  0.39789799133E+02  0.33215682010E+03  0.35828303507E+03  0.12509166551E+03 0.  0.
          5    1    3    3  502    0  0.49721329288E+00  0.66528604666E+02  0.29986079357E+03  0.30718116866E+03  0.41800000000E+01 0.  1.
         -5    1    3    3    0  502 -0.28912476538E+02 -0.26738805533E+02  0.32296026531E+02  0.51101866410E+02  0.41800000000E+01 0.  1.
        -11    1    1    2    0    0  0.44488431112E+01  0.20229549243E+02  0.70097388908E+02  0.73093575637E+02  0.00000000000E+00 0. -1.
         11    1    1    2    0    0  0.23966420134E+02 -0.60019348377E+02  0.35399298410E+02  0.73687324565E+02  0.00000000000E+00 0.  1.
</event>
<event>
 7    1  0.2899775E-009  0.7736586E+02  0.7561462E-02  0.1336697E+00
         -4   -1    0    0    0  501 -0.00000000000E+00  0.00000000000E+00  0.29925551156E+03  0.29925551156E+03  0.00000000000E+00 0.  1.
          4   -1    0    0  501    0  0.00000000000E+00 -0.00000000000E+00 -0.37591916414E+02  0.37591916414E+02  0.00000000000E+00 0. -1.
         25    2    1    2    0    0  0.10066048472E+02  0.51891370041E+01  0.15635524308E+03  0.20055271302E+03  0.12508467607E+03 0.  0.
          5    1    3    3  502    0 -0.10195810746E+02 -0.48275796160E+02  0.21434367101E+02  0.53957497576E+02  0.41800000000E+01 0.  1.
         -5    1    3    3    0  502  0.20261859218E+02  0.53464933164E+02  0.13492087598E+03  0.14659521545E+03  0.41800000000E+01 0.  1.
        -11    1    1    2    0    0  0.14992905792E+02 -0.14781269863E+02  0.10734048546E+03  0.10938579882E+03  0.00000000000E+00 0.  1.
         11    1    1    2    0    0 -0.25058954264E+02  0.95921328590E+01 -0.20321333935E+01  0.26908916138E+02  0.00000000000E+00 0. -1.
</event>
<event>
 7    1  0.2899775E-009  0.9657671E+02  0.7561462E-02  0.1287664E+00
         -1   -1    0    0    0  501 -0.00000000000E+00  0.00000000000E+00  0.40808529049E+02  0.40808529049E+02  0.00000000000E+00 0.  1.
          1   -1    0    0  501    0  0.00000000000E+00 -0.00000000000E+00 -0.32653102386E+03  0.32653102386E+03  0.00000000000E+00 0. -1.
         25    2    1    2    0    0  0.15648491269E+02 -0.21928225709E+02 -0.19563392117E+03  0.23377005200E+03  0.12510029471E+03 0.  0.
          5    1    3    3  502    0 -0.14651989148E+02 -0.55142548117E+02 -0.35353965477E+02  0.67251443656E+02  0.41800000000E+01 0. -1.
         -5    1    3    3    0  502  0.30300480417E+02  0.33214322408E+02 -0.16027995569E+03  0.16651860834E+03  0.41800000000E+01 0. -1.
        -11    1    1    2    0    0 -0.50865272174E+02  0.22382316657E+02 -0.28095591053E+02  0.62270428366E+02  0.00000000000E+00 0.  1.
         11    1    1    2    0    0  0.35216780905E+02 -0.45409094775E+00 -0.61992982586E+02  0.71299072545E+02  0.00000000000E+00 0. -1.
</event>
<event>
 7    1  0.2899775E-009  0.1124921E+03  0.7561462E-02  0.1256023E+00
         -1   -1    0    0    0  501 -0.00000000000E+00  0.00000000000E+00  0.39791411564E+03  0.39791411564E+03  0.00000000000E+00 0.  1.
          1   -1    0    0  501    0  0.00000000000E+00 -0.00000000000E+00 -0.32973893000E+02  0.32973893000E+02  0.00000000000E+00 0. -1.
         25    2    1    2    0    0  0.18926692160E+02  0.28780206568E+02  0.23324907764E+03  0.26690699384E+03  0.12509073177E+03 0.  0.
          5    1    3    3  502    0 -0.52645030399E+02  0.19481272539E+01  0.10500394855E+03  0.11755252458E+03  0.41800000000E+01 0. -1.
         -5    1    3    3    0  502  0.71571722559E+02  0.26832079314E+02  0.12824512910E+03  0.14935446926E+03  0.41800000000E+01 0. -1.
        -11    1    1    2    0    0 -0.19415214309E+02  0.30581300385E+02  0.67103824878E+02  0.76256736051E+02  0.00000000000E+00 0.  1.
         11    1    1    2    0    0  0.48852214894E+00 -0.59361506954E+02  0.64587320119E+02  0.87724278748E+02  0.00000000000E+00 0. -1.
</event>
<event>
 7    1  0.2899775E-009  0.6052257E+02  0.7561462E-02  0.1395652E+00
         -2   -1    0    0    0  501 -0.00000000000E+00  0.00000000000E+00  0.83102184073E+02  0.83102184073E+02  0.00000000000E+00 0.  1.
          2   -1    0    0  501    0  0.00000000000E+00 -0.00000000000E+00 -0.17887030545E+03  0.17887030545E+03  0.00000000000E+00 0. -1.
         25    2    1    2    0    0 -0.29950166216E+02  0.15533410540E+02 -0.71756680503E+01  0.12975852354E+03  0.12508990734E+03 0.  0.
          5    1    3    3  502    0  0.49311509116E+01  0.30299335233E+02  0.51319013521E+02  0.59945637987E+02  0.41800000000E+01 0.  1.
         -5    1    3    3    0  502 -0.34881317128E+02 -0.14765924693E+02 -0.58494681572E+02  0.69812885550E+02  0.41800000000E+01 0.  1.
        -11    1    1    2    0    0 -0.36599488445E+01 -0.17892685886E+02 -0.95995569820E+02  0.97717413284E+02  0.00000000000E+00 0. -1.
         11    1    1    2    0    0  0.33610115061E+02  0.23592753463E+01  0.74031164933E+01  0.34496552703E+02  0.00000000000E+00 0.  1.
</event>
<event>
 7    1  0.2899775E-009  0.1287474E+03  0.7561462E-02  0.1229326E+00
          2   -1    0    0  501    0  0.00000000000E+00  0.00000000000E+00  0.64428594826E+03  0.64428594826E+03  0.00000000000E+00 0.  1.
         -2   -1    0    0    0  501 -0.00000000000E+00 -0.00000000000E+00 -0.36533418291E+02  0.36533418291E+02  0.00000000000E+00 0. -1.
         25    2    1    2    0    0 -0.30432420614E+01 -0.78936520512E+02  0.16664285365E+03  0.22283784145E+03  0.12508647935E+03 0.  0.
          5    1    3    3  502    0 -0.54616715793E+02 -0.27181310447E+02  0.30644253398E+02  0.68398479135E+02  0.41800000000E+01 0.  1.
         -5    1    3    3    0  502  0.51573473732E+02 -0.51755210065E+02  0.13599860025E+03  0.15443936231E+03  0.41800000000E+01 0.  1.
        -11    1    1    2    0    0 -0.31933621749E+02 -0.49126995294E+01  0.11703398481E+03  0.12141187922E+03  0.00000000000E+00 0.  1.
         11    1    1    2    0    0  0.34976863811E+02  0.83849220041E+02  0.32407569151E+03  0.33656964589E+03  0.00000000000E+00 0. -1.
</event>
<event>
 7    1  0.2899775E-009  0.1442393E+03  0.7561462E-02  0.1207736E+00
         -1   -1    0    0    0  501 -0.00000000000E+00  0.00000000000E+00  0.31525605753E+03  0.31525605753E+03  0.00000000000E+00 0. -1.
          1   -1    0    0  501    0  0.00000000000E+00 -0.00000000000E+00 -0.99307740970E+02  0.99307740970E+02  0.00000000000E+00 0.  1.
         25    2    1    2    0    0 -0.67726308295E+02 -0.10189480029E+03  0.35348097198E+02  0.17851158949E+03  0.12508995342E+03 0.  0.
          5    1    3    3  502    0 -0.79940388760E+02 -0.59764251012E+02 -0.25766735436E+02  0.10316796261E+03  0.41800000000E+01 0. -1.
         -5    1    3    3    0  502  0.12214080465E+02 -0.42130549276E+02  0.61114832634E+02  0.75343626882E+02  0.41800000000E+01 0. -1.
        -11    1    1    2    0    0  0.32202962422E+02  0.10405795781E+03  0.16376344013E+03  0.19668135065E+03  0.00000000000E+00 0. -1.
         11    1    1    2    0    0  0.35523345874E+02 -0.21631575180E+01  0.16836779228E+02  0.39370858351E+02  0.00000000000E+00 0.  1.
</event>
<event>
 7    1  0.2899775E-009  0.9075040E+02  0.7561462E-02  0.1301045E+00
         -1   -1    0    0    0  501 -0.00000000000E+00  0.00000000000E+00  0.60520627581E+03  0.60520627581E+03  0.00000000000E+00 0. -1.
          1   -1    0    0  501    0  0.00000000000E+00 -0.00000000000E+00 -0.24654663124E+02  0.24654663124E+02  0.00000000000E+00 0.  1.
         25    2    1    2    0    0 -0.40017156927E+02  0.33667370543E+02  0.33955520058E+03  0.36562202668E+03  0.12508743927E+03 0.  0.
          5    1    3    3  502    0 -0.56268686287E+02 -0.10261037654E+01  0.31479856754E+03  0.31981686708E+03  0.41800000000E+01 0.  1.
         -5    1    3    3    0  502  0.16251529359E+02  0.34693474309E+02  0.24756633043E+02  0.45805159598E+02  0.41800000000E+01 0.  1.
        -11    1    1    2    0    0 -0.55400426528E+01 -0.40134655741E+02  0.36182871099E+02  0.54320188006E+02  0.00000000000E+00 0.  1.
         11    1    1    2    0    0  0.45557199580E+02  0.64672851980E+01  0.20481354101E+03  0.20991872425E+03  0.00000000000E+00 0. -1.
</event>
<event>
 7    1  0.2899775E-009  0.1154598E+03  0.7561462E-02  0.1250781E+00
          3   -1    0    0  501    0  0.00000000000E+00  0.00000000000E+00  0.49485228236E+03  0.49485228236E+03  0.00000000000E+00 0. -1.
         -3   -1    0    0    0  501 -0.00000000000E+00 -0.00000000000E+00 -0.27877080663E+02  0.27877080663E+02  0.00000000000E+00 0.  1.
         25    2    1    2    0    0  0.38303038803E+02  0.28729510002E+02  0.27595319017E+03  0.30674054033E+03  0.12508832237E+03 0.  0.
          5    1    3    3  502    0  0.25856502613E+02 -0.48686878676E+02  0.12076162762E+03  0.13281496146E+03  0.41800000000E+01 0. -1.
         -5    1    3    3    0  502  0.12446536190E+02  0.77416388678E+02  0.15519156255E+03  0.17392557887E+03  0.41800000000E+01 0. -1.
        -11    1    1    2    0    0  0.29558003009E+01  0.27339700752E+02  0.30755662801E+02  0.41256596890E+02  0.00000000000E+00 0.  1.
         11    1    1    2    0    0 -0.41258839104E+02 -0.56069210754E+02  0.16026634873E+03  0.17473222580E+03  0.00000000000E+00 0. -1.
</event>
<event>
 7    1  0.2899775E-009  0.1378846E+03  0.7561462E-02  0.1216204E+00
         -1   -1    0    0    0  501 -0.00000000000E+00  0.00000000000E+00  0.38827943045E+03  0.38827943045E+03  0.00000000000E+00 0.  1.
          1   -1    0    0  501    0  0.00000000000E+00 -0.00000000000E+00 -0.11015831939E+03  0.11015831939E+03  0.00000000000E+00 0. -1.
         25    2    1    2    0    0 -0.84751093485E+02 -0.37188596984E+02 -0.35130909068E+02  0.15952281096E+03  0.12509039472E+03 0.  0.
          5    1    3    3  502    0 -0.12289202354E+02  0.43349568310E+02 -0.21987739122E+02  0.50310462518E+02  0.41800000000E+01 0. -1.
         -5    1    3    3    0  502 -0.72461891131E+02 -0.80538165294E+02 -0.13143169947E+02  0.10921234844E+03  0.41800000000E+01 0. -1.
        -11    1    1    2    0    0  0.16185943581E+02 -0.24834647185E+02  0.35890781924E+02  0.46549894710E+02  0.00000000000E+00 0. -1.
         11    1    1    2    0    0  0.68565149904E+02  0.62023244169E+02  0.27736123820E+03  0.29236504417E+03  0.00000000000E+00 0.  1.
</event>
<event>
 7    1  0.2899775E-009  0.1233356E+03  0.7561462E-02  0.1237694E+00
          1   -1    0    0  501    0  0.00000000000E+00  0.00000000000E+00  0.28937832318E+03  0.28937832318E+03  0.00000000000E+00 0. -1.
         -1   -1    0    0    0  501 -0.00000000000E+00 -0.00000000000E+00 -0.61654180051E+02  0.61654180051E+02  0.00000000000E+00 0.  1.
         25    2    1    2    0    0 -0.65801651262E+02 -0.33321503143E+02  0.90678645493E+02  0.17120155448E+03  0.12508867106E+03 0.  0.
          5    1    3    3  502    0 -0.96455386067E+02 -0.22055569313E+01  0.40984727014E+02  0.10490818000E+03  0.41800000000E+01 0.  1.
         -5    1    3    3    0  502  0.30653734804E+02 -0.31115946212E+02  0.49693918479E+02  0.66293374480E+02  0.41800000000E+01 0.  1.
        -11    1    1    2    0    0  0.83196147179E+02  0.24562798101E+02  0.13469927235E+03  0.16021493041E+03  0.00000000000E+00 0. -1.
         11    1    1    2    0    0 -0.17394495916E+02  0.87587050428E+01  0.23462252845E+01  0.19616018335E+02  0.00000000000E+00 0.  1.
</event>
<event>
 7    1  0.2899775E-009  0.1022511E+03  0.7561462E-02  0.1275632E+00
          1   -1    0    0  501    0  0.00000000000E+00  0.00000000000E+00  0.32610633992E+03  0.32610633992E+03  0.00000000000E+00 0. -1.
         -1   -1    0    0    0  501 -0.00000000000E+00 -0.00000000000E+00 -0.41473298064E+02  0.41473298064E+02  0.00000000000E+00 0.  1.
         25    2    1    2    0    0  0.16377625755E+01 -0.53293463857E+02  0.18847107284E+03  0.23240333336E+03  0.12508832279E+03 0.  0.
          5    1    3    3  502    0 -0.38716079345E+02  0.17185252449E+02  0.23848440900E+02  0.48790247334E+02  0.41800000000E+01 0.  1.
         -5    1    3    3    0  502  0.40353841921E+02 -0.70478716306E+02  0.16462263194E+03  0.18361308602E+03  0.41800000000E+01 0.  1.
        -11    1    1    2    0    0 -0.29728540000E+02  0.39172634224E+02  0.90829054009E+02  0.10328697118E+03  0.00000000000E+00 0. -1.
         11    1    1    2    0    0  0.28090777424E+02  0.14120829633E+02  0.53329150074E+01  0.31889333456E+02  0.00000000000E+00 0.  1.
</event>
<event>
 7    1  0.2899775E-009  0.1872932E+03  0.7561462E-02  0.1160926E+00
          1   -1    0    0  501    0  0.00000000000E+00  0.00000000000E+00  0.42220101372E+03  0.42220101372E+03  0.00000000000E+00 0. -1.
         -1   -1    0    0    0  501 -0.00000000000E+00 -0.00000000000E+00 -0.94326318215E+02  0.94326318215E+02  0.00000000000E+00 0.  1.
         25    2    1    2    0    0 -0.25994169283E+02  0.16092955606E+03  0.12460605437E+03  0.24030858152E+03  0.12509007442E+03 0.  0.
          5    1    3    3  502    0 -0.49227997873E+02  0.26427905101E+02  0.77956708967E+02  0.96002868789E+02  0.41800000000E+01 0. -1.
         -5    1    3    3    0  502  0.23233828591E+02  0.13450165096E+03  0.46649345404E+02  0.14430571273E+03  0.41800000000E+01 0. -1.
        -11    1    1    2    0    0 -0.29497691374E+02 -0.57375766270E+02  0.10412415578E+03  0.12249053910E+03  0.00000000000E+00 0. -1.
         11    1    1    2    0    0  0.55491860656E+02 -0.10355378979E+03  0.99144485358E+02  0.15372821132E+03  0.00000000000E+00 0.  1.
</event>
<event>
 7    1  0.2899775E-009  0.1581351E+03  0.7561462E-02  0.1190818E+00
         -1   -1    0    0    0  501 -0.00000000000E+00  0.00000000000E+00  0.63043772442E+02  0.63043772442E+02  0.00000000000E+00 0.  1.
          1   -1    0    0  501    0  0.00000000000E+00 -0.00000000000E+00 -0.59982119625E+03  0.59982119625E+03  0.00000000000E+00 0. -1.
         25    2    1    2    0    0 -0.83811438774E+02  0.10678417438E+03 -0.42785429618E+03  0.46597548255E+03  0.12508650774E+03 0.  0.
          5    1    3    3  502    0  0.28191153956E+02  0.13692614170E+02 -0.13783983359E+03  0.14141966259E+03  0.41800000000E+01 0.  1.
         -5    1    3    3    0  502 -0.11200259273E+03  0.93091560210E+02 -0.29001446259E+03  0.32455581996E+03  0.41800000000E+01 0.  1.
        -11    1    1    2    0    0  0.32247574805E+01 -0.21030943837E+02 -0.69657600379E+02  0.72834613681E+02  0.00000000000E+00 0. -1.
         11    1    1    2    0    0  0.80586681294E+02 -0.85753230543E+02 -0.39265527255E+02  0.12405487246E+03  0.00000000000E+00 0.  1.
</event>
<event>
 7    1  0.2899775E-009  0.1107139E+03  0.7561462E-02  0.1259254E+00
          4   -1    0    0  501    0  0.00000000000E+00  0.00000000000E+00  0.13416974173E+03  0.13416974173E+03  0.00000000000E+00 0. -1.
         -4   -1    0    0    0  501 -0.00000000000E+00 -0.00000000000E+00 -0.99900063070E+02  0.99900063070E+02  0.00000000000E+00 0.  1.
         25    2    1    2    0    0  0.26154228784E+01 -0.31035213785E+02  0.48041015400E+02  0.13756602351E+03  0.12508575752E+03 0.  0.
          5    1    3    3  502    0  0.40653493855E+02 -0.65549557229E+02  0.25822650472E+02  0.81447729821E+02  0.41800000000E+01 0.  1.
         -5    1    3    3    0  502 -0.38038070977E+02  0.34514343444E+02  0.22218364928E+02  0.56118293694E+02  0.41800000000E+01 0.  1.
        -11    1    1    2    0    0  0.13226669889E+02  0.59024116482E+02 -0.20071632225E+02  0.63731166183E+02  0.00000000000E+00 0.  1.
         11    1    1    2    0    0 -0.15842092767E+02 -0.27988902697E+02  0.63002954844E+01  0.32772615102E+02  0.00000000000E+00 0. -1.
</event>
<event>
 7    1  0.2899775E-009  0.1451065E+03  0.7561462E-02  0.1206618E+00
         -1   -1    0    0    0  501 -0.00000000000E+00  0.00000000000E+00  0.18828729817E+03  0.18828729817E+03  0.00000000000E+00 0.  1.
          1   -1    0    0  501    0  0.00000000000E+00 -0.00000000000E+00 -0.12415695848E+03  0.12415695848E+03  0.00000000000E+00 0. -1.
         25    2    1    2    0    0  0.24553041839E+02 -0.93579165214E+02 -0.13609960346E+02  0.15872326012E+03  0.12509168740E+03 0.  0.
          5    1    3    3  502    0  0.69366070867E+02 -0.88950928227E+02 -0.10735856532E+02  0.11338717051E+03  0.41800000000E+01 0. -1.
         -5    1    3    3    0  502 -0.44813029028E+02 -0.46282369865E+01 -0.28741038137E+01  0.45336089609E+02  0.41800000000E+01 0. -1.
        -11    1    1    2    0    0 -0.17137789224E+02 -0.15291146150E+02  0.18906761775E+02  0.29748758140E+02  0.00000000000E+00 0. -1.
         11    1    1    2    0    0 -0.74152526155E+01  0.10887031136E+03  0.58833538256E+02  0.12397223839E+03  0.00000000000E+00 0.  1.
</event>
<event>
 7    1  0.2899775E-009  0.1270603E+03  0.7561462E-02  0.1231884E+00
         -2   -1    0    0    0  501 -0.00000000000E+00  0.00000000000E+00  0.12501012266E+03  0.12501012266E+03  0.00000000000E+00 0.  1.
          2   -1    0    0  501    0  0.00000000000E+00 -0.00000000000E+00 -0.20335901147E+03  0.20335901147E+03  0.00000000000E+00 0. -1.
         25    2    1    2    0    0 -0.36432825189E+02  0.63027199003E+02 -0.13619433647E+03  0.19873578886E+03  0.12508892006E+03 0.  0.
          5    1    3    3  502    0 -0.80826491799E+02  0.33858599984E+02 -0.62158518874E+02  0.10751967466E+03  0.41800000000E+01 0. -1.
         -5    1    3    3    0  502  0.44393666610E+02  0.29168599018E+02 -0.74035817592E+02  0.91216114203E+02  0.41800000000E+01 0. -1.
        -11    1    1    2    0    0  0.10674470860E+02  0.21897662041E+02  0.12815140306E+01  0.24394552859E+02  0.00000000000E+00 0. -1.
         11    1    1    2    0    0  0.25758354329E+02 -0.84924861043E+02  0.56563933624E+02  0.10523879241E+03  0.00000000000E+00 0.  1.
</event>
<event>
 7    1  0.2899775E-009  0.7964130E+02  0.7561462E-02  0.1330072E+00
         -1   -1    0    0    0  501 -0.00000000000E+00  0.00000000000E+00  0.33523170445E+03  0.33523170445E+03  0.00000000000E+00 0.  1.
          1   -1    0    0  501    0  0.00000000000E+00 -0.00000000000E+00 -0.68581860840E+02  0.68581860840E+02  0.00000000000E+00 0. -1.
         25    2    1    2    0    0 -0.29687059986E+02  0.12564942564E+02  0.27807358373E+03  0.30661273396E+03  0.12508897372E+03 0.  0.
          5    1    3    3  502    0 -0.20255839213E+02  0.35663490828E+02  0.27827710475E+03  0.28131442023E+03  0.41800000000E+01 0. -1.
         -5    1    3    3    0  502 -0.94312207725E+01 -0.23098548264E+02 -0.20352101335E+00  0.25298313738E+02  0.41800000000E+01 0. -1.
        -11    1    1    2    0    0  0.46080578099E+02  0.24529581691E+02  0.69756794688E+01  0.52666689282E+02  0.00000000000E+00 0.  1.
         11    1    1    2    0    0 -0.16393518113E+02 -0.37094524255E+02 -0.18399419597E+02  0.44534142041E+02  0.00000000000E+00 0. -1.
</event>
<event>
 7    1  0.2899775E-009  0.1230589E+03  0.7561462E-02  0.1238134E+00
         -3   -1    0    0    0  501 -0.00000000000E+00  0.00000000000E+00  0.16476597128E+03  0.16476597128E+03  0.00000000000E+00 0.  1.
          3   -1    0    0  501    0  0.00000000000E+00 -0.00000000000E+00 -0.15904600569E+03  0.15904600569E+03  0.00000000000E+00 0. -1.
         25    2    1    2    0    0  0.94446998053E+02  0.27080340592E+02 -0.66441699053E+02  0.17238354012E+03  0.12509198713E+03 0.  0.
          5    1    3    3  502    0  0.64983604106E+02 -0.16285507942E+02 -0.92019307280E+02  0.11389956929E+03  0.41800000000E+01 0.  1.
         -5    1    3    3    0  502  0.29463393946E+02  0.43365848534E+02  0.25577608226E+02  0.58483970834E+02  0.41800000000E+01 0.  1.
        -11    1    1    2    0    0 -0.26135472507E+02  0.28254432951E+02  0.12950650437E+01  0.38510428432E+02  0.00000000000E+00 0. -1.
         11    1    1    2    0    0 -0.68311525546E+02 -0.55334773543E+02  0.70866599606E+02  0.11291800842E+03  0.00000000000E+00 0.  1.
</event>
<event>
 7    1  0.2899775E-009  0.1151808E+03  0.7561462E-02  0.1251266E+00
         -2   -1    0    0    0  501 -0.00000000000E+00  0.00000000000E+00  0.64284062292E+02  0.64284062292E+02  0.00000000000E+00 0.  1.
          2   -1    0    0  501    0  0.00000000000E+00 -0.00000000000E+00 -0.39788771978E+03  0.39788771978E+03  0.00000000000E+00 0. -1.
         25    2    1    2    0    0  0.65159189818E+02 -0.77823985121E+02 -0.26411350262E+03  0.30936315383E+03  0.12508927214E+03 0.  0.
          5    1    3    3  502    0  0.11978768193E+02 -0.16490263410E+02  0.10262578158E+02  0.23199409156E+02  0.41800000000E+01 0.  1.
         -5    1    3    3    0  502  0.53180421626E+02 -0.61333721711E+02 -0.27437608078E+03  0.28616374468E+03  0.41800000000E+01 0.  1.
        -11    1    1    2    0    0  0.17386197427E+02  0.24338502842E+02  0.37944220877E+01  0.30150293872E+02  0.00000000000E+00 0.  1.
         11    1    1    2    0    0 -0.82545387246E+02  0.53485482279E+02 -0.73284576950E+02  0.12265833436E+03  0.00000000000E+00 0. -1.
</event>
<event>
 7    1  0.2899775E-009  0.3738056E+03  0.7561462E-02  0.1053247E+00
          2   -1    0    0  501    0  0.00000000000E+00  0.00000000000E+00  0.17461653692E+04  0.17461653692E+04  0.00000000000E+00 0. -1.
         -2   -1    0    0    0  501 -0.00000000000E+00 -0.00000000000E+00 -0.81085140451E+02  0.81085140451E+02  0.00000000000E+00 0.  1.
         25    2    1    2    0    0  0.32658421603E+03 -0.15108666125E+03  0.80192390581E+03  0.88781512596E+03  0.12509723337E+03 0.  0.
          5    1    3    3  502    0  0.75802910309E+02 -0.94131798538E+02  0.20815656036E+03  0.24073533752E+03  0.41800000000E+01 0.  1.
         -5    1    3    3    0  502  0.25078130573E+03 -0.56954862716E+02  0.59376734545E+03  0.64707978844E+03  0.41800000000E+01 0.  1.
        -11    1    1    2    0    0 -0.28979192134E+03  0.16081418051E+03  0.79611783708E+03  0.86234805551E+03  0.00000000000E+00 0. -1.
         11    1    1    2    0    0 -0.36792294694E+02 -0.97275192597E+01  0.67038485840E+02  0.77087328164E+02  0.00000000000E+00 0.  1.
</event>
<event>
 7    1  0.2899775E-009  0.8147340E+02  0.7561462E-02  0.1324921E+00
          1   -1    0    0  501    0  0.00000000000E+00  0.00000000000E+00  0.84511519911E+03  0.84511519911E+03  0.00000000000E+00 0. -1.
         -1   -1    0    0    0  501 -0.00000000000E+00 -0.00000000000E+00 -0.18374919307E+02  0.18374919307E+02  0.00000000000E+00 0.  1.
         25    2    1    2    0    0 -0.14669664860E+02  0.28621612315E+02  0.63306583926E+03  0.64610811066E+03  0.12509571562E+03 0.  0.
          5    1    3    3  502    0 -0.42486064326E+02  0.34433532447E+00  0.72582009048E+02  0.84206915786E+02  0.41800000000E+01 0. -1.
         -5    1    3    3    0  502  0.27816399467E+02  0.28277276990E+02  0.56048383021E+03  0.56190119488E+03  0.41800000000E+01 0. -1.
        -11    1    1    2    0    0  0.20123076150E+02  0.21791642378E+02  0.14169343371E+03  0.14476478518E+03  0.00000000000E+00 0. -1.
         11    1    1    2    0    0 -0.54534112899E+01 -0.50413254692E+02  0.51981006832E+02  0.72617222576E+02  0.00000000000E+00 0.  1.
</event>
<event>
 7    1  0.3387956E-009  0.9812116E+02  0.7561462E-02  0.1284297E+00
          1   -1    0    0  501    0  0.00000000000E+00  0.00000000000E+00  0.33157419544E+03  0.33157419544E+03  0.00000000000E+00 0. -1.
         -1   -1    0    0    0  501 -0.00000000000E+00 -0.00000000000E+00 -0.43729322883E+02  0.43729322883E+02  0.00000000000E+00 0.  1.
         25    2    1    2    0    0  0.21096984366E+02 -0.37589859233E+02  0.21014686539E+03  0.24832890240E+03  0.12508980162E+03 0.  0.
          5    1    3    3  502    0  0.39807520353E+02 -0.65194751928E+02  0.19854484039E+03  0.21277340154E+03  0.41800000000E+01 0.  1.
         -5    1    3    3    0  502 -0.18710535987E+02  0.27604892695E+02  0.11602024992E+02  0.35555500862E+02  0.41800000000E+01 0.  1.
        -11    1    1    2    0    0 -0.49205645242E+02  0.21062521010E+02  0.13857601830E+02  0.55288863647E+02  0.00000000000E+00 0.  1.
         11    1    1    2    0    0  0.28108660875E+02  0.16527338223E+02  0.63840405344E+02  0.71685752276E+02  0.00000000000E+00 0. -1.
</event>
<event>
 7    1  0.2899775E-009  0.1228386E+03  0.7561462E-02  0.1238486E+00
          2   -1    0    0  501    0  0.00000000000E+00  0.00000000000E+00  0.46223579811E+03  0.46223579811E+03  0.00000000000E+00 0. -1.
         -2   -1    0    0    0  501 -0.00000000000E+00 -0.00000000000E+00 -0.59422987647E+02  0.59422987647E+02  0.00000000000E+00 0.  1.
         25    2    1    2    0    0 -0.73636389616E+02 -0.88296084817E+02  0.29578290570E+03  0.34110700290E+03  0.12509174094E+03 0.  0.
          5    1    3    3  502    0 -0.69086005624E+02 -0.59064436780E+02  0.29757581801E+03  0.31117571198E+03  0.41800000000E+01 0. -1.
         -5    1    3    3    0  502 -0.45503839923E+01 -0.29231648037E+02 -0.17929123042E+01  0.29931290917E+02  0.41800000000E+01 0. -1.
        -11    1    1    2    0    0 -0.52170463687E+01  0.19432078491E+02  0.64477275785E+02  0.67543632860E+02  0.00000000000E+00 0. -1.
         11    1    1    2    0    0  0.78853435985E+02  0.68864006325E+02  0.42552628980E+02  0.11300815000E+03  0.00000000000E+00 0.  1.
</event>
<event>
 7    1  0.2899775E-009  0.1483716E+03  0.7561462E-02  0.1202488E+00
         -1   -1    0    0    0  501 -0.00000000000E+00  0.00000000000E+00  0.21040327788E+03  0.21040327788E+03  0.00000000000E+00 0.  1.
          1   -1    0    0  501    0  0.00000000000E+00 -0.00000000000E+00 -0.13255080049E+03  0.13255080049E+03  0.00000000000E+00 0. -1.
         25    2    1    2    0    0  0.10436062495E+03  0.32698572064E+00 -0.32051780554E+02  0.16602731674E+03  0.12508599564E+03 0.  0.
          5    1    3    3  502    0  0.85869527332E+02 -0.56014548305E+02 -0.28413291503E+02  0.10647061980E+03  0.41800000000E+01 0. -1.
         -5    1    3    3    0  502  0.18491097622E+02  0.56341534026E+02 -0.36384890514E+01  0.59556696939E+02  0.41800000000E+01 0. -1.
        -11    1    1    2    0    0 -0.11942076593E+03 -0.26502384373E+01  0.10892500484E+03  0.16165704370E+03  0.00000000000E+00 0.  1.
         11    1    1    2    0    0  0.15060140971E+02  0.23232527167E+01  0.97925311211E+00  0.15269717938E+02  0.00000000000E+00 0. -1.
</event>
<event>
 7    1  0.2899775E-009  0.8746025E+02  0.7561462E-02  0.1309121E+00
         -4   -1    0    0    0  501 -0.00000000000E+00  0.00000000000E+00  0.16644997681E+03  0.16644997681E+03  0.00000000000E+00 0.  1.
          4   -1    0    0  501    0  0.00000000000E+00 -0.00000000000E+00 -0.87132178160E+02  0.87132178160E+02  0.00000000000E+00 0. -1.
         25    2    1    2    0    0  0.25563503355E+02 -0.43107402871E+01 -0.38209753696E+01  0.12780274536E+03  0.12508743615E+03 0.  0.
          5    1    3    3  502    0  0.55544869185E+02  0.49535731261E+01  0.43514234570E+02  0.70857119542E+02  0.41800000000E+01 0. -1.
         -5    1    3    3    0  502 -0.29981365830E+02 -0.92643134133E+01 -0.47335209940E+02  0.56945625821E+02  0.41800000000E+01 0. -1.
        -11    1    1    2    0    0 -0.38533618353E+02 -0.31171431174E+02  0.22721312509E+02  0.54522985125E+02  0.00000000000E+00 0. -1.
         11    1    1    2    0    0  0.12970114998E+02  0.35482171461E+02  0.60417461507E+02  0.71256424479E+02  0.00000000000E+00 0.  1.
</event>
<event>
 7    1  0.2899775E-009  0.1093810E+03  0.7561462E-02  0.1261720E+00
          1   -1    0    0  501    0  0.00000000000E+00  0.00000000000E+00  0.79695958332E+03  0.79695958332E+03  0.00000000000E+00 0. -1.
         -1   -1    0    0    0  501 -0.00000000000E+00 -0.00000000000E+00 -0.19789311716E+02  0.19789311716E+02  0.00000000000E+00 0.  1.
         25    2    1    2    0    0 -0.58280390234E+02  0.22920772254E+02  0.43149769560E+03  0.45360773619E+03  0.12509097225E+03 0.  0.
          5    1    3    3  502    0  0.11703376958E+02  0.39267188062E+02  0.47278124345E+02  0.62702268955E+02  0.41800000000E+01 0.  1.
         -5    1    3    3    0  502 -0.69983767191E+02 -0.16346415809E+02  0.38421957125E+03  0.39090546723E+03  0.41800000000E+01 0.  1.
        -11    1    1    2    0    0  0.79896432213E+02 -0.10305281138E+02  0.20501709966E+03  0.22027630343E+03  0.00000000000E+00 0.  1.
         11    1    1    2    0    0 -0.21616041979E+02 -0.12615491116E+02  0.14065547635E+03  0.14286485542E+03  0.00000000000E+00 0. -1.
</event>
<event>
 7    1  0.2899775E-009  0.1350771E+03  0.7561462E-02  0.1220111E+00
          3   -1    0    0  501    0  0.00000000000E+00  0.00000000000E+00  0.11948787220E+03  0.11948787220E+03  0.00000000000E+00 0. -1.
         -3   -1    0    0    0  501 -0.00000000000E+00 -0.00000000000E+00 -0.17586377791E+03  0.17586377791E+03  0.00000000000E+00 0.  1.
         25    2    1    2    0    0 -0.63041522027E+02 -0.73273804046E+02 -0.25683549279E+02  0.16015716840E+03  0.12508952805E+03 0.  0.
          5    1    3    3  502    0  0.29263876033E+02 -0.31347699690E+02 -0.38628371914E+02  0.57867747780E+02  0.41800000000E+01 0.  1.
         -5    1    3    3    0  502 -0.92305398060E+02 -0.41926104356E+02  0.12944822635E+02  0.10228942062E+03  0.41800000000E+01 0.  1.
        -11    1    1    2    0    0  0.54756294884E+02  0.29990262173E+01  0.65546199901E+01  0.55228697530E+02  0.00000000000E+00 0. -1.
         11    1    1    2    0    0  0.82852271435E+01  0.70274777829E+02 -0.37246976417E+02  0.79965784183E+02  0.00000000000E+00 0.  1.
</event>
<event>
 7    1  0.2899775E-009  0.2293227E+03  0.7561462E-02  0.1127117E+00
         -1   -1    0    0    0  501 -0.00000000000E+00  0.00000000000E+00  0.23668466631E+03  0.23668466631E+03  0.00000000000E+00 0. -1.
          1   -1    0    0  501    0  0.00000000000E+00 -0.00000000000E+00 -0.24231024044E+03  0.24231024044E+03  0.00000000000E+00 0.  1.
         25    2    1    2    0    0 -0.20838341722E+03 -0.40772767055E+02  0.28662463935E+01  0.24645902371E+03  0.12509103843E+03 0.  0.
          5    1    3    3  502    0 -0.22542393723E+02  0.38029674611E+02  0.36544385001E+01  0.44556065653E+02  0.41800000000E+01 0. -1.
         -5    1    3    3    0  502 -0.18584102349E+03 -0.78802441666E+02 -0.78819210662E+00  0.20190295806E+03  0.41800000000E+01 0. -1.
        -11    1    1    2    0    0  0.19750595413E+03  0.38377397259E+02  0.19759813808E+02  0.20216794201E+03  0.00000000000E+00 0. -1.
         11    1    1    2    0    0  0.10877463088E+02  0.23953697963E+01 -0.28251634335E+02  0.30367941028E+02  0.00000000000E+00 0.  1.
</event>
<event>
 7    1  0.2899775E-009  0.2112844E+03  0.7561462E-02  0.1140553E+00
          2   -1    0    0  501    0  0.00000000000E+00  0.00000000000E+00  0.49409079193E+03  0.49409079193E+03  0.00000000000E+00 0. -1.
         -2   -1    0    0    0  501 -0.00000000000E+00 -0.00000000000E+00 -0.16462857523E+03  0.16462857523E+03  0.00000000000E+00 0.  1.
         25    2    1    2    0    0 -0.12129933872E+03 -0.16485868611E+03  0.35978056193E+03  0.43241418222E+03  0.12509219112E+03 0.  0.
          5    1    3    3  502    0 -0.13493333199E+01 -0.54924260415E+02  0.18741527239E+03  0.19534700358E+03  0.41800000000E+01 0. -1.
         -5    1    3    3    0  502 -0.11995000540E+03 -0.10993442570E+03  0.17236528954E+03  0.23706717864E+03  0.41800000000E+01 0. -1.
        -11    1    1    2    0    0  0.15423699162E+02  0.23099024585E+02 -0.40465856522E+02  0.49080963486E+02  0.00000000000E+00 0.  1.
         11    1    1    2    0    0  0.10587563956E+03  0.14175966153E+03  0.10147511289E+02  0.17722422146E+03  0.00000000000E+00 0. -1.
</event>
<event>
 7    1  0.2899775E-009  0.1350914E+03  0.7561462E-02  0.1220091E+00
         -1   -1    0    0    0  501 -0.00000000000E+00  0.00000000000E+00  0.85850607524E+02  0.85850607524E+02  0.00000000000E+00 0.  1.
          1   -1    0    0  501    0  0.00000000000E+00 -0.00000000000E+00 -0.24428119866E+03  0.24428119866E+03  0.00000000000E+00 0. -1.
         25    2    1    2    0    0  0.94654073598E+02 -0.98662786014E+01 -0.85549487716E+02  0.17895020630E+03  0.12509086451E+03 0.  0.
          5    1    3    3  502    0  0.52070570824E+02  0.49354294927E+02 -0.78452038317E+01  0.72292533479E+02  0.41800000000E+01 0.  1.
         -5    1    3    3    0  502  0.42583502775E+02 -0.59220573529E+02 -0.77704283885E+02  0.10665767282E+03  0.41800000000E+01 0.  1.
        -11    1    1    2    0    0 -0.13214804437E+02  0.37100701754E+02 -0.47362204180E+02  0.61597658330E+02  0.00000000000E+00 0. -1.
         11    1    1    2    0    0 -0.81439269161E+02 -0.27234423153E+02 -0.25518899240E+02  0.89583941554E+02  0.00000000000E+00 0.  1.
</event>
<event>
 7    1  0.2899775E-009  0.1147107E+03  0.7561462E-02  0.1252087E+00
         -2   -1    0    0    0  501 -0.00000000000E+00  0.00000000000E+00  0.86402502849E+01  0.86402502849E+01  0.00000000000E+00 0.  1.
          2   -1    0    0  501    0  0.00000000000E+00 -0.00000000000E+00 -0.19927890040E+04  0.19927890040E+04  0.00000000000E+00 0. -1.
         25    2    1    2    0    0 -0.61635891100E+01 -0.51307518643E+02 -0.16075822497E+04  0.16132709281E+04  0.12510774043E+03 0.  0.
          5    1    3    3  502    0  0.53196257080E+02 -0.53758244545E+02 -0.87638174488E+03  0.87964892189E+03  0.41800000000E+01 0. -1.
         -5    1    3    3    0  502 -0.59359846190E+02  0.24507259021E+01 -0.73120050479E+03  0.73362200622E+03  0.41800000000E+01 0. -1.
        -11    1    1    2    0    0 -0.90875753099E+01 -0.19592590599E+02 -0.82202233692E+02  0.84992122313E+02  0.00000000000E+00 0.  1.
         11    1    1    2    0    0  0.15251164420E+02  0.70900109242E+02 -0.29436427037E+03  0.30316620388E+03  0.00000000000E+00 0. -1.
</event>
<event>
 7    1  0.2899775E-009  0.6984413E+02  0.7561462E-02  0.1360624E+00
         -1   -1    0    0    0  501 -0.00000000000E+00  0.00000000000E+00  0.57308700869E+02  0.57308700869E+02  0.00000000000E+00 0.  1.
          1   -1    0    0  501    0  0.00000000000E+00 -0.00000000000E+00 -0.23152675931E+03  0.23152675931E+03  0.00000000000E+00 0. -1.
         25    2    1    2    0    0  0.26520248863E+02 -0.16323792230E+01 -0.13164097474E+03  0.18352891232E+03  0.12509007620E+03 0.  0.
          5    1    3    3  502    0 -0.18863541580E+02 -0.39059476868E+01  0.18239371871E+02  0.26855850657E+02  0.41800000000E+01 0. -1.
         -5    1    3    3    0  502  0.45383790444E+02  0.22735684638E+01 -0.14988034661E+03  0.15667306166E+03  0.41800000000E+01 0. -1.
        -11    1    1    2    0    0 -0.32656648475E+02  0.30588235034E+02 -0.56931478403E+02  0.72410565841E+02  0.00000000000E+00 0. -1.
         11    1    1    2    0    0  0.61363996119E+01 -0.28955855811E+02  0.14354394705E+02  0.32895982024E+02  0.00000000000E+00 0.  1.
</event>
<event>
 7    1  0.2899775E-009  0.1075302E+03  0.7561462E-02  0.1265213E+00
          1   -1    0    0  501    0  0.00000000000E+00  0.00000000000E+00  0.37632862158E+03  0.37632862158E+03  0.00000000000E+00 0. -1.
         -1   -1    0    0    0  501 -0.00000000000E+00 -0.00000000000E+00 -0.61983465634E+02  0.61983465634E+02  0.00000000000E+00 0.  1.
         25    2    1    2    0    0 -0.58361500811E+02 -0.57274577458E+01  0.29943803540E+03  0.32977202759E+03  0.12509030570E+03 0.  0.
          5    1    3    3  502    0 -0.52178544531E+02  0.49555670312E+02  0.10406760164E+03  0.12659345592E+03  0.41800000000E+01 0. -1.
         -5    1    3    3    0  502 -0.61829562792E+01 -0.55283128058E+02  0.19537043376E+03  0.20317857167E+03  0.41800000000E+01 0. -1.
        -11    1    1    2    0    0  0.69211291799E+02 -0.80266258423E+01 -0.17376808392E+02  0.71809352488E+02  0.00000000000E+00 0.  1.
         11    1    1    2    0    0 -0.10849790988E+02  0.13754083588E+02  0.32283928935E+02  0.36730707144E+02  0.00000000000E+00 0. -1.
</event>
<event>
 7    1  0.2899775E-009  0.1041981E+03  0.7561462E-02  0.1271708E+00
         -2   -1    0    0    0  501 -0.00000000000E+00  0.00000000000E+00  0.30041087728E+02  0.30041087728E+02  0.00000000000E+00 0.  1.
          2   -1    0    0  501    0  0.00000000000E+00 -0.00000000000E+00 -0.44887332431E+03  0.44887332431E+03  0.00000000000E+00 0. -1.
         25    2    1    2    0    0  0.29615474967E+02  0.29122737361E+02 -0.25393761897E+03  0.28610593926E+03  0.12508830466E+03 0.  0.
          5    1    3    3  502    0  0.63312749110E+02 -0.44305616691E+00 -0.61118966791E+02  0.88100516458E+02  0.41800000000E+01 0.  1.
         -5    1    3    3    0  502 -0.33697274142E+02  0.29565793528E+02 -0.19281865218E+03  0.19800542280E+03  0.41800000000E+01 0.  1.
        -11    1    1    2    0    0 -0.49812705969E+02 -0.50205714980E+02 -0.11594104720E+03  0.13580959435E+03  0.00000000000E+00 0.  1.
         11    1    1    2    0    0  0.20197231002E+02  0.21082977619E+02 -0.48953570410E+02  0.56998878422E+02  0.00000000000E+00 0. -1.
</event>
<event>
 7    1  0.2899775E-009  0.1274325E+03  0.7561462E-02  0.1231316E+00
         -1   -1    0    0    0  501 -0.00000000000E+00  0.00000000000E+00  0.10078169007E+02  0.10078169007E+02  0.00000000000E+00 0.  1.
          1   -1    0    0  501    0  0.00000000000E+00 -0.00000000000E+00 -0.21162131322E+04  0.21162131322E+04  0.00000000000E+00 0. -1.
         25    2    1    2    0    0 -0.38425483067E+02  0.71092489915E+02 -0.15414563340E+04  0.15486336647E+04  0.12509171821E+03 0.  0.
          5    1    3    3  502    0  0.38638519455E+02  0.58559473674E+02 -0.66960209953E+03  0.67328046996E+03  0.41800000000E+01 0. -1.
         -5    1    3    3    0  502 -0.77064002522E+02  0.12533016241E+02 -0.87185423443E+03  0.87535319470E+03  0.41800000000E+01 0. -1.
        -11    1    1    2    0    0 -0.11150980299E+02  0.75235401447E+01 -0.14882091743E+02  0.20060525232E+02  0.00000000000E+00 0.  1.
         11    1    1    2    0    0  0.49576463366E+02 -0.78616030059E+02 -0.54979653752E+03  0.55759711134E+03  0.00000000000E+00 0. -1.
</event>
<event>
 7    1  0.2899775E-009  0.1235882E+03  0.7561462E-02  0.1237292E+00
          4   -1    0    0  501    0  0.00000000000E+00  0.00000000000E+00  0.23952661107E+03  0.23952661107E+03  0.00000000000E+00 0. -1.
         -4   -1    0    0    0  501 -0.00000000000E+00 -0.00000000000E+00 -0.67939761060E+02  0.67939761060E+02  0.00000000000E+00 0.  1.
         25    2    1    2    0    0 -0.65800748325E+02  0.91846939516E+01  0.76898296855E+02  0.16116554190E+03  0.12508751638E+03 0.  0.
          5    1    3    3  502    0  0.34278926958E+02  0.20958106311E+02  0.16709373903E+02  0.43714558556E+02  0.41800000000E+01 0. -1.
         -5    1    3    3    0  502 -0.10007967528E+03 -0.11773412359E+02  0.60188922952E+02  0.11745098335E+03  0.41800000000E+01 0. -1.
        -11    1    1    2    0    0  0.17423441810E+02  0.35831473062E+02  0.59012522930E+02  0.71203571883E+02  0.00000000000E+00 0. -1.
         11    1    1    2    0    0  0.48377306515E+02 -0.45016167013E+02  0.35676030229E+02  0.75097258346E+02  0.00000000000E+00 0.  1.
</event>
<event>
 7    1  0.2899775E-009  0.8415516E+02  0.7561462E-02  0.1317657E+00
         -1   -1    0    0    0  501 -0.00000000000E+00  0.00000000000E+00  0.17452544394E+03  0.17452544394E+03  0.00000000000E+00 0.  1.
          1   -1    0    0  501    0  0.00000000000E+00 -0.00000000000E+00 -0.63630992010E+02  0.63630992010E+02  0.00000000000E+00 0. -1.
         25    2    1    2    0    0  0.10514996000E+02 -0.40530864997E+01  0.55866251033E+02  0.13746537346E+03  0.12509475707E+03 0.  0.
          5    1    3    3  502    0 -0.37496482446E+02 -0.33086003790E+02  0.63230065523E+02  0.80722880453E+02  0.41800000000E+01 0.  1.
         -5    1    3    3    0  502  0.48011478446E+02  0.29032917290E+02 -0.73638144902E+01  0.56742493009E+02  0.41800000000E+01 0.  1.
        -11    1    1    2    0    0  0.60276322303E+01  0.30271375363E+02  0.61691524636E+02  0.68982118904E+02  0.00000000000E+00 0.  1.
         11    1    1    2    0    0 -0.16542628231E+02 -0.26218288863E+02 -0.66633237419E+01  0.31708943580E+02  0.00000000000E+00 0. -1.
</event>
<event>
 7    1  0.2899775E-009  0.1244015E+03  0.7561462E-02  0.1236008E+00
         -1   -1    0    0    0  501 -0.00000000000E+00  0.00000000000E+00  0.22910129834E+02  0.22910129834E+02  0.00000000000E+00 0.  1.
          1   -1    0    0  501    0  0.00000000000E+00 -0.00000000000E+00 -0.13097426816E+04  0.13097426816E+04  0.00000000000E+00 0. -1.
         25    2    1    2    0    0  0.86980532658E+02 -0.77976300739E+02 -0.94765592237E+03  0.96298756225E+03  0.12508949315E+03 0.  0.
          5    1    3    3  502    0  0.84434874281E+02 -0.82235272320E+02 -0.44721905010E+03  0.46250863688E+03  0.41800000000E+01 0. -1.
         -5    1    3    3    0  502  0.25456583773E+01  0.42589715808E+01 -0.50043687227E+03  0.50047892537E+03  0.41800000000E+01 0. -1.
        -11    1    1    2    0    0 -0.31651611179E+02  0.57013747780E+02 -0.77035878704E+02  0.10093026570E+03  0.00000000000E+00 0.  1.
         11    1    1    2    0    0 -0.55328921479E+02  0.20962552959E+02 -0.26214075069E+03  0.26873498349E+03  0.00000000000E+00 0. -1.
</event>
<event>
 7    1  0.2899775E-009  0.9755671E+02  0.7561462E-02  0.1285519E+00
          2   -1    0    0  501    0  0.00000000000E+00  0.00000000000E+00  0.69883562012E+03  0.69883562012E+03  0.00000000000E+00 0. -1.
         -2   -1    0    0    0  501 -0.00000000000E+00 -0.00000000000E+00 -0.19950238604E+02  0.19950238604E+02  0.00000000000E+00 0.  1.
         25    2    1    2    0    0  0.15628370206E+02 -0.44207612212E+02  0.37042980460E+03  0.39378176513E+03  0.12508908618E+03 0.  0.
          5    1    3    3  502    0 -0.49432187940E+02 -0.43728981806E+01  0.87104737119E+02  0.10033628990E+03  0.41800000000E+01 0.  1.
         -5    1    3    3    0  502  0.65060558145E+02 -0.39834714031E+02  0.28332506748E+03  0.29344547522E+03  0.41800000000E+01 0.  1.
        -11    1    1    2    0    0 -0.32962552637E+02  0.38451477782E+02  0.30107378072E+03  0.30530389362E+03  0.00000000000E+00 0. -1.
         11    1    1    2    0    0  0.17334182431E+02  0.57561344299E+01  0.73817961977E+01  0.19700199980E+02  0.00000000000E+00 0.  1.
</event>
<event>
 7    1  0.2899775E-009  0.9399897E+02  0.7561462E-02  0.1293447E+00
         -1   -1    0    0    0  501 -0.00000000000E+00  0.00000000000E+00  0.18390681843E+03  0.18390681843E+03  0.00000000000E+00 0.  1.
          1   -1    0    0  501    0  0.00000000000E+00 -0.00000000000E+00 -0.84320045638E+02  0.84320045638E+02  0.00000000000E+00 0. -1.
         25    2    1    2    0    0 -0.79230639040E+00 -0.59807267758E+02  0.41517528033E+02  0.14473805425E+03  0.12509141533E+03 0.  0.
          5    1    3    3  502    0  0.24502340384E+02 -0.41849460761E+02  0.80910579483E+02  0.94423176830E+02  0.41800000000E+01 0. -1.
         -5    1    3    3    0  502 -0.25294646774E+02 -0.17957806997E+02 -0.39393051450E+02  0.50314877424E+02  0.41800000000E+01 0. -1.
        -11    1    1    2    0    0  0.97897803005E+01 -0.22859219022E+02  0.67275963189E+01  0.25761293540E+02  0.00000000000E+00 0. -1.
         11    1    1    2    0    0 -0.89974739101E+01  0.82666486780E+02  0.51341648444E+02  0.97727516280E+02  0.00000000000E+00 0.  1.
</event>
<event>
 7    1  0.2899775E-009  0.1041613E+03  0.7561462E-02  0.1271781E+00
         -1   -1    0    0    0  501 -0.00000000000E+00  0.00000000000E+00  0.19353839725E+02  0.19353839725E+02  0.00000000000E+00 0.  1.
          1   -1    0    0  501    0  0.00000000000E+00 -0.00000000000E+00 -0.65012028789E+03  0.65012028789E+03  0.00000000000E+00 0. -1.
         25    2    1    2    0    0 -0.27716423925E+02  0.10208565034E+02 -0.35497820741E+03  0.37753049852E+03  0.12508930658E+03 0.  0.
          5    1    3    3  502    0  0.67234658035E+01  0.56381984502E+02 -0.26168635581E+03  0.26780842852E+03  0.41800000000E+01 0. -1.
         -5    1    3    3    0  502 -0.34439889729E+02 -0.46173419468E+02 -0.93291851605E+02  0.10972207000E+03  0.41800000000E+01 0. -1.
        -11    1    1    2    0    0 -0.31900593904E+02 -0.11751515527E+02 -0.72254690470E+02  0.79852904164E+02  0.00000000000E+00 0.  1.
         11    1    1    2    0    0  0.59617017829E+02  0.15429504929E+01 -0.20353355028E+03  0.21209072493E+03  0.00000000000E+00 0. -1.
</event>
<event>
 7    1  0.2899775E-009  0.1332263E+03  0.7561462E-02  0.1222746E+00
         -2   -1    0    0    0  501 -0.00000000000E+00  0.00000000000E+00  0.20226107218E+02  0.20226107218E+02  0.00000000000E+00 0.  1.
          2   -1    0    0  501    0  0.00000000000E+00 -0.00000000000E+00 -0.21916248143E+04  0.21916248143E+04  0.00000000000E+00 0. -1.
         25    2    1    2    0    0 -0.43210496457E+02  0.83983945729E+02 -0.19365472124E+04  0.19428792001E+04  0.12507609684E+03 0.  0.
          5    1    3    3  502    0  0.19647361283E+02  0.88894952691E+02 -0.13051506775E+04  0.13083287411E+04  0.41800000000E+01 0. -1.
         -5    1    3    3    0  502 -0.62857857741E+02 -0.49110069624E+01 -0.63139653489E+03  0.63455045894E+03  0.41800000000E+01 0. -1.
        -11    1    1    2    0    0  0.42897914309E+02 -0.18621267293E+02 -0.17217811824E+03  0.17841605042E+03  0.00000000000E+00 0. -1.
         11    1    1    2    0    0  0.31258214836E+00 -0.65362678435E+02 -0.62673376382E+02  0.90555670982E+02  0.00000000000E+00 0.  1.
</event>
<event>
 7    1  0.2899775E-009  0.2574921E+03  0.7561462E-02  0.1108659E+00
          1   -1    0    0  501    0  0.00000000000E+00  0.00000000000E+00  0.48482912886E+03  0.48482912886E+03  0.00000000000E+00 0. -1.
         -1   -1    0    0    0  501 -0.00000000000E+00 -0.00000000000E+00 -0.28319209661E+03  0.28319209661E+03  0.00000000000E+00 0.  1.
         25    2    1    2    0    0 -0.11758540662E+03  0.21933150212E+03  0.36212239787E+03  0.45684984796E+03  0.12508603786E+03 0.  0.
          5    1    3    3  502    0 -0.34293377175E+02  0.13978219390E+03  0.11536481589E+03  0.18450368721E+03  0.41800000000E+01 0. -1.
         -5    1    3    3    0  502 -0.83292029448E+02  0.79549308218E+02  0.24675758198E+03  0.27234616075E+03  0.41800000000E+01 0. -1.
        -11    1    1    2    0    0  0.15395831607E+02 -0.88009957981E+02 -0.15935308209E+02  0.90756368274E+02  0.00000000000E+00 0. -1.
         11    1    1    2    0    0  0.10218957502E+03 -0.13132154414E+03 -0.14455005741E+03  0.22041500923E+03  0.00000000000E+00 0.  1.
</event>
<event>
 7    1  0.2899775E-009  0.7105591E+02  0.7561462E-02  0.1356539E+00
         -3   -1    0    0    0  501 -0.00000000000E+00  0.00000000000E+00  0.82389320107E+03  0.82389320107E+03  0.00000000000E+00 0.  1.
          3   -1    0    0  501    0  0.00000000000E+00 -0.00000000000E+00 -0.21661599910E+02  0.21661599910E+02  0.00000000000E+00 0. -1.
         25    2    1    2    0    0 -0.26618849323E+02 -0.37505152009E+02  0.64195390887E+03  0.65564289171E+03  0.12509029044E+03 0.  0.
          5    1    3    3  502    0 -0.19907693575E+02  0.22255843063E+01  0.10702477496E+02  0.23092962424E+02  0.41800000000E+01 0. -1.
         -5    1    3    3    0  502 -0.67111557480E+01 -0.39730736315E+02  0.63125143138E+03  0.63254992928E+03  0.41800000000E+01 0. -1.
        -11    1    1    2    0    0 -0.99096592783E+01  0.43064274617E+02  0.27405629475E+02  0.51998092486E+02  0.00000000000E+00 0. -1.
         11    1    1    2    0    0  0.36528508602E+02 -0.55591226083E+01  0.13287206281E+03  0.13791381679E+03  0.00000000000E+00 0.  1.
</event>
<event>
 7    1  0.2899775E-009  0.1003842E+03  0.7561462E-02  0.1279490E+00
          2   -1    0    0  501    0  0.00000000000E+00  0.00000000000E+00  0.42661407407E+03  0.42661407407E+03  0.00000000000E+00 0.  1.
         -2   -1    0    0    0  501 -0.00000000000E+00 -0.00000000000E+00 -0.50709595673E+02  0.50709595673E+02  0.00000000000E+00 0. -1.
         25    2    1    2    0    0  0.76756077459E+02  0.47397237024E+02  0.14243733051E+03  0.20993811060E+03  0.12509046188E+03 0.  0.
          5    1    3    3  502    0  0.17295968032E+02  0.43514865052E+02  0.14265777249E+03  0.15020454868E+03  0.41800000000E+01 0. -1.
         -5    1    3    3    0  502  0.59460109428E+02  0.38823719727E+01 -0.22044197874E+00  0.59733561922E+02  0.41800000000E+01 0. -1.
        -11    1    1    2    0    0 -0.65851263615E+02 -0.50153085271E+02  0.24034641727E+03  0.25420094645E+03  0.00000000000E+00 0.  1.
         11    1    1    2    0    0 -0.10904813844E+02  0.27558482464E+01 -0.68792693880E+01  0.13184612692E+02  0.00000000000E+00 0. -1.
</event>
<event>
 7    1  0.2899775E-009  0.8028876E+02  0.7561462E-02  0.1328234E+00
          1   -1    0    0  501    0  0.00000000000E+00  0.00000000000E+00  0.33044663445E+03  0.33044663445E+03  0.00000000000E+00 0. -1.
         -1   -1    0    0    0  501 -0.00000000000E+00 -0.00000000000E+00 -0.52596483743E+02  0.52596483743E+02  0.00000000000E+00 0.  1.
         25    2    1    2    0    0 -0.13398298576E+02 -0.32096003577E+02  0.24270605079E+03  0.27525132747E+03  0.12508956126E+03 0.  0.
          5    1    3    3  502    0  0.42390373930E+02 -0.20911211192E+02  0.19557536439E+03  0.20124964127E+03  0.41800000000E+01 0.  1.
         -5    1    3    3    0  502 -0.55788672506E+02 -0.11184792385E+02  0.47130686397E+02  0.74001686203E+02  0.41800000000E+01 0.  1.
        -11    1    1    2    0    0 -0.11947458160E+02  0.27942446389E+02  0.62972960824E+02  0.69922212934E+02  0.00000000000E+00 0. -1.
         11    1    1    2    0    0  0.25345756736E+02  0.41535571884E+01 -0.27828860908E+02  0.37869577780E+02  0.00000000000E+00 0.  1.
</event>
<event>
 7    1  0.2899775E-009  0.1860033E+03  0.7561462E-02  0.1162116E+00
          1   -1    0    0  501    0  0.00000000000E+00  0.00000000000E+00  0.89671945844E+03  0.89671945844E+03  0.00000000000E+00 0. -1.
         -1   -1    0    0    0  501 -0.00000000000E+00 -0.00000000000E+00 -0.44247241467E+02  0.44247241467E+02  0.00000000000E+00 0.  1.
         25    2    1    2    0    0  0.11197628176E+02  0.16406242057E+03  0.39095335610E+03  0.44219186427E+03  0.12508898218E+03 0.  0.
          5    1    3    3  502    0 -0.56945726496E+02  0.68691270779E+02  0.16959529528E+03  0.19168031466E+03  0.41800000000E+01 0. -1.
         -5    1    3    3    0  502  0.68143354672E+02  0.95371149794E+02  0.22135806082E+03  0.25051154961E+03  0.41800000000E+01 0. -1.
        -11    1    1    2    0    0 -0.14717790999E+02 -0.85863064919E+02  0.36105013726E+03  0.37141120191E+03  0.00000000000E+00 0. -1.
         11    1    1    2    0    0  0.35201628232E+01 -0.78199355654E+02  0.10046872361E+03  0.12736363372E+03  0.00000000000E+00 0.  1.
</event>
<event>
 7    1  0.3275158E-009  0.1106663E+03  0.7561462E-02  0.1259341E+00
         -2   -1    0    0    0  501 -0.00000000000E+00  0.00000000000E+00  0.11276533860E+03  0.11276533860E+03  0.00000000000E+00 0.  1.
          2   -1    0    0  501    0  0.00000000000E+00 -0.00000000000E+00 -0.16069178417E+03  0.16069178417E+03  0.00000000000E+00 0. -1.
         25    2    1    2    0    0  0.85371946357E+01  0.78392830365E+02 -0.37572058617E+02  0.15256852042E+03  0.12508866572E+03 0.  0.
          5    1    3    3  502    0  0.32012239062E+02  0.86868575115E+02  0.15322832811E+02  0.93931860397E+02  0.41800000000E+01 0.  1.
         -5    1    3    3    0  502 -0.23475044426E+02 -0.84757447506E+01 -0.52894891428E+02  0.58636660026E+02  0.41800000000E+01 0.  1.
        -11    1    1    2    0    0 -0.36891361988E+02 -0.31286864319E+02  0.26057097106E+02  0.54943723735E+02  0.00000000000E+00 0.  1.
         11    1    1    2    0    0  0.28354167353E+02 -0.47105966045E+02 -0.36411484062E+02  0.65944878610E+02  0.00000000000E+00 0. -1.
</event>
<event>
 7    1  0.2899775E-009  0.1617039E+03  0.7561462E-02  0.1186786E+00
          2   -1    0    0  501    0  0.00000000000E+00  0.00000000000E+00  0.15156069542E+03  0.15156069542E+03  0.00000000000E+00 0. -1.
         -2   -1    0    0    0  501 -0.00000000000E+00 -0.00000000000E+00 -0.27374441783E+03  0.27374441783E+03  0.00000000000E+00 0.  1.
         25    2    1    2    0    0  0.74512068442E+02 -0.13738767252E+03  0.11409033549E+02  0.20051238818E+03  0.12509049070E+03 0.  0.
          5    1    3    3  502    0 -0.74859804601E+00 -0.23867863334E+01  0.42517378460E+02  0.42795525691E+02  0.41800000000E+01 0.  1.
         -5    1    3    3    0  502  0.75260666488E+02 -0.13500088619E+03 -0.31108344911E+02  0.15771686249E+03  0.41800000000E+01 0.  1.
        -11    1    1    2    0    0 -0.68650381041E+02  0.76651027259E+02 -0.12694712172E+03  0.16341305489E+03  0.00000000000E+00 0. -1.
         11    1    1    2    0    0 -0.58616874012E+01  0.60736645261E+02 -0.66456342364E+01  0.61379670178E+02  0.00000000000E+00 0.  1.
</event>
<event>
 7    1  0.2899775E-009  0.1657266E+03  0.7561462E-02  0.1182379E+00
          1   -1    0    0  501    0  0.00000000000E+00  0.00000000000E+00  0.25559766777E+02  0.25559766777E+02  0.00000000000E+00 0. -1.
         -1   -1    0    0    0  501 -0.00000000000E+00 -0.00000000000E+00 -0.13683585723E+04  0.13683585723E+04  0.00000000000E+00 0.  1.
         25    2    1    2    0    0  0.79424469220E+01 -0.15201157661E+03 -0.67285222375E+03  0.70110510493E+03  0.12509057225E+03 0.  0.
          5    1    3    3  502    0  0.18142224691E+02 -0.10931754089E+03 -0.22253062939E+03  0.24862988251E+03  0.41800000000E+01 0. -1.
         -5    1    3    3    0  502 -0.10199777769E+02 -0.42694035724E+02 -0.45032159437E+03  0.45247522242E+03  0.41800000000E+01 0. -1.
        -11    1    1    2    0    0 -0.13930376697E+02  0.16319154771E+03 -0.62624893265E+03  0.64731233750E+03  0.00000000000E+00 0. -1.
         11    1    1    2    0    0  0.59879297747E+01 -0.11179971096E+02 -0.43697649162E+02  0.45500896683E+02  0.00000000000E+00 0.  1.
</event>
<event>
 7    1  0.7862487E-009  0.1564630E+03  0.7561462E-02  0.1192749E+00
          1   -1    0    0  501    0  0.00000000000E+00  0.00000000000E+00  0.50459027628E+03  0.50459027628E+03  0.00000000000E+00 0. -1.
         -1   -1    0    0    0  501 -0.00000000000E+00 -0.00000000000E+00 -0.82663694105E+02  0.82663694105E+02  0.00000000000E+00 0.  1.
         25    2    1    2    0    0  0.12592570602E+03 -0.57564122439E+02  0.71957126119E+02  0.19999022059E+03  0.12508936287E+03 0.  0.
          5    1    3    3  502    0 -0.17089970471E+02 -0.24919797601E+01 -0.15421386675E+02  0.23528039035E+02  0.41800000000E+01 0. -1.
         -5    1    3    3    0  502  0.14301567649E+03 -0.55072142679E+02  0.87378512795E+02  0.17646218155E+03  0.41800000000E+01 0. -1.
        -11    1    1    2    0    0 -0.43780075894E+02  0.36612057405E+02  0.51105864567E+02  0.76609054203E+02  0.00000000000E+00 0.  1.
         11    1    1    2    0    0 -0.82145630122E+02  0.20952065034E+02  0.29886359149E+03  0.31065469559E+03  0.00000000000E+00 0. -1.
</event>
<event>
 7    1  0.2899775E-009  0.1374129E+03  0.7561462E-02  0.1216853E+00
         -3   -1    0    0    0  501 -0.00000000000E+00  0.00000000000E+00  0.89496458225E+02  0.89496458225E+02  0.00000000000E+00 0.  1.
          3   -1    0    0  501    0  0.00000000000E+00 -0.00000000000E+00 -0.23207283832E+03  0.23207283832E+03  0.00000000000E+00 0. -1.
         25    2    1    2    0    0 -0.23267094150E+02 -0.91457549321E+02 -0.97689531670E+02  0.18465369706E+03  0.12509157542E+03 0.  0.
          5    1    3    3  502    0  0.44959750540E+02 -0.42916976190E+01 -0.35664964069E+02  0.57699739160E+02  0.41800000000E+01 0.  1.
         -5    1    3    3    0  502 -0.68226844690E+02 -0.87165851702E+02 -0.62024567601E+02  0.12695395790E+03  0.41800000000E+01 0.  1.
        -11    1    1    2    0    0 -0.20988109719E+02  0.62199444035E+02 -0.51522739196E+02  0.83449770773E+02  0.00000000000E+00 0.  1.
         11    1    1    2    0    0  0.44255203869E+02  0.29258105286E+02  0.66358907675E+01  0.53465828720E+02  0.00000000000E+00 0. -1.
</event>
<event>
 7    1  0.2899775E-009  0.1429133E+03  0.7561462E-02  0.1209462E+00
          2   -1    0    0  501    0  0.00000000000E+00  0.00000000000E+00  0.21610902600E+04  0.21610902600E+04  0.00000000000E+00 0. -1.
         -2   -1    0    0    0  501 -0.00000000000E+00 -0.00000000000E+00 -0.20553516161E+02  0.20553516161E+02  0.00000000000E+00 0.  1.
         25    2    1    2    0    0 -0.11559637791E+03 -0.32420504553E+02  0.18192181544E+04  0.18274620131E+04  0.12509637957E+03 0.  0.
          5    1    3    3  502    0 -0.12560399876E+03 -0.35223635008E+02  0.10392640972E+04  0.10474275178E+04  0.41800000000E+01 0. -1.
         -5    1    3    3    0  502  0.10007620851E+02  0.28031304552E+01  0.77995405725E+03  0.78003449529E+03  0.41800000000E+01 0. -1.
        -11    1    1    2    0    0  0.11569427798E+02  0.38207191456E+02  0.13420962611E+03  0.14002094443E+03  0.00000000000E+00 0.  1.
         11    1    1    2    0    0  0.10402695011E+03 -0.57866869029E+01  0.18710896332E+03  0.21416081866E+03  0.00000000000E+00 0. -1.
</event>
<event>
 7    1  0.2899775E-009  0.1192933E+03  0.7561462E-02  0.1244267E+00
         -2   -1    0    0    0  501 -0.00000000000E+00  0.00000000000E+00  0.15250744284E+03  0.15250744284E+03  0.00000000000E+00 0.  1.
          2   -1    0    0  501    0  0.00000000000E+00 -0.00000000000E+00 -0.19625159342E+03  0.19625159342E+03  0.00000000000E+00 0. -1.
         25    2    1    2    0    0 -0.88370726565E+02  0.28299174604E+02  0.74877789010E+02  0.17281322342E+03  0.12508996084E+03 0.  0.
          5    1    3    3  502    0  0.10268995045E+02  0.15021400041E+02 -0.25361702688E+02  0.31492587725E+02  0.41800000000E+01 0.  1.
         -5    1    3    3    0  502 -0.98639721610E+02  0.13277774564E+02  0.10023949170E+03  0.14132063569E+03  0.41800000000E+01 0.  1.
        -11    1    1    2    0    0 -0.13973844719E+02 -0.75128013794E+01 -0.46224808431E+02  0.48871703830E+02  0.00000000000E+00 0. -1.
         11    1    1    2    0    0  0.10234457128E+03 -0.20786373225E+02 -0.72397131159E+02  0.12707410902E+03  0.00000000000E+00 0.  1.
</event>
<event>
 7    1  0.2899775E-009  0.1076706E+03  0.7561462E-02  0.1264945E+00
          1   -1    0    0  501    0  0.00000000000E+00  0.00000000000E+00  0.67150849449E+02  0.67150849449E+02  0.00000000000E+00 0. -1.
         -1   -1    0    0    0  501 -0.00000000000E+00 -0.00000000000E+00 -0.30477853191E+03  0.30477853191E+03  0.00000000000E+00 0.  1.
         25    2    1    2    0    0 -0.17096721040E+01  0.92428841216E+02 -0.11685716883E+03  0.19455072805E+03  0.12509346191E+03 0.  0.
          5    1    3    3  502    0 -0.31584734825E+02  0.80339718071E+02 -0.15107220706E+02  0.87736915213E+02  0.41800000000E+01 0. -1.
         -5    1    3    3    0  502  0.29875062721E+02  0.12089123145E+02 -0.10174994812E+03  0.10681381284E+03  0.41800000000E+01 0. -1.
        -11    1    1    2    0    0  0.12842082577E+02 -0.72140254102E+02 -0.22840953101E+02  0.76751837016E+02  0.00000000000E+00 0. -1.
         11    1    1    2    0    0 -0.11132410473E+02 -0.20288587114E+02 -0.97929560531E+02  0.10062681629E+03  0.00000000000E+00 0.  1.
</event>
<event>
 7    1  0.2899775E-009  0.8695816E+02  0.7561462E-02  0.1310390E+00
         -1   -1    0    0    0  501 -0.00000000000E+00  0.00000000000E+00  0.62854519909E+02  0.62854519909E+02  0.00000000000E+00 0.  1.
          1   -1    0    0  501    0  0.00000000000E+00 -0.00000000000E+00 -0.25803803155E+03  0.25803803155E+03  0.00000000000E+00 0. -1.
         25    2    1    2    0    0  0.61424299997E+02 -0.21407023830E+02 -0.11824054180E+03  0.18401048367E+03  0.12509127498E+03 0.  0.
          5    1    3    3  502    0  0.51756916421E+02 -0.19756510768E+02  0.90371170826E+01  0.56287121087E+02  0.41800000000E+01 0.  1.
         -5    1    3    3    0  502  0.96673835760E+01 -0.16505130616E+01 -0.12727765888E+03  0.12772336258E+03  0.41800000000E+01 0.  1.
        -11    1    1    2    0    0 -0.63904403604E+01  0.46696787492E+02 -0.13182950915E+02  0.48940963261E+02  0.00000000000E+00 0.  1.
         11    1    1    2    0    0 -0.55033859637E+02 -0.25289763662E+02 -0.63760018930E+02  0.87941104533E+02  0.00000000000E+00 0. -1.
</event>
<event>
 7    1  0.2899775E-009  0.6795644E+02  0.7561462E-02  0.1367183E+00
          2   -1    0    0  501    0  0.00000000000E+00  0.00000000000E+00  0.42181219170E+03  0.42181219170E+03  0.00000000000E+00 0.  1.
         -2   -1    0    0    0  501 -0.00000000000E+00 -0.00000000000E+00 -0.29671367262E+02  0.29671367262E+02  0.00000000000E+00 0. -1.
         25    2    1    2    0    0 -0.12388338556E+02 -0.11961982705E+02  0.26977173763E+03  0.29785803732E+03  0.12508421168E+03 0.  0.
          5    1    3    3  502    0 -0.41074736595E+02 -0.14664831827E+02  0.26470358426E+03  0.26830514568E+03  0.41800000000E+01 0. -1.
         -5    1    3    3    0  502  0.28686398039E+02  0.27028491221E+01  0.50681533710E+01  0.29552891642E+02  0.41800000000E+01 0. -1.
        -11    1    1    2    0    0  0.17473231026E+02 -0.22309186817E+02  0.11468924804E+03  0.11813821242E+03  0.00000000000E+00 0.  1.
         11    1    1    2    0    0 -0.50848924698E+01  0.34271169522E+02  0.76798387688E+01  0.35487309215E+02  0.00000000000E+00 0. -1.
</event>
<event>
 7    1  0.2899775E-009  0.1432721E+03  0.7561462E-02  0.1208993E+00
          2   -1    0    0  501    0  0.00000000000E+00  0.00000000000E+00  0.73704640490E+03  0.73704640490E+03  0.00000000000E+00 0. -1.
         -2   -1    0    0    0  501 -0.00000000000E+00 -0.00000000000E+00 -0.31104091164E+02  0.31104091164E+02  0.00000000000E+00 0.  1.
         25    2    1    2    0    0 -0.53720708361E+02 -0.89277707618E+02  0.37006568814E+03  0.40429118044E+03  0.12508525678E+03 0.  0.
          5    1    3    3  502    0 -0.42910628268E+02  0.22931429353E+02  0.13496731661E+03  0.14352986248E+03  0.41800000000E+01 0.  1.
         -5    1    3    3    0  502 -0.10810080094E+02 -0.11220913697E+03  0.23509837152E+03  0.26076131796E+03  0.41800000000E+01 0.  1.
        -11    1    1    2    0    0 -0.36298636368E+01  0.60737101121E+02  0.82502475553E+02  0.10251258379E+03  0.00000000000E+00 0.  1.
         11    1    1    2    0    0  0.57350571998E+02  0.28540606497E+02  0.25337415005E+03  0.26134673184E+03  0.00000000000E+00 0. -1.
</event>
<event>
 7    1  0.2899775E-009  0.1257465E+03  0.7561462E-02  0.1233907E+00
          2   -1    0    0  501    0  0.00000000000E+00  0.00000000000E+00  0.45524200895E+02  0.45524200895E+02  0.00000000000E+00 0. -1.
         -2   -1    0    0    0  501 -0.00000000000E+00 -0.00000000000E+00 -0.34973412614E+03  0.34973412614E+03  0.00000000000E+00 0.  1.
         25    2    1    2    0    0 -0.52871049441E+02  0.40799821951E+02 -0.18347026080E+03  0.23188428983E+03  0.12509601884E+03 0.  0.
          5    1    3    3  502    0 -0.38012595690E+01 -0.43467853115E+02 -0.64782709650E+02  0.78218768197E+02  0.41800000000E+01 0.  1.
         -5    1    3    3    0  502 -0.49069789872E+02  0.84267675066E+02 -0.11868755115E+03  0.15366552163E+03  0.41800000000E+01 0.  1.
        -11    1    1    2    0    0 -0.12320222654E+02 -0.43098269043E+02 -0.48614430254E+02  0.66125725022E+02  0.00000000000E+00 0.  1.
         11    1    1    2    0    0  0.65191272095E+02  0.22984470921E+01 -0.72125234188E+02  0.97248312186E+02  0.00000000000E+00 0. -1.
</event>
<event>
 7    1  0.2899775E-009  0.1030270E+03  0.7561462E-02  0.1274056E+00
          1   -1    0    0  501    0  0.00000000000E+00  0.00000000000E+00  0.95710719029E+02  0.95710719029E+02  0.00000000000E+00 0. -1.
         -1   -1    0    0    0  501 -0.00000000000E+00 -0.00000000000E+00 -0.14179620946E+03  0.14179620946E+03  0.00000000000E+00 0.  1.
         25    2    1    2    0    0  0.25132565396E+02 -0.13731657725E+02 -0.59437171896E+02  0.14142401132E+03  0.12509104408E+03 0.  0.
          5    1    3    3  502    0 -0.35910759474E+02 -0.41509341325E+02 -0.56185256777E+01  0.55332163287E+02  0.41800000000E+01 0. -1.
         -5    1    3    3    0  502  0.61043324871E+02  0.27777683600E+02 -0.53818646218E+02  0.86091848035E+02  0.41800000000E+01 0. -1.
        -11    1    1    2    0    0 -0.23034295485E+02  0.46015875916E+02  0.30137905983E+02  0.59634997961E+02  0.00000000000E+00 0. -1.
         11    1    1    2    0    0 -0.20982699115E+01 -0.32284218191E+02 -0.16786224516E+02  0.36447919204E+02  0.00000000000E+00 0.  1.
</event>
<event>
 7    1  0.2899775E-009  0.1186999E+03  0.7561462E-02  0.1245257E+00
         -2   -1    0    0    0  501 -0.00000000000E+00  0.00000000000E+00  0.17611037969E+02  0.17611037969E+02  0.00000000000E+00 0.  1.
          2   -1    0    0  501    0  0.00000000000E+00 -0.00000000000E+00 -0.10160869435E+04  0.10160869435E+04  0.00000000000E+00 0. -1.
         25    2    1    2    0    0  0.71893956952E+02  0.26779095889E+02 -0.53324042762E+03  0.55306236408E+03  0.12508702528E+03 0.  0.
          5    1    3    3  502    0  0.91487820900E+02  0.36437459705E+02 -0.51485747055E+03  0.52420739906E+03  0.41800000000E+01 0.  1.
         -5    1    3    3    0  502 -0.19593863947E+02 -0.96583638161E+01 -0.18382957063E+02  0.28854965021E+02  0.41800000000E+01 0.  1.
        -11    1    1    2    0    0  0.20314676687E+02 -0.10809656107E+02 -0.50846140341E+02  0.55810973309E+02  0.00000000000E+00 0.  1.
         11    1    1    2    0    0 -0.92208633640E+02 -0.15969439782E+02 -0.41438933761E+03  0.42482464412E+03  0.00000000000E+00 0. -1.
</event>
<event>
 7    1  0.2899775E-009  0.1340357E+03  0.7561462E-02  0.1221587E+00
         -1   -1    0    0    0  501 -0.00000000000E+00  0.00000000000E+00  0.25942898150E+03  0.25942898150E+03  0.00000000000E+00 0.  1.
          1   -1    0    0  501    0  0.00000000000E+00 -0.00000000000E+00 -0.87860618268E+02  0.87860618268E+02  0.00000000000E+00 0. -1.
         25    2    1    2    0    0 -0.10246237211E+03 -0.18237250258E+02  0.83246346129E+02  0.18277891135E+03  0.12508813412E+03 0.  0.
          5    1    3    3  502    0 -0.79406372097E+02 -0.65549202802E+02  0.78931275568E+02  0.12980635031E+03  0.41800000000E+01 0.  1.
         -5    1    3    3    0  502 -0.23056000008E+02  0.47311952544E+02  0.43150705611E+01  0.52972561046E+02  0.41800000000E+01 0.  1.
        -11    1    1    2    0    0  0.91854838033E+02  0.85298969707E+00  0.10403746856E+03  0.13878700849E+03  0.00000000000E+00 0.  1.
         11    1    1    2    0    0  0.10607534072E+02  0.17384260561E+02 -0.15715451456E+02  0.25723679924E+02  0.00000000000E+00 0. -1.
</event>
<event>
 7    1  0.2899775E-009  0.8874571E+02  0.7561462E-02  0.1305918E+00
         -1   -1    0    0    0  501 -0.00000000000E+00  0.00000000000E+00  0.41644644261E+02  0.41644644261E+02  0.00000000000E+00 0.  1.
          1   -1    0    0  501    0  0.00000000000E+00 -0.00000000000E+00 -0.31189289516E+03  0.31189289516E+03  0.00000000000E+00 0. -1.
         25    2    1    2    0    0 -0.82111967185E+01 -0.13995408350E+02 -0.18405654372E+03  0.22313487359E+03  0.12509622424E+03 0.  0.
          5    1    3    3  502    0  0.53603004140E+02  0.15697484821E+02 -0.99542907892E+02  0.11421889508E+03  0.41800000000E+01 0. -1.
         -5    1    3    3    0  502 -0.61814200858E+02 -0.29692893171E+02 -0.84513635831E+02  0.10891597851E+03  0.41800000000E+01 0. -1.
        -11    1    1    2    0    0 -0.21333628229E+02  0.53557998188E+01  0.13674653870E+02  0.25899892733E+02  0.00000000000E+00 0.  1.
         11    1    1    2    0    0  0.29544824947E+02  0.86396085311E+01 -0.99866361041E+02  0.10450277309E+03  0.00000000000E+00 0. -1.
</event>
<event>
 7    1  0.2899775E-009  0.2857217E+03  0.7561462E-02  0.1092604E+00
         -1   -1    0    0    0  501 -0.00000000000E+00  0.00000000000E+00  0.13224670711E+03  0.13224670711E+03  0.00000000000E+00 0.  1.
          1   -1    0    0  501    0  0.00000000000E+00 -0.00000000000E+00 -0.64376730968E+03  0.64376730968E+03  0.00000000000E+00 0. -1.
         25    2    1    2    0    0  0.11880632966E+03  0.23624069813E+03 -0.33826796183E+03  0.44720993784E+03  0.12508758165E+03 0.  0.
          5    1    3    3  502    0  0.14486490419E+03  0.19274705092E+03 -0.26905048255E+03  0.36130721092E+03  0.41800000000E+01 0.  1.
         -5    1    3    3    0  502 -0.26058574533E+02  0.43493647211E+02 -0.69217479276E+02  0.85902726917E+02  0.41800000000E+01 0.  1.
        -11    1    1    2    0    0 -0.11607444307E+03 -0.13459362922E+03 -0.10751854903E+03  0.20772327686E+03  0.00000000000E+00 0. -1.
         11    1    1    2    0    0 -0.27318865817E+01 -0.10164706891E+03 -0.65734091720E+02  0.12108080210E+03  0.00000000000E+00 0.  1.
</event>
<event>
 7    1  0.2899775E-009  0.8470806E+02  0.7561462E-02  0.1316198E+00
          2   -1    0    0  501    0  0.00000000000E+00  0.00000000000E+00  0.34300896956E+03  0.34300896956E+03  0.00000000000E+00 0. -1.
         -2   -1    0    0    0  501 -0.00000000000E+00 -0.00000000000E+00 -0.46883153367E+02  0.46883153367E+02  0.00000000000E+00 0.  1.
         25    2    1    2    0    0  0.47785711813E+02  0.11607384660E+02  0.23200239603E+03  0.26812130433E+03  0.12508283832E+03 0.  0.
          5    1    3    3  502    0  0.27629799341E+02  0.50071833845E+02  0.36871713595E+02  0.68173235361E+02  0.41800000000E+01 0.  1.
         -5    1    3    3    0  502  0.20155912472E+02 -0.38464449185E+02  0.19513068243E+03  0.19994806897E+03  0.41800000000E+01 0.  1.
        -11    1    1    2    0    0  0.11527030452E+01 -0.18929954217E+02 -0.17834336625E+02  0.26033352720E+02  0.00000000000E+00 0.  1.
         11    1    1    2    0    0 -0.48938414859E+02  0.73225695575E+01  0.81957756787E+02  0.95737465871E+02  0.00000000000E+00 0. -1.
</event>
<event>
 7    1  0.2899775E-009  0.1281110E+03  0.7561462E-02  0.1230286E+00
          2   -1    0    0  501    0  0.00000000000E+00  0.00000000000E+00  0.50436972123E+02  0.50436972123E+02  0.00000000000E+00 0. -1.
         -2   -1    0    0    0  501 -0.00000000000E+00 -0.00000000000E+00 -0.34400298413E+03  0.34400298413E+03  0.00000000000E+00 0.  1.
         25    2    1    2    0    0  0.73393131141E+02  0.16004920354E+02 -0.16168918356E+03  0.21779096114E+03  0.12508717559E+03 0.  0.
          5    1    3    3  502    0  0.97434092195E+02  0.40554850121E+02 -0.92383145411E+02  0.14032183061E+03  0.41800000000E+01 0.  1.
         -5    1    3    3    0  502 -0.24040961054E+02 -0.24549929767E+02 -0.69306038153E+02  0.77469130526E+02  0.41800000000E+01 0.  1.
        -11    1    1    2    0    0 -0.92088272264E+02 -0.24738612332E+02 -0.11831721064E+03  0.15195792563E+03  0.00000000000E+00 0. -1.
         11    1    1    2    0    0  0.18695141124E+02  0.87336919781E+01 -0.13559617800E+02  0.24691069480E+02  0.00000000000E+00 0.  1.
</event>
<event>
 7    1  0.2899775E-009  0.1233480E+03  0.7561462E-02  0.1237674E+00
         -1   -1    0    0    0  501 -0.00000000000E+00  0.00000000000E+00  0.36889520144E+03  0.36889520144E+03  0.00000000000E+00 0.  1.
          1   -1    0    0  501    0  0.00000000000E+00 -0.00000000000E+00 -0.54111281000E+02  0.54111281000E+02  0.00000000000E+00 0. -1.
         25    2    1    2    0    0  0.89713931467E+02 -0.15148211081E+02  0.17678840420E+03  0.23490359613E+03  0.12508997488E+03 0.  0.
          5    1    3    3  502    0  0.88383215988E+02  0.41231403625E+02  0.12098910511E+03  0.15545886101E+03  0.41800000000E+01 0. -1.
         -5    1    3    3    0  502  0.13307154788E+01 -0.56379614706E+02  0.55799299089E+02  0.79444735112E+02  0.41800000000E+01 0. -1.
        -11    1    1    2    0    0 -0.48353994855E+02 -0.36476505439E+00  0.57755094884E+01  0.48699059352E+02  0.00000000000E+00 0. -1.
         11    1    1    2    0    0 -0.41359936612E+02  0.15512976135E+02  0.13222000676E+03  0.13940382697E+03  0.00000000000E+00 0.  1.
</event>
<event>
 7    1  0.2899775E-009  0.1057909E+03  0.7561462E-02  0.1268569E+00
          1   -1    0    0  501    0  0.00000000000E+00  0.00000000000E+00  0.91208458010E+03  0.91208458010E+03  0.00000000000E+00 0. -1.
         -1   -1    0    0    0  501 -0.00000000000E+00 -0.00000000000E+00 -0.16943084271E+02  0.16943084271E+02  0.00000000000E+00 0.  1.
         25    2    1    2    0    0 -0.15250985472E+01 -0.34437815692E+02  0.68873003785E+03  0.70084542320E+03  0.12508778160E+03 0.  0.
          5    1    3    3  502    0  0.34719463309E+02  0.26618628416E+02  0.43868424152E+03  0.44088017496E+03  0.41800000000E+01 0.  1.
         -5    1    3    3    0  502 -0.36244561856E+02 -0.61056444109E+02  0.25004579633E+03  0.25996524824E+03  0.41800000000E+01 0.  1.
        -11    1    1    2    0    0 -0.40115034256E+02 -0.33787017686E+01  0.10044379588E+03  0.10821084849E+03  0.00000000000E+00 0. -1.
         11    1    1    2    0    0  0.41640132804E+02  0.37816517461E+02  0.10596766210E+03  0.11997139269E+03  0.00000000000E+00 0.  1.
</event>
<event>
 7    1  0.2899775E-009  0.9000296E+02  0.7561462E-02  0.1302845E+00
         -2   -1    0    0    0  501 -0.00000000000E+00  0.00000000000E+00  0.22550460379E+03  0.22550460379E+03  0.00000000000E+00 0.  1.
          2   -1    0    0  501    0  0.00000000000E+00 -0.00000000000E+00 -0.59113081159E+02  0.59113081159E+02  0.00000000000E+00 0. -1.
         25    2    1    2    0    0  0.25719895672E+01 -0.37697613507E+02  0.11097625731E+03  0.17144216133E+03  0.12509580249E+03 0.  0.
          5    1    3    3  502    0  0.16297702938E+02  0.30836001096E+02 -0.54844724385E+01  0.35553142232E+02  0.41800000000E+01 0.  1.
         -5    1    3    3    0  502 -0.13725713370E+02 -0.68533614603E+02  0.11646072975E+03  0.13588901910E+03  0.41800000000E+01 0.  1.
        -11    1    1    2    0    0 -0.20060321889E+02 -0.11167006681E+02 -0.13705709430E+02  0.26738829882E+02  0.00000000000E+00 0. -1.
         11    1    1    2    0    0  0.17488332321E+02  0.48864620188E+02  0.69120974754E+02  0.86436693738E+02  0.00000000000E+00 0.  1.
</event>
<event>
 7    1  0.2899775E-009  0.1585172E+03  0.7561462E-02  0.1190381E+00
          1   -1    0    0  501    0  0.00000000000E+00  0.00000000000E+00  0.11012216832E+04  0.11012216832E+04  0.00000000000E+00 0. -1.
         -1   -1    0    0    0  501 -0.00000000000E+00 -0.00000000000E+00 -0.62152383596E+02  0.62152383596E+02  0.00000000000E+00 0.  1.
         25    2    1    2    0    0  0.69824402115E+02  0.10495872985E+03  0.98104894549E+03  0.99698978678E+03  0.12505926352E+03 0.  0.
          5    1    3    3  502    0  0.54718161627E+02 -0.13276945631E+02  0.38577660189E+03  0.38988641097E+03  0.41800000000E+01 0. -1.
         -5    1    3    3    0  502  0.15106240488E+02  0.11823567548E+03  0.59527234360E+03  0.60710337580E+03  0.41800000000E+01 0. -1.
        -11    1    1    2    0    0  0.97296224956E+01 -0.31690613033E+02 -0.14484390898E+02  0.36176761712E+02  0.00000000000E+00 0.  1.
         11    1    1    2    0    0 -0.79554024610E+02 -0.73268116819E+02  0.72504745014E+02  0.13020751831E+03  0.00000000000E+00 0. -1.
</event>
<event>
 7    1  0.2899775E-009  0.9734073E+02  0.7561462E-02  0.1285990E+00
          2   -1    0    0  501    0  0.00000000000E+00  0.00000000000E+00  0.90898626402E+02  0.90898626402E+02  0.00000000000E+00 0. -1.
         -2   -1    0    0    0  501 -0.00000000000E+00 -0.00000000000E+00 -0.19113665270E+03  0.19113665270E+03  0.00000000000E+00 0.  1.
         25    2    1    2    0    0  0.67742849240E+02  0.28601804289E+02 -0.48943963259E+02  0.15313363386E+03  0.12508893415E+03 0.  0.
          5    1    3    3  502    0  0.45714010235E+02  0.64265971981E+02  0.11133716623E+02  0.79757870660E+02  0.41800000000E+01 0.  1.
         -5    1    3    3    0  502  0.22028839006E+02 -0.35664167692E+02 -0.60077679882E+02  0.73375763199E+02  0.41800000000E+01 0.  1.
        -11    1    1    2    0    0 -0.27112692692E+02 -0.12808026514E+02  0.26310366431E+02  0.39892092323E+02  0.00000000000E+00 0. -1.
         11    1    1    2    0    0 -0.40630156548E+02 -0.15793777775E+02 -0.77604429475E+02  0.89009552923E+02  0.00000000000E+00 0.  1.
</event>
<event>
 7    1  0.2899775E-009  0.1417503E+03  0.7561462E-02  0.1210993E+00
         -1   -1    0    0    0  501 -0.00000000000E+00  0.00000000000E+00  0.86502413333E+02  0.86502413333E+02  0.00000000000E+00 0.  1.
          1   -1    0    0  501    0  0.00000000000E+00 -0.00000000000E+00 -0.31834065918E+03  0.31834065918E+03  0.00000000000E+00 0. -1.
         25    2    1    2    0    0  0.42959375611E+02  0.10804210710E+03 -0.67799944168E+02  0.18374655691E+03  0.12508940758E+03 0.  0.
          5    1    3    3  502    0  0.21216303679E+01  0.12331670418E+03 -0.65912567274E+02  0.13990514562E+03  0.41800000000E+01 0. -1.
         -5    1    3    3    0  502  0.40837745243E+02 -0.15274597085E+02 -0.18873768941E+01  0.43841411293E+02  0.41800000000E+01 0. -1.
        -11    1    1    2    0    0 -0.68513965978E+01 -0.19708444092E+02  0.95962301907E+01  0.22966323993E+02  0.00000000000E+00 0.  1.
         11    1    1    2    0    0 -0.36107979013E+02 -0.88333663007E+02 -0.17363453187E+03  0.19813019161E+03  0.00000000000E+00 0. -1.
</event>
<event>
 7    1  0.2899775E-009  0.9472474E+02  0.7561462E-02  0.1291797E+00
         -2   -1    0    0    0  501 -0.00000000000E+00  0.00000000000E+00  0.18334533537E+03  0.18334533537E+03  0.00000000000E+00 0.  1.
          2   -1    0    0  501    0  0.00000000000E+00 -0.00000000000E+00 -0.78479377808E+02  0.78479377808E+02  0.00000000000E+00 0. -1.
         25    2    1    2    0    0  0.23197212137E+02 -0.36815075054E+02  0.30058601269E+02  0.13581112692E+03  0.12509069623E+03 0.  0.
          5    1    3    3  502    0  0.45366135173E+02 -0.55298961929E+02  0.60410947154E+02  0.93717748303E+02  0.41800000000E+01 0.  1.
         -5    1    3    3    0  502 -0.22168923036E+02  0.18483886875E+02 -0.30352345885E+02  0.42093378616E+02  0.41800000000E+01 0.  1.
        -11    1    1    2    0    0  0.26700372767E+02  0.26628421230E+02  0.63490411020E+02  0.73844532733E+02  0.00000000000E+00 0.  1.
         11    1    1    2    0    0 -0.49897584904E+02  0.10186653824E+02  0.11316945272E+02  0.52169053525E+02  0.00000000000E+00 0. -1.
</event>
<event>
 7    1  0.2899775E-009  0.1115275E+03  0.7561462E-02  0.1257767E+00
          3   -1    0    0  501    0  0.00000000000E+00  0.00000000000E+00  0.33343100170E+03  0.33343100170E+03  0.00000000000E+00 0. -1.
         -3   -1    0    0    0  501 -0.00000000000E+00 -0.00000000000E+00 -0.38878829464E+02  0.38878829464E+02  0.00000000000E+00 0.  1.
         25    2    1    2    0    0 -0.23833411867E+02  0.21010633781E+02  0.14636035488E+03  0.19513171592E+03  0.12508219227E+03 0.  0.
          5    1    3    3  502    0 -0.70754767854E+02 -0.68673115345E+01  0.61192721602E+02  0.93890461277E+02  0.41800000000E+01 0.  1.
         -5    1    3    3    0  502  0.46921355987E+02  0.27877945315E+02  0.85167633283E+02  0.10124125464E+03  0.41800000000E+01 0.  1.
        -11    1    1    2    0    0 -0.35275669961E+02 -0.34476327274E+01  0.55176824795E+02  0.65580035507E+02  0.00000000000E+00 0. -1.
         11    1    1    2    0    0  0.59109081828E+02 -0.17563001053E+02  0.93014992556E+02  0.11159807974E+03  0.00000000000E+00 0.  1.
</event>
<event>
 7    1  0.2899775E-009  0.1486577E+03  0.7561462E-02  0.1202132E+00
          1   -1    0    0  501    0  0.00000000000E+00  0.00000000000E+00  0.35073208979E+03  0.35073208979E+03  0.00000000000E+00 0. -1.
         -1   -1    0    0    0  501 -0.00000000000E+00 -0.00000000000E+00 -0.65766519927E+02  0.65766519927E+02  0.00000000000E+00 0.  1.
         25    2    1    2    0    0 -0.15722300618E+02 -0.10304501369E+03  0.16483519310E+03  0.23169648750E+03  0.12508859202E+03 0.  0.
          5    1    3    3  502    0 -0.55949249168E+02 -0.10711946482E+03  0.11024326567E+03  0.16363357923E+03  0.41800000000E+01 0. -1.
         -5    1    3    3    0  502  0.40226948551E+02  0.40744511333E+01  0.54591927437E+02  0.68062908276E+02  0.41800000000E+01 0. -1.
        -11    1    1    2    0    0 -0.36114636477E+02  0.35953216885E+02  0.23107430058E+02  0.55954035566E+02  0.00000000000E+00 0.  1.
         11    1    1    2    0    0  0.51836937095E+02  0.67091796805E+02  0.97022946702E+02  0.12884808665E+03  0.00000000000E+00 0. -1.
</event>
<event>
 7    1  0.2899775E-009  0.1394287E+03  0.7561462E-02  0.1214100E+00
         -1   -1    0    0    0  501 -0.00000000000E+00  0.00000000000E+00  0.18737203203E+04  0.18737203203E+04  0.00000000000E+00 0.  1.
          1   -1    0    0  501    0  0.00000000000E+00 -0.00000000000E+00 -0.12224655724E+02  0.12224655724E+02  0.00000000000E+00 0. -1.
         25    2    1    2    0    0 -0.26787787533E+02  0.92319864858E+02  0.12007223477E+04  0.12110430415E+04  0.12510215404E+03 0.  0.
          5    1    3    3  502    0  0.18690682309E+01  0.11048343939E+03  0.65645376937E+03  0.66570196599E+03  0.41800000000E+01 0. -1.
         -5    1    3    3    0  502 -0.28656855764E+02 -0.18163574530E+02  0.54426857835E+03  0.54534107548E+03  0.41800000000E+01 0. -1.
        -11    1    1    2    0    0  0.61705832204E+02 -0.66116359347E+02  0.50911429285E+03  0.51708446687E+03  0.00000000000E+00 0.  1.
         11    1    1    2    0    0 -0.34918044671E+02 -0.26203505511E+02  0.15165902400E+03  0.15781746769E+03  0.00000000000E+00 0. -1.
</event>
<event>
 7    1  0.2899775E-009  0.1058970E+03  0.7561462E-02  0.1268362E+00
          1   -1    0    0  501    0  0.00000000000E+00  0.00000000000E+00  0.12612520827E+03  0.12612520827E+03  0.00000000000E+00 0. -1.
         -1   -1    0    0    0  501 -0.00000000000E+00 -0.00000000000E+00 -0.18052758128E+03  0.18052758128E+03  0.00000000000E+00 0.  1.
         25    2    1    2    0    0  0.53540427654E+02 -0.27630478209E+01  0.62185722250E+02  0.14962780816E+03  0.12508878885E+03 0.  0.
          5    1    3    3  502    0 -0.23296622352E+02  0.17072624715E+02 -0.19943485008E+02  0.35347165685E+02  0.41800000000E+01 0.  1.
         -5    1    3    3    0  502  0.76837050006E+02 -0.19835672536E+02  0.82129207258E+02  0.11428064247E+03  0.41800000000E+01 0.  1.
        -11    1    1    2    0    0 -0.41212850622E+02 -0.40726761765E+02 -0.80496482215E+02  0.99180904559E+02  0.00000000000E+00 0. -1.
         11    1    1    2    0    0 -0.12327577032E+02  0.43489809586E+02 -0.36091613048E+02  0.57844076842E+02  0.00000000000E+00 0.  1.
</event>
<event>
 7    1  0.2899775E-009  0.1331713E+03  0.7561462E-02  0.1222825E+00
         -2   -1    0    0    0  501 -0.00000000000E+00  0.00000000000E+00  0.14640250827E+03  0.14640250827E+03  0.00000000000E+00 0.  1.
          2   -1    0    0  501    0  0.00000000000E+00 -0.00000000000E+00 -0.18448855634E+03  0.18448855634E+03  0.00000000000E+00 0. -1.
         25    2    1    2    0    0 -0.53318675718E+02  0.98436623419E+02 -0.69105417085E+02  0.18154358296E+03  0.12509941580E+03 0.  0.
          5    1    3    3  502    0 -0.75748207632E+02  0.54230768424E+02 -0.88105695346E+02  0.12829206194E+03  0.41800000000E+01 0.  1.
         -5    1    3    3    0  502  0.22429531915E+02  0.44205854995E+02  0.19000278261E+02  0.53251521028E+02  0.41800000000E+01 0.  1.
        -11    1    1    2    0    0 -0.10405235713E+02 -0.17082636204E+02  0.40906929449E+02  0.45535285954E+02  0.00000000000E+00 0.  1.
         11    1    1    2    0    0  0.63723911430E+02 -0.81353987216E+02 -0.98875604306E+01  0.10381219570E+03  0.00000000000E+00 0. -1.
</event>
<event>
 7    1  0.2899775E-009  0.2082269E+03  0.7561462E-02  0.1142978E+00
          2   -1    0    0  501    0  0.00000000000E+00  0.00000000000E+00  0.17387396413E+04  0.17387396413E+04  0.00000000000E+00 0. -1.
         -2   -1    0    0    0  501 -0.00000000000E+00 -0.00000000000E+00 -0.26603079646E+02  0.26603079646E+02  0.00000000000E+00 0.  1.
         25    2    1    2    0    0 -0.73628868822E+02  0.16858884210E+03  0.95773248345E+03  0.98323049384E+03  0.12508911286E+03 0.  0.
          5    1    3    3  502    0 -0.37588711742E+02 -0.36629510469E+01  0.87844619821E+02  0.95710386544E+02  0.41800000000E+01 0.  1.
         -5    1    3    3    0  502 -0.36040157080E+02  0.17225179315E+03  0.86988786363E+03  0.88752010730E+03  0.41800000000E+01 0.  1.
        -11    1    1    2    0    0 -0.10281452070E+02 -0.79040977395E+02  0.37416330930E+03  0.38255897112E+03  0.00000000000E+00 0. -1.
         11    1    1    2    0    0  0.83910320892E+02 -0.89547864710E+02  0.38024076890E+03  0.39955325597E+03  0.00000000000E+00 0.  1.
</event>
<event>
 7    1  0.2899775E-009  0.1060103E+03  0.7561462E-02  0.1268142E+00
          1   -1    0    0  501    0  0.00000000000E+00  0.00000000000E+00  0.12313058951E+03  0.12313058951E+03  0.00000000000E+00 0. -1.
         -1   -1    0    0    0  501 -0.00000000000E+00 -0.00000000000E+00 -0.12889841448E+03  0.12889841448E+03  0.00000000000E+00 0.  1.
         25    2    1    2    0    0 -0.47449120455E+02 -0.38307605487E+02 -0.16700210415E+02  0.14016941156E+03  0.12509866201E+03 0.  0.
          5    1    3    3  502    0 -0.86401107848E+02 -0.47809715739E+02 -0.13048672414E+02  0.99692831278E+02  0.41800000000E+01 0. -1.
         -5    1    3    3    0  502  0.38951987393E+02  0.95021102526E+01 -0.36515380001E+01  0.40476580277E+02  0.41800000000E+01 0. -1.
        -11    1    1    2    0    0  0.38445949504E+02  0.54806441497E+01  0.47862166833E+02  0.61635343006E+02  0.00000000000E+00 0. -1.
         11    1    1    2    0    0  0.90031709509E+01  0.32826961337E+02 -0.36929781387E+02  0.50224249433E+02  0.00000000000E+00 0.  1.
</event>
<event>
 7    1  0.2899775E-009  0.1760990E+03  0.7561462E-02  0.1171633E+00
         -1   -1    0    0    0  501 -0.00000000000E+00  0.00000000000E+00  0.45298448515E+02  0.45298448515E+02  0.00000000000E+00 0. -1.
          1   -1    0    0  501    0  0.00000000000E+00 -0.00000000000E+00 -0.76427917913E+03  0.76427917913E+03  0.00000000000E+00 0.  1.
         25    2    1    2    0    0 -0.99523047630E+02  0.11367589941E+03 -0.37530420666E+03  0.42347121893E+03  0.12509028182E+03 0.  0.
          5    1    3    3  502    0 -0.12384590015E+03  0.10929064221E+03 -0.35366418518E+03  0.39035634968E+03  0.41800000000E+01 0. -1.
         -5    1    3    3    0  502  0.24322852519E+02  0.43852572014E+01 -0.21640021479E+02  0.33114869244E+02  0.41800000000E+01 0. -1.
        -11    1    1    2    0    0  0.66532479318E+02 -0.11020741168E+03 -0.19420044519E+03  0.23299368512E+03  0.00000000000E+00 0.  1.
         11    1    1    2    0    0  0.32990568312E+02 -0.34684877249E+01 -0.14947607876E+03  0.15311272359E+03  0.00000000000E+00 0. -1.
</event>
<event>
 7    1  0.2899775E-009  0.9367475E+02  0.7561462E-02  0.1294189E+00
          2   -1    0    0  501    0  0.00000000000E+00  0.00000000000E+00  0.17594321454E+03  0.17594321454E+03  0.00000000000E+00 0. -1.
         -2   -1    0    0    0  501 -0.00000000000E+00 -0.00000000000E+00 -0.74250629324E+02  0.74250629324E+02  0.00000000000E+00 0.  1.
         25    2    1    2    0    0 -0.85695122960E+01 -0.34513593436E+02  0.69672752248E+02  0.14751694406E+03  0.12506930761E+03 0.  0.
          5    1    3    3  502    0  0.37603289927E+02 -0.21667811897E+02  0.86240730495E+02  0.96635591176E+02  0.41800000000E+01 0.  1.
         -5    1    3    3    0  502 -0.46172802223E+02 -0.12845781540E+02 -0.16567978247E+02  0.50881352887E+02  0.41800000000E+01 0.  1.
        -11    1    1    2    0    0 -0.36976335780E+02 -0.23431444518E+01  0.22418156124E+02  0.43304889535E+02  0.00000000000E+00 0.  1.
         11    1    1    2    0    0  0.45545848076E+02  0.36856737888E+02  0.96016768436E+01  0.59372010265E+02  0.00000000000E+00 0. -1.
</event>
<event>
 7    1  0.2899775E-009  0.1148403E+03  0.7561462E-02  0.1251860E+00
         -1   -1    0    0    0  501 -0.00000000000E+00  0.00000000000E+00  0.57264231850E+02  0.57264231850E+02  0.00000000000E+00 0.  1.
          1   -1    0    0  501    0  0.00000000000E+00 -0.00000000000E+00 -0.26783832897E+03  0.26783832897E+03  0.00000000000E+00 0. -1.
         25    2    1    2    0    0 -0.33572646566E+02 -0.54702808055E+02 -0.10987604552E+03  0.17843787365E+03  0.12509120500E+03 0.  0.
          5    1    3    3  502    0  0.23349254913E+02 -0.67861682515E+02 -0.92878283683E+02  0.11744889799E+03  0.41800000000E+01 0.  1.
         -5    1    3    3    0  502 -0.56921901479E+02  0.13158874460E+02 -0.16997761834E+02  0.60988975663E+02  0.41800000000E+01 0.  1.
        -11    1    1    2    0    0  0.55420005934E+02  0.21436422315E+02 -0.85374152051E+02  0.10401751342E+03  0.00000000000E+00 0. -1.
         11    1    1    2    0    0 -0.21847359368E+02  0.33266385740E+02 -0.15323899555E+02  0.42647173753E+02  0.00000000000E+00 0.  1.
</event>
<event>
 7    1  0.2899775E-009  0.1887671E+03  0.7561462E-02  0.1159578E+00
          2   -1    0    0  501    0  0.00000000000E+00  0.00000000000E+00  0.22167695829E+03  0.22167695829E+03  0.00000000000E+00 0.  1.
         -2   -1    0    0    0  501 -0.00000000000E+00 -0.00000000000E+00 -0.21419926728E+03  0.21419926728E+03  0.00000000000E+00 0. -1.
         25    2    1    2    0    0 -0.50820459668E+02 -0.17488551322E+03 -0.46723403553E+02  0.22582823130E+03  0.12509057421E+03 0.  0.
          5    1    3    3  502    0 -0.12388357364E+02 -0.13593670628E+03  0.21528643463E+02  0.13825054937E+03  0.41800000000E+01 0. -1.
         -5    1    3    3    0  502 -0.38432102303E+02 -0.38948806946E+02 -0.68252047016E+02  0.87577681928E+02  0.41800000000E+01 0. -1.
        -11    1    1    2    0    0 -0.77219274508E+00  0.61683257735E+02  0.59259913685E+02  0.85540387750E+02  0.00000000000E+00 0.  1.
         11    1    1    2    0    0  0.51592652413E+02  0.11320225549E+03 -0.50588191176E+01  0.12450760652E+03  0.00000000000E+00 0. -1.
</event>
<event>
 7    1  0.2899775E-009  0.1138916E+03  0.7561462E-02  0.1253528E+00
         -1   -1    0    0    0  501 -0.00000000000E+00  0.00000000000E+00  0.70014946101E+03  0.70014946101E+03  0.00000000000E+00 0.  1.
          1   -1    0    0  501    0  0.00000000000E+00 -0.00000000000E+00 -0.20114497883E+02  0.20114497883E+02  0.00000000000E+00 0. -1.
         25    2    1    2    0    0 -0.12369364324E+02  0.44665072267E+02  0.39331659341E+03  0.41532326565E+03  0.12508997755E+03 0.  0.
          5    1    3    3  502    0  0.52164691363E+02  0.21318460852E+02  0.10858738860E+03  0.12241047815E+03  0.41800000000E+01 0. -1.
         -5    1    3    3    0  502 -0.64534055687E+02  0.23346611415E+02  0.28472920481E+03  0.29291278750E+03  0.41800000000E+01 0. -1.
        -11    1    1    2    0    0 -0.27287264437E+02  0.14802447630E+02  0.11049671937E+03  0.11477470213E+03  0.00000000000E+00 0.  1.
         11    1    1    2    0    0  0.39656628761E+02 -0.59467519897E+02  0.17622165035E+03  0.19016599112E+03  0.00000000000E+00 0. -1.
</event>
<event>
 7    1  0.2899775E-009  0.1221656E+03  0.7561462E-02  0.1239567E+00
         -1   -1    0    0    0  501 -0.00000000000E+00  0.00000000000E+00  0.26450028480E+03  0.26450028480E+03  0.00000000000E+00 0.  1.
          1   -1    0    0  501    0  0.00000000000E+00 -0.00000000000E+00 -0.86170593263E+02  0.86170593263E+02  0.00000000000E+00 0. -1.
         25    2    1    2    0    0  0.59385237642E+02  0.62627868337E+02  0.17082979272E+03  0.22864110275E+03  0.12508029198E+03 0.  0.
          5    1    3    3  502    0  0.31902845686E+02 -0.35453020664E+02  0.37563070507E+02  0.60853635084E+02  0.41800000000E+01 0. -1.
         -5    1    3    3    0  502  0.27482391957E+02  0.98080889001E+02  0.13326672222E+03  0.16778746766E+03  0.41800000000E+01 0. -1.
        -11    1    1    2    0    0 -0.18670908016E+02 -0.47565992536E+02  0.42344594922E+02  0.66364080429E+02  0.00000000000E+00 0.  1.
         11    1    1    2    0    0 -0.40714329627E+02 -0.15061875801E+02 -0.34844696112E+02  0.55665694882E+02  0.00000000000E+00 0. -1.
</event>
<event>
 7    1  0.2899775E-009  0.9050391E+02  0.7561462E-02  0.1301636E+00
         -4   -1    0    0    0  501 -0.00000000000E+00  0.00000000000E+00  0.49194415699E+02  0.49194415699E+02  0.00000000000E+00 0.  1.
          4   -1    0    0  501    0  0.00000000000E+00 -0.00000000000E+00 -0.26542335685E+03  0.26542335685E+03  0.00000000000E+00 0. -1.
         25    2    1    2    0    0 -0.36185407661E+02 -0.13178926390E+02 -0.10010712470E+03  0.16477971003E+03  0.12509136099E+03 0.  0.
          5    1    3    3  502    0  0.23622655038E+02 -0.29789322314E+02 -0.94937965979E+02  0.10235293518E+03  0.41800000000E+01 0. -1.
         -5    1    3    3    0  502 -0.59808062699E+02  0.16610395923E+02 -0.51691587187E+01  0.62426774852E+02  0.41800000000E+01 0. -1.
        -11    1    1    2    0    0 -0.21161515677E+02  0.91628579723E+01 -0.76804035251E+02  0.80191193674E+02  0.00000000000E+00 0. -1.
         11    1    1    2    0    0  0.57346923338E+02  0.40160684178E+01 -0.39317781207E+02  0.69646868852E+02  0.00000000000E+00 0.  1.
</event>
<event>
 7    1  0.2899775E-009  0.1045572E+03  0.7561462E-02  0.1270995E+00
         -1   -1    0    0    0  501 -0.00000000000E+00  0.00000000000E+00  0.55597437948E+02  0.55597437948E+02  0.00000000000E+00 0.  1.
          1   -1    0    0  501    0  0.00000000000E+00 -0.00000000000E+00 -0.22920211113E+03  0.22920211113E+03  0.00000000000E+00 0. -1.
         25    2    1    2    0    0  0.22657704648E+02  0.78978564269E+01 -0.79855054201E+02  0.15032979537E+03  0.12508585043E+03 0.  0.
          5    1    3    3  502    0  0.68740604784E+02  0.48013353457E+01 -0.77651856256E+02  0.10390190926E+03  0.41800000000E+01 0. -1.
         -5    1    3    3    0  502 -0.46082900136E+02  0.30965210812E+01 -0.22031979450E+01  0.46427886113E+02  0.41800000000E+01 0. -1.
        -11    1    1    2    0    0 -0.38695761231E+02  0.32312730813E+02 -0.65989802562E+02  0.83042931981E+02  0.00000000000E+00 0.  1.
         11    1    1    2    0    0  0.16038056583E+02 -0.40210587240E+02 -0.27759816417E+02  0.51426821724E+02  0.00000000000E+00 0. -1.
</event>
<event>
 7    1  0.2899775E-009  0.1123269E+03  0.7561462E-02  0.1256320E+00
          1   -1    0    0  501    0  0.00000000000E+00  0.00000000000E+00  0.82945254715E+03  0.82945254715E+03  0.00000000000E+00 0. -1.
         -1   -1    0    0    0  501 -0.00000000000E+00 -0.00000000000E+00 -0.30817366500E+02  0.30817366500E+02  0.00000000000E+00 0.  1.
         25    2    1    2    0    0  0.96069399785E+01  0.73068128732E+02  0.67213866124E+03  0.68764065012E+03  0.12509212218E+03 0.  0.
          5    1    3    3  502    0 -0.34533409271E+02  0.90008138052E+02  0.49059538133E+03  0.49999532184E+03  0.41800000000E+01 0.  1.
         -5    1    3    3    0  502  0.44140349250E+02 -0.16940009319E+02  0.18154327991E+03  0.18764532828E+03  0.41800000000E+01 0.  1.
        -11    1    1    2    0    0  0.12257689269E+02 -0.23074413962E+02  0.11359200199E+03  0.11655823626E+03  0.00000000000E+00 0. -1.
         11    1    1    2    0    0 -0.21864629248E+02 -0.49993714770E+02  0.12904517424E+02  0.56071027265E+02  0.00000000000E+00 0.  1.
</event>
<event>
 7    1  0.2899775E-009  0.9765107E+02  0.7561462E-02  0.1285314E+00
         -2   -1    0    0    0  501 -0.00000000000E+00  0.00000000000E+00  0.28755973039E+02  0.28755973039E+02  0.00000000000E+00 0.  1.
          2   -1    0    0  501    0  0.00000000000E+00 -0.00000000000E+00 -0.56303212216E+03  0.56303212216E+03  0.00000000000E+00 0. -1.
         25    2    1    2    0    0  0.64603861170E+02  0.51888067222E+01 -0.29641109244E+03  0.32819119038E+03  0.12509731864E+03 0.  0.
          5    1    3    3  502    0  0.55635830185E+02  0.49589225320E+02 -0.90485396301E+02  0.11730096424E+03  0.41800000000E+01 0.  1.
         -5    1    3    3    0  502  0.89680309846E+01 -0.44400418598E+02 -0.20592569614E+03  0.21089022614E+03  0.41800000000E+01 0.  1.
        -11    1    1    2    0    0 -0.19746594263E+02 -0.19826331061E+02 -0.82347557662E+01  0.29168863380E+02  0.00000000000E+00 0.  1.
         11    1    1    2    0    0 -0.44857266907E+02  0.14637524339E+02 -0.22963030091E+03  0.23442804143E+03  0.00000000000E+00 0. -1.
</event>
<event>
 7    1  0.2899775E-009  0.9977700E+02  0.7561462E-02  0.1280766E+00
         -2   -1    0    0    0  501 -0.00000000000E+00  0.00000000000E+00  0.34532333634E+02  0.34532333634E+02  0.00000000000E+00 0.  1.
          2   -1    0    0  501    0  0.00000000000E+00 -0.00000000000E+00 -0.46315456021E+03  0.46315456021E+03  0.00000000000E+00 0. -1.
         25    2    1    2    0    0  0.13007622903E+01 -0.63388445855E+02 -0.27497700836E+03  0.30867289277E+03  0.12508721980E+03 0.  0.
          5    1    3    3  502    0  0.31619407027E+02 -0.46038058912E+02 -0.26671831627E+03  0.27253517645E+03  0.41800000000E+01 0.  1.
         -5    1    3    3    0  502 -0.30318644736E+02 -0.17350386943E+02 -0.82586920832E+01  0.36137716317E+02  0.41800000000E+01 0.  1.
        -11    1    1    2    0    0  0.42064417857E+02  0.18503363671E+02 -0.49052395624E+02  0.67215528215E+02  0.00000000000E+00 0.  1.
         11    1    1    2    0    0 -0.43365180148E+02  0.44885082184E+02 -0.10459282259E+03  0.12179847286E+03  0.00000000000E+00 0. -1.
</event>
<event>
 7    1  0.2899775E-009  0.3811597E+03  0.7561462E-02  0.1050506E+00
         -1   -1    0    0    0  501 -0.00000000000E+00  0.00000000000E+00  0.12734313925E+03  0.12734313925E+03  0.00000000000E+00 0.  1.
          1   -1    0    0  501    0  0.00000000000E+00 -0.00000000000E+00 -0.12567162317E+04  0.12567162317E+04  0.00000000000E+00 0. -1.
         25    2    1    2    0    0 -0.35559078396E+03 -0.13041721973E+03 -0.68725235441E+03  0.79461723908E+03  0.12508917285E+03 0.  0.
          5    1    3    3  502    0 -0.22435333540E+02 -0.70344271042E+01 -0.14084184436E+03  0.14285210842E+03  0.41800000000E+01 0.  1.
         -5    1    3    3    0  502 -0.33315545042E+03 -0.12338279262E+03 -0.54641051005E+03  0.65176513066E+03  0.41800000000E+01 0.  1.
        -11    1    1    2    0    0  0.18160505552E+02  0.22422118318E+02 -0.69615013610E+02  0.75357849437E+02  0.00000000000E+00 0. -1.
         11    1    1    2    0    0  0.33743027840E+03  0.10799510141E+03 -0.37250572442E+03  0.51408428243E+03  0.00000000000E+00 0.  1.
</event>
<event>
 7    1  0.2899775E-009  0.1274677E+03  0.7561462E-02  0.1231262E+00
         -1   -1    0    0    0  501 -0.00000000000E+00  0.00000000000E+00  0.29038562367E+03  0.29038562367E+03  0.00000000000E+00 0.  1.
          1   -1    0    0  501    0  0.00000000000E+00 -0.00000000000E+00 -0.64331481038E+02  0.64331481038E+02  0.00000000000E+00 0. -1.
         25    2    1    2    0    0 -0.80920264620E+02  0.17029797359E+02  0.12583947637E+03  0.19576191899E+03  0.12509617056E+03 0.  0.
          5    1    3    3  502    0  0.29163725201E+02  0.18792418774E+02  0.53698033392E+02  0.64067379072E+02  0.41800000000E+01 0. -1.
         -5    1    3    3    0  502 -0.11008398982E+03 -0.17626214152E+01  0.72141442981E+02  0.13169453992E+03  0.41800000000E+01 0. -1.
        -11    1    1    2    0    0 -0.13547891506E+02 -0.55858946112E+01  0.48471544274E+02  0.50638307507E+02  0.00000000000E+00 0.  1.
         11    1    1    2    0    0  0.94468156126E+02 -0.11443902748E+02  0.51743121984E+02  0.10831687821E+03  0.00000000000E+00 0. -1.
</event>
<event>
 7    1  0.2899775E-009  0.1416760E+03  0.7561462E-02  0.1211091E+00
          2   -1    0    0  501    0  0.00000000000E+00  0.00000000000E+00  0.23287164107E+03  0.23287164107E+03  0.00000000000E+00 0. -1.
         -2   -1    0    0    0  501 -0.00000000000E+00 -0.00000000000E+00 -0.10429874474E+03  0.10429874474E+03  0.00000000000E+00 0.  1.
         25    2    1    2    0    0  0.97803218626E+02  0.95360735589E+01  0.12219341369E+02  0.15953014999E+03  0.12507657726E+03 0.  0.
          5    1    3    3  502    0  0.70098955714E+02 -0.54050212536E+02  0.15528329025E+02  0.89966051762E+02  0.41800000000E+01 0. -1.
         -5    1    3    3    0  502  0.27704262912E+02  0.63586286095E+02 -0.33089876559E+01  0.69564098227E+02  0.41800000000E+01 0. -1.
        -11    1    1    2    0    0 -0.40698671844E+02 -0.42883990143E+02  0.23445627780E+02  0.63601226108E+02  0.00000000000E+00 0.  1.
         11    1    1    2    0    0 -0.57104546782E+02  0.33347916584E+02  0.92907927182E+02  0.11403900972E+03  0.00000000000E+00 0. -1.
</event>
<event>
 7    1  0.2899775E-009  0.1132808E+03  0.7561462E-02  0.1254612E+00
         -2   -1    0    0    0  501 -0.00000000000E+00  0.00000000000E+00  0.35752449243E+02  0.35752449243E+02  0.00000000000E+00 0.  1.
          2   -1    0    0  501    0  0.00000000000E+00 -0.00000000000E+00 -0.46964164114E+03  0.46964164114E+03  0.00000000000E+00 0. -1.
         25    2    1    2    0    0 -0.43986772724E+02 -0.46386963385E+02 -0.30508252912E+03  0.33587148699E+03  0.12509084561E+03 0.  0.
          5    1    3    3  502    0  0.30983179139E+02 -0.29387380575E+02 -0.36053569560E+02  0.56043802553E+02  0.41800000000E+01 0. -1.
         -5    1    3    3    0  502 -0.74969951864E+02 -0.16999582809E+02 -0.26902895956E+03  0.27982768444E+03  0.41800000000E+01 0. -1.
        -11    1    1    2    0    0 -0.21977383912E+02  0.32538514983E+02 -0.69108121704E+02  0.79483915646E+02  0.00000000000E+00 0.  1.
         11    1    1    2    0    0  0.65964156637E+02  0.13848448402E+02 -0.59698541072E+02  0.90038687741E+02  0.00000000000E+00 0. -1.
</event>
<event>
 7    1  0.2899775E-009  0.1092609E+03  0.7561462E-02  0.1261945E+00
         -1   -1    0    0    0  501 -0.00000000000E+00  0.00000000000E+00  0.45884431795E+03  0.45884431795E+03  0.00000000000E+00 0.  1.
          1   -1    0    0  501    0  0.00000000000E+00 -0.00000000000E+00 -0.41777137994E+02  0.41777137994E+02  0.00000000000E+00 0. -1.
         25    2    1    2    0    0 -0.81960338891E+02 -0.11765890600E+02  0.18730334768E+03  0.23997156179E+03  0.12509145887E+03 0.  0.
          5    1    3    3  502    0 -0.76411239654E+02  0.60746733482E+01  0.31469694520E+02  0.82966217673E+02  0.41800000000E+01 0.  1.
         -5    1    3    3    0  502 -0.55490992365E+01 -0.17840563948E+02  0.15583365316E+03  0.15700534412E+03  0.41800000000E+01 0.  1.
        -11    1    1    2    0    0  0.20639052158E+02  0.47391888873E+02  0.10815469244E+03  0.11987242844E+03  0.00000000000E+00 0.  1.
         11    1    1    2    0    0  0.61321286733E+02 -0.35625998272E+02  0.12160913984E+03  0.14077746571E+03  0.00000000000E+00 0. -1.
</event>
<event>
 7    1  0.2899775E-009  0.1125866E+03  0.7561462E-02  0.1255853E+00
          2   -1    0    0  501    0  0.00000000000E+00  0.00000000000E+00  0.85445973631E+02  0.85445973631E+02  0.00000000000E+00 0. -1.
         -2   -1    0    0    0  501 -0.00000000000E+00 -0.00000000000E+00 -0.16004347391E+03  0.16004347391E+03  0.00000000000E+00 0.  1.
         25    2    1    2    0    0 -0.41064315404E+02 -0.56948213632E+01 -0.45220342942E+02  0.13932499540E+03  0.12509143031E+03 0.  0.
          5    1    3    3  502    0  0.28337186151E+02  0.38150218933E+02 -0.54655962456E+01  0.48018542938E+02  0.41800000000E+01 0.  1.
         -5    1    3    3    0  502 -0.69401501555E+02 -0.43845040296E+02 -0.39754746696E+02  0.91306452464E+02  0.41800000000E+01 0.  1.
        -11    1    1    2    0    0  0.10745972265E+02  0.44639414256E+02 -0.33202444877E+02  0.56661764628E+02  0.00000000000E+00 0.  1.
         11    1    1    2    0    0  0.30318343139E+02 -0.38944592892E+02  0.38252875373E+01  0.49502687513E+02  0.00000000000E+00 0. -1.
</event>
<event>
 7    1  0.2899775E-009  0.1076350E+03  0.7561462E-02  0.1265013E+00
         -2   -1    0    0    0  501 -0.00000000000E+00  0.00000000000E+00  0.13773617196E+02  0.13773617196E+02  0.00000000000E+00 0.  1.
          2   -1    0    0  501    0  0.00000000000E+00 -0.00000000000E+00 -0.12878112743E+04  0.12878112743E+04  0.00000000000E+00 0. -1.
         25    2    1    2    0    0 -0.10947008251E+02 -0.74951132454E+02 -0.71132109765E+03  0.72619765309E+03  0.12509123933E+03 0.  0.
          5    1    3    3  502    0 -0.29411389812E+02 -0.12850351860E+02 -0.56726816609E+03  0.56819081835E+03  0.41800000000E+01 0.  1.
         -5    1    3    3    0  502  0.18464381562E+02 -0.62100780594E+02 -0.14405293155E+03  0.15800683474E+03  0.41800000000E+01 0.  1.
        -11    1    1    2    0    0 -0.20583449126E+02 -0.13137670125E+02 -0.78348276918E+02  0.82065396180E+02  0.00000000000E+00 0.  1.
         11    1    1    2    0    0  0.31530457377E+02  0.88088802579E+02 -0.48436828250E+03  0.49332184218E+03  0.00000000000E+00 0. -1.
</event>
<event>
 7    1  0.2899775E-009  0.1202189E+03  0.7561462E-02  0.1242736E+00
          1   -1    0    0  501    0  0.00000000000E+00  0.00000000000E+00  0.25011436642E+03  0.25011436642E+03  0.00000000000E+00 0. -1.
         -1   -1    0    0    0  501 -0.00000000000E+00 -0.00000000000E+00 -0.15103232547E+03  0.15103232547E+03  0.00000000000E+00 0.  1.
         25    2    1    2    0    0  0.38869605484E+01  0.60518681233E+02  0.19689874569E+03  0.24102891567E+03  0.12509277714E+03 0.  0.
          5    1    3    3  502    0  0.55505774410E+02  0.29671849138E+02  0.15576736378E+03  0.16805431753E+03  0.41800000000E+01 0. -1.
         -5    1    3    3    0  502 -0.51618813862E+02  0.30846832095E+02  0.41131381914E+02  0.72974598135E+02  0.41800000000E+01 0. -1.
        -11    1    1    2    0    0  0.14196553004E+02 -0.85261261340E+02 -0.41229753172E+02  0.95764906668E+02  0.00000000000E+00 0. -1.
         11    1    1    2    0    0 -0.18083513553E+02  0.24742580107E+02 -0.56586951569E+02  0.64352869561E+02  0.00000000000E+00 0.  1.
</event>
<event>
 7    1  0.2899775E-009  0.1089335E+03  0.7561462E-02  0.1262558E+00
         -2   -1    0    0    0  501 -0.00000000000E+00  0.00000000000E+00  0.25004172669E+02  0.25004172669E+02  0.00000000000E+00 0.  1.
          2   -1    0    0  501    0  0.00000000000E+00 -0.00000000000E+00 -0.77578342878E+03  0.77578342878E+03  0.00000000000E+00 0. -1.
         25    2    1    2    0    0  0.73343725082E+02 -0.10532272909E+02 -0.27761968677E+03  0.31338504499E+03  0.12508902895E+03 0.  0.
          5    1    3    3  502    0  0.67622970588E+02  0.23617112825E+02 -0.26766597354E+03  0.27711582409E+03  0.41800000000E+01 0. -1.
         -5    1    3    3    0  502  0.57207544937E+01 -0.34149385734E+02 -0.99537132245E+01  0.36269220904E+02  0.41800000000E+01 0. -1.
        -11    1    1    2    0    0 -0.55166495799E+02 -0.32848024203E+02 -0.19510388349E+03  0.20539683616E+03  0.00000000000E+00 0.  1.
         11    1    1    2    0    0 -0.18177229283E+02  0.43380297112E+02 -0.27805568585E+03  0.28200572029E+03  0.00000000000E+00 0. -1.
</event>
<event>
 7    1  0.2899775E-009  0.9650727E+02  0.7561462E-02  0.1287817E+00
         -1   -1    0    0    0  501 -0.00000000000E+00  0.00000000000E+00  0.12078264124E+02  0.12078264124E+02  0.00000000000E+00 0.  1.
          1   -1    0    0  501    0  0.00000000000E+00 -0.00000000000E+00 -0.20827459815E+04  0.20827459815E+04  0.00000000000E+00 0. -1.
         25    2    1    2    0    0 -0.10910769178E+02  0.72700197279E+02 -0.17123427929E+04  0.17184788334E+04  0.12508915616E+03 0.  0.
          5    1    3    3  502    0  0.10643539790E+02  0.53414981329E+02 -0.16331987974E+04  0.16341120615E+04  0.41800000000E+01 0.  1.
         -5    1    3    3    0  502 -0.21554308968E+02  0.19285215950E+02 -0.79143995452E+02  0.84366771927E+02  0.41800000000E+01 0.  1.
        -11    1    1    2    0    0  0.15618784768E+02  0.14813324289E+02 -0.32827691611E+02  0.39256061323E+02  0.00000000000E+00 0.  1.
         11    1    1    2    0    0 -0.47080155903E+01 -0.87513521568E+02 -0.32549723292E+03  0.33708935092E+03  0.00000000000E+00 0. -1.
</event>
<event>
 7    1  0.2899775E-009  0.1217654E+03  0.7561462E-02  0.1240213E+00
         -1   -1    0    0    0  501 -0.00000000000E+00  0.00000000000E+00  0.43502312529E+03  0.43502312529E+03  0.00000000000E+00 0.  1.
          1   -1    0    0  501    0  0.00000000000E+00 -0.00000000000E+00 -0.39696395941E+02  0.39696395941E+02  0.00000000000E+00 0. -1.
         25    2    1    2    0    0  0.66119614684E+02 -0.15471190413E+02  0.26796789012E+03  0.30342171379E+03  0.12508710998E+03 0.  0.
          5    1    3    3  502    0  0.46368523339E+02 -0.62548267294E+02  0.21936085731E+03  0.23280675209E+03  0.41800000000E+01 0.  1.
         -5    1    3    3    0  502  0.19751091345E+02  0.47077076882E+02  0.48607032814E+02  0.70614961701E+02  0.41800000000E+01 0.  1.
        -11    1    1    2    0    0  0.13761405892E+02  0.30125891091E+02  0.41809916533E+02  0.53338679461E+02  0.00000000000E+00 0.  1.
         11    1    1    2    0    0 -0.79881020575E+02 -0.14654700679E+02  0.85548922692E+02  0.11795912798E+03  0.00000000000E+00 0. -1.
</event>
<event>
 7    1  0.2899775E-009  0.1307721E+03  0.7561462E-02  0.1226315E+00
         -1   -1    0    0    0  501 -0.00000000000E+00  0.00000000000E+00  0.33285408902E+03  0.33285408902E+03  0.00000000000E+00 0.  1.
          1   -1    0    0  501    0  0.00000000000E+00 -0.00000000000E+00 -0.75407124256E+02  0.75407124256E+02  0.00000000000E+00 0. -1.
         25    2    1    2    0    0  0.10670918402E+03 -0.23595705868E+02  0.94684809405E+02  0.19119834076E+03  0.12509190657E+03 0.  0.
          5    1    3    3  502    0  0.90609834623E+02 -0.38817304852E+02  0.12127262795E+03  0.15633760896E+03  0.41800000000E+01 0. -1.
         -5    1    3    3    0  502  0.16099349399E+02  0.15221598984E+02 -0.26587818544E+02  0.34860731800E+02  0.41800000000E+01 0. -1.
        -11    1    1    2    0    0  0.10243201297E+02  0.20986424392E+02  0.12050929897E+02  0.26278852581E+02  0.00000000000E+00 0. -1.
         11    1    1    2    0    0 -0.11695238532E+03  0.26092814758E+01  0.15071122546E+03  0.19078401993E+03  0.00000000000E+00 0.  1.
</event>
<event>
 7    1  0.2899775E-009  0.1077058E+03  0.7561462E-02  0.1264878E+00
          2   -1    0    0  501    0  0.00000000000E+00  0.00000000000E+00  0.52744714048E+03  0.52744714048E+03  0.00000000000E+00 0.  1.
         -2   -1    0    0    0  501 -0.00000000000E+00 -0.00000000000E+00 -0.37878734892E+02  0.37878734892E+02  0.00000000000E+00 0. -1.
         25    2    1    2    0    0 -0.68773847978E+02  0.13621462053E+02  0.15373399357E+03  0.21023040637E+03  0.12508915457E+03 0.  0.
          5    1    3    3  502    0  0.25476008122E+02 -0.23113782308E+02  0.72757725600E+02  0.80588044751E+02  0.41800000000E+01 0. -1.
         -5    1    3    3    0  502 -0.94249856100E+02  0.36735244361E+02  0.80976267967E+02  0.12964236162E+03  0.41800000000E+01 0. -1.
        -11    1    1    2    0    0  0.46095991821E+02 -0.26768177042E+02  0.32013136037E+03  0.32453884769E+03  0.00000000000E+00 0.  1.
         11    1    1    2    0    0  0.22677856158E+02  0.13146714990E+02  0.15703051653E+02  0.30556621314E+02  0.00000000000E+00 0. -1.
</event>
<event>
 7    1  0.2899775E-009  0.6725023E+02  0.7561462E-02  0.1369702E+00
          1   -1    0    0  501    0  0.00000000000E+00  0.00000000000E+00  0.57079872356E+02  0.57079872356E+02  0.00000000000E+00 0. -1.
         -1   -1    0    0    0  501 -0.00000000000E+00 -0.00000000000E+00 -0.27780493984E+03  0.27780493984E+03  0.00000000000E+00 0.  1.
         25    2    1    2    0    0 -0.60372817395E+01 -0.62495463382E+02 -0.15368005875E+03  0.20786219775E+03  0.12508797336E+03 0.  0.
          5    1    3    3  502    0 -0.14675522083E+02 -0.59773658083E+02 -0.17433314896E+03  0.18492641881E+03  0.41800000000E+01 0. -1.
         -5    1    3    3    0  502  0.86382403432E+01 -0.27218052986E+01  0.20653090206E+02  0.22935778935E+02  0.41800000000E+01 0. -1.
        -11    1    1    2    0    0  0.38236523425E+01  0.49907717664E+02  0.81813968821E+01  0.50718200427E+02  0.00000000000E+00 0. -1.
         11    1    1    2    0    0  0.22136293971E+01  0.12587745718E+02 -0.75226405621E+02  0.76304414027E+02  0.00000000000E+00 0.  1.
</event>
<event>
 7    1  0.2899775E-009  0.1510132E+03  0.7561462E-02  0.1199234E+00
         -2   -1    0    0    0  501 -0.00000000000E+00  0.00000000000E+00  0.39790805321E+02  0.39790805321E+02  0.00000000000E+00 0.  1.
          2   -1    0    0  501    0  0.00000000000E+00 -0.00000000000E+00 -0.99746788474E+03  0.99746788474E+03  0.00000000000E+00 0. -1.
         25    2    1    2    0    0 -0.13246959860E+03  0.11900730714E+02 -0.76521374228E+03  0.78669549591E+03  0.12509160625E+03 0.  0.
          5    1    3    3  502    0 -0.12319497345E+03 -0.12296099408E+02 -0.74000637217E+03  0.75030333785E+03  0.41800000000E+01 0.  1.
         -5    1    3    3    0  502 -0.92746251536E+01  0.24196830122E+02 -0.25207370115E+02  0.36392158054E+02  0.41800000000E+01 0.  1.
        -11    1    1    2    0    0  0.98428572880E+02 -0.41471977854E+02 -0.94063530201E+02  0.14232377391E+03  0.00000000000E+00 0.  1.
         11    1    1    2    0    0  0.34041025724E+02  0.29571247140E+02 -0.98399806933E+02  0.10823942024E+03  0.00000000000E+00 0. -1.
</event>
<event>
 7    1  0.2899775E-009  0.2669755E+03  0.7561462E-02  0.1103023E+00
          1   -1    0    0  501    0  0.00000000000E+00  0.00000000000E+00  0.21157640596E+04  0.21157640596E+04  0.00000000000E+00 0. -1.
         -1   -1    0    0    0  501 -0.00000000000E+00 -0.00000000000E+00 -0.38431546892E+02  0.38431546892E+02  0.00000000000E+00 0.  1.
         25    2    1    2    0    0  0.18955415959E+03  0.18084400265E+03  0.11662999870E+04  0.12018898691E+04  0.12509302603E+03 0.  0.
          5    1    3    3  502    0  0.12696564037E+03  0.15735431256E+03  0.10341015208E+04  0.10536906953E+04  0.41800000000E+01 0.  1.
         -5    1    3    3    0  502  0.62588519215E+02  0.23489690086E+02  0.13219846613E+03  0.14819917384E+03  0.41800000000E+01 0.  1.
        -11    1    1    2    0    0 -0.11463191652E+03 -0.83115604170E+02  0.34296048766E+03  0.37103985775E+03  0.00000000000E+00 0.  1.
         11    1    1    2    0    0 -0.74922243072E+02 -0.97728398478E+02  0.56807203803E+03  0.58126587958E+03  0.00000000000E+00 0. -1.
</event>
<event>
 7    1  0.2899775E-009  0.1570622E+03  0.7561462E-02  0.1192054E+00
         -2   -1    0    0    0  501 -0.00000000000E+00  0.00000000000E+00  0.52996540822E+02  0.52996540822E+02  0.00000000000E+00 0.  1.
          2   -1    0    0  501    0  0.00000000000E+00 -0.00000000000E+00 -0.61246222849E+03  0.61246222849E+03  0.00000000000E+00 0. -1.
         25    2    1    2    0    0 -0.13199534931E+03 -0.36343193647E+02 -0.37443753335E+03  0.41784459469E+03  0.12508812480E+03 0.  0.
          5    1    3    3  502    0 -0.45759011453E+02  0.40534962050E+02 -0.74883673073E+02  0.96757465709E+02  0.41800000000E+01 0. -1.
         -5    1    3    3    0  502 -0.86236337855E+02 -0.76878155698E+02 -0.29955386028E+03  0.32108712898E+03  0.41800000000E+01 0. -1.
        -11    1    1    2    0    0  0.19753312784E+02  0.90816811106E+01  0.75821849212E+01  0.23025199802E+02  0.00000000000E+00 0.  1.
         11    1    1    2    0    0  0.11224203652E+03  0.27261512537E+02 -0.19261033924E+03  0.22458897482E+03  0.00000000000E+00 0. -1.
</event>
<event>
 7    1  0.2899775E-009  0.2290213E+03  0.7561462E-02  0.1127331E+00
         -2   -1    0    0    0  501 -0.00000000000E+00  0.00000000000E+00  0.35681560590E+02  0.35681560590E+02  0.00000000000E+00 0.  1.
          2   -1    0    0  501    0  0.00000000000E+00 -0.00000000000E+00 -0.18139569657E+04  0.18139569657E+04  0.00000000000E+00 0. -1.
         25    2    1    2    0    0  0.20911759601E+03 -0.69291880066E+02 -0.11547835463E+04  0.11822455334E+04  0.12509168164E+03 0.  0.
          5    1    3    3  502    0  0.83977347186E+02 -0.19310393633E+02 -0.76409889961E+03  0.76895363119E+03  0.41800000000E+01 0. -1.
         -5    1    3    3    0  502  0.12514024883E+03 -0.49981486433E+02 -0.39068464670E+03  0.41329190220E+03  0.41800000000E+01 0. -1.
        -11    1    1    2    0    0 -0.16853160130E+03  0.90359387670E+02 -0.47601258360E+03  0.51298703621E+03  0.00000000000E+00 0.  1.
         11    1    1    2    0    0 -0.40585994718E+02 -0.21067507604E+02 -0.14747927521E+03  0.15440595669E+03  0.00000000000E+00 0. -1.
</event>
<event>
 7    1  0.2899775E-009  0.1095712E+03  0.7561462E-02  0.1261366E+00
          1   -1    0    0  501    0  0.00000000000E+00  0.00000000000E+00  0.12630463083E+04  0.12630463083E+04  0.00000000000E+00 0. -1.
         -1   -1    0    0    0  501 -0.00000000000E+00 -0.00000000000E+00 -0.28040131619E+02  0.28040131619E+02  0.00000000000E+00 0.  1.
         25    2    1    2    0    0 -0.43792918879E+02 -0.57551855456E+02  0.11167944162E+04  0.11261027347E+04  0.12509022915E+03 0.  0.
          5    1    3    3  502    0 -0.42561805547E+02 -0.95877935225E+02  0.87015943293E+03  0.87646962119E+03  0.41800000000E+01 0. -1.
         -5    1    3    3    0  502 -0.12311133322E+01  0.38326079769E+02  0.24663498322E+03  0.24963311355E+03  0.41800000000E+01 0. -1.
        -11    1    1    2    0    0  0.26452800940E+02  0.16900749265E+02 -0.70339237509E+01  0.32169272398E+02  0.00000000000E+00 0.  1.
         11    1    1    2    0    0  0.17340117940E+02  0.40651106191E+02  0.12524568428E+03  0.13281443279E+03  0.00000000000E+00 0. -1.
</event>
<event>
 7    1  0.2899775E-009  0.1024067E+03  0.7561462E-02  0.1275315E+00
         -3   -1    0    0    0  501 -0.00000000000E+00  0.00000000000E+00  0.99403907488E+02  0.99403907488E+02  0.00000000000E+00 0.  1.
          3   -1    0    0  501    0  0.00000000000E+00 -0.00000000000E+00 -0.19784692792E+03  0.19784692792E+03  0.00000000000E+00 0. -1.
         25    2    1    2    0    0 -0.61476082552E+02  0.48895269600E+01 -0.12145580587E+03  0.18493684913E+03  0.12508760604E+03 0.  0.
          5    1    3    3  502    0 -0.31744901450E+02 -0.58231807252E+02 -0.78679788904E+02  0.10298865824E+03  0.41800000000E+01 0.  1.
         -5    1    3    3    0  502 -0.29731181102E+02  0.63121334212E+02 -0.42776016963E+02  0.81948190887E+02  0.41800000000E+01 0.  1.
        -11    1    1    2    0    0  0.22794450592E+02 -0.16425808761E+02 -0.32956513273E+02  0.43307342777E+02  0.00000000000E+00 0. -1.
         11    1    1    2    0    0  0.38681631960E+02  0.11536281801E+02  0.55969298713E+02  0.69006643501E+02  0.00000000000E+00 0.  1.
</event>
<event>
 7    1  0.2899775E-009  0.9787031E+02  0.7561462E-02  0.1284839E+00
          1   -1    0    0  501    0  0.00000000000E+00  0.00000000000E+00  0.59488360474E+03  0.59488360474E+03  0.00000000000E+00 0. -1.
         -1   -1    0    0    0  501 -0.00000000000E+00 -0.00000000000E+00 -0.25907202151E+02  0.25907202151E+02  0.00000000000E+00 0.  1.
         25    2    1    2    0    0  0.47752371134E+02  0.20307051963E+02  0.24009569764E+03  0.27566646706E+03  0.12511351537E+03 0.  0.
          5    1    3    3  502    0  0.29243998263E+02 -0.44596400056E+02  0.47477323773E+02  0.71523555595E+02  0.41800000000E+01 0.  1.
         -5    1    3    3    0  502  0.18508372870E+02  0.64903452018E+02  0.19261837387E+03  0.20414291146E+03  0.41800000000E+01 0.  1.
        -11    1    1    2    0    0 -0.59764828768E+02 -0.16046001740E+02  0.32630503377E+03  0.33212088762E+03  0.00000000000E+00 0. -1.
         11    1    1    2    0    0  0.12012457634E+02 -0.42610502222E+01  0.25756711811E+01  0.13003452213E+02  0.00000000000E+00 0.  1.
</event>
<event>
 7    1  0.2899775E-009  0.1802426E+03  0.7561462E-02  0.1167568E+00
         -2   -1    0    0    0  501 -0.00000000000E+00  0.00000000000E+00  0.56317971159E+02  0.56317971159E+02  0.00000000000E+00 0.  1.
          2   -1    0    0  501    0  0.00000000000E+00 -0.00000000000E+00 -0.58625784358E+03  0.58625784358E+03  0.00000000000E+00 0. -1.
         25    2    1    2    0    0  0.11935331675E+03 -0.80096051714E+02 -0.31402242743E+03  0.36731181148E+03  0.12508912904E+03 0.  0.
          5    1    3    3  502    0  0.31869436090E+01  0.29946233999E+02 -0.53995006869E+02  0.61966658028E+02  0.41800000000E+01 0. -1.
         -5    1    3    3    0  502  0.11616637314E+03 -0.11004228571E+03 -0.26002742056E+03  0.30534515345E+03  0.41800000000E+01 0. -1.
        -11    1    1    2    0    0  0.83035222290E+01  0.32869062347E+02 -0.53708598502E+02  0.63513284390E+02  0.00000000000E+00 0.  1.
         11    1    1    2    0    0 -0.12765683898E+03  0.47226989367E+02 -0.16220884648E+03  0.21175071886E+03  0.00000000000E+00 0. -1.
</event>
<event>
 7    1  0.2899775E-009  0.1818075E+03  0.7561462E-02  0.1166065E+00
          1   -1    0    0  501    0  0.00000000000E+00  0.00000000000E+00  0.79003253228E+03  0.79003253228E+03  0.00000000000E+00 0. -1.
         -1   -1    0    0    0  501 -0.00000000000E+00 -0.00000000000E+00 -0.62390733380E+02  0.62390733380E+02  0.00000000000E+00 0.  1.
         25    2    1    2    0    0 -0.13115017804E+03  0.82957984633E+02  0.60649754228E+03  0.63841152602E+03  0.12509041267E+03 0.  0.
          5    1    3    3  502    0  0.44307145419E+01 -0.24236519850E+02  0.54145389714E+02  0.59634182757E+02  0.41800000000E+01 0.  1.
         -5    1    3    3    0  502 -0.13558089259E+03  0.10719450448E+03  0.55235215257E+03  0.57877734326E+03  0.41800000000E+01 0.  1.
        -11    1    1    2    0    0  0.88211335402E+02 -0.21550168878E+02  0.10221957349E+03  0.13672779775E+03  0.00000000000E+00 0. -1.
         11    1    1    2    0    0  0.42938842642E+02 -0.61407815756E+02  0.18924683125E+02  0.77283941894E+02  0.00000000000E+00 0.  1.
</event>
<event>
 7    1  0.2899775E-009  0.8373948E+02  0.7561462E-02  0.1318762E+00
         -4   -1    0    0    0  501 -0.00000000000E+00  0.00000000000E+00  0.39360310661E+02  0.39360310661E+02  0.00000000000E+00 0.  1.
          4   -1    0    0  501    0  0.00000000000E+00 -0.00000000000E+00 -0.57640032969E+03  0.57640032969E+03  0.00000000000E+00 0. -1.
         25    2    1    2    0    0  0.56717532352E+02  0.31218425066E+02 -0.46064509792E+03  0.48169651531E+03  0.12508460372E+03 0.  0.
          5    1    3    3  502    0  0.27667545767E+02 -0.26149141400E+02 -0.37249722793E+02  0.53425508260E+02  0.41800000000E+01 0.  1.
         -5    1    3    3    0  502  0.29049986586E+02  0.57367566466E+02 -0.42339537513E+03  0.42827100705E+03  0.41800000000E+01 0.  1.
        -11    1    1    2    0    0 -0.35662847131E+02 -0.19562090334E+02  0.12034315243E+02  0.42418613687E+02  0.00000000000E+00 0.  1.
         11    1    1    2    0    0 -0.21054685221E+02 -0.11656334732E+02 -0.88429236348E+02  0.91645511348E+02  0.00000000000E+00 0. -1.
</event>
<event>
 7    1  0.2899775E-009  0.2340880E+03  0.7561462E-02  0.1123795E+00
          2   -1    0    0  501    0  0.00000000000E+00  0.00000000000E+00  0.14044912151E+04  0.14044912151E+04  0.00000000000E+00 0.  1.
         -2   -1    0    0    0  501 -0.00000000000E+00 -0.00000000000E+00 -0.66130072774E+02  0.66130072774E+02  0.00000000000E+00 0. -1.
         25    2    1    2    0    0 -0.10423603677E+03 -0.18849074468E+03  0.11319078992E+04  0.11589894383E+04  0.12508842302E+03 0.  0.
          5    1    3    3  502    0  0.24655581818E+02 -0.67691455406E+02  0.30668074434E+03  0.31505647462E+03  0.41800000000E+01 0. -1.
         -5    1    3    3    0  502 -0.12889161859E+03 -0.12079928927E+03  0.82522715484E+03  0.84393296364E+03  0.41800000000E+01 0. -1.
        -11    1    1    2    0    0  0.57237051588E+02  0.62038818710E+02  0.30139912937E+02  0.89628731182E+02  0.00000000000E+00 0. -1.
         11    1    1    2    0    0  0.46998985183E+02  0.12645192597E+03  0.17631333024E+03  0.22200311846E+03  0.00000000000E+00 0.  1.
</event>
<event>
 7    1  0.2899775E-009  0.7360252E+02  0.7561462E-02  0.1348254E+00
         -2   -1    0    0    0  501 -0.00000000000E+00  0.00000000000E+00  0.34421344499E+02  0.34421344499E+02  0.00000000000E+00 0.  1.
          2   -1    0    0  501    0  0.00000000000E+00 -0.00000000000E+00 -0.40094611794E+03  0.40094611794E+03  0.00000000000E+00 0. -1.
         25    2    1    2    0    0 -0.26796254626E+02  0.34647528959E+02 -0.21954920612E+03  0.25644811819E+03  0.12508114522E+03 0.  0.
          5    1    3    3  502    0 -0.21044008331E+02  0.19068291650E+02  0.67620938552E+01  0.29489800718E+02  0.41800000000E+01 0. -1.
         -5    1    3    3    0  502 -0.57522462943E+01  0.15579237309E+02 -0.22631129997E+03  0.22695831747E+03  0.41800000000E+01 0. -1.
        -11    1    1    2    0    0  0.54926425662E+02  0.22568197887E+01 -0.89706638958E+02  0.10521067695E+03  0.00000000000E+00 0.  1.
         11    1    1    2    0    0 -0.28130171037E+02 -0.36904348747E+02 -0.57268928363E+02  0.73708667298E+02  0.00000000000E+00 0. -1.
</event>
<event>
 7    1  0.2899775E-009  0.1740418E+03  0.7561462E-02  0.1173697E+00
          1   -1    0    0  501    0  0.00000000000E+00  0.00000000000E+00  0.41833415879E+02  0.41833415879E+02  0.00000000000E+00 0. -1.
         -1   -1    0    0    0  501 -0.00000000000E+00 -0.00000000000E+00 -0.99254945338E+03  0.99254945338E+03  0.00000000000E+00 0.  1.
         25    2    1    2    0    0  0.11685961092E+03  0.98103924554E+02 -0.70349438266E+03  0.73063841145E+03  0.12509034005E+03 0.  0.
          5    1    3    3  502    0  0.14247939877E+03  0.87209100155E+02 -0.63416216028E+03  0.65580860330E+03  0.41800000000E+01 0. -1.
         -5    1    3    3    0  502 -0.25619787852E+02  0.10894824399E+02 -0.69332222378E+02  0.74829808153E+02  0.41800000000E+01 0. -1.
        -11    1    1    2    0    0 -0.99485685235E+02 -0.87385885904E+02 -0.13287016426E+03  0.18758511448E+03  0.00000000000E+00 0. -1.
         11    1    1    2    0    0 -0.17373925686E+02 -0.10718038650E+02 -0.11435149058E+03  0.11615934333E+03  0.00000000000E+00 0.  1.
</event>
<event>
 7    1  0.2899775E-009  0.1225008E+03  0.7561462E-02  0.1239028E+00
         -1   -1    0    0    0  501 -0.00000000000E+00  0.00000000000E+00  0.64304534873E+03  0.64304534873E+03  0.00000000000E+00 0.  1.
          1   -1    0    0  501    0  0.00000000000E+00 -0.00000000000E+00 -0.26885139864E+02  0.26885139864E+02  0.00000000000E+00 0. -1.
         25    2    1    2    0    0  0.49063434743E+02  0.33077078117E+02  0.45271582019E+03  0.47339196636E+03  0.12508807392E+03 0.  0.
          5    1    3    3  502    0  0.72421774680E+02 -0.22216741255E+02  0.20854696072E+03  0.22191846310E+03  0.41800000000E+01 0.  1.
         -5    1    3    3    0  502 -0.23358339938E+02  0.55293819371E+02  0.24416885947E+03  0.25147350325E+03  0.41800000000E+01 0.  1.
        -11    1    1    2    0    0  0.16366730906E+02  0.19188546186E+02  0.42810461038E+02  0.49687078396E+02  0.00000000000E+00 0. -1.
         11    1    1    2    0    0 -0.65430165649E+02 -0.52265624303E+02  0.12063392764E+03  0.14685144384E+03  0.00000000000E+00 0.  1.
</event>
<event>
 7    1  0.2899775E-009  0.2743939E+03  0.7561462E-02  0.1098791E+00
          2   -1    0    0  501    0  0.00000000000E+00  0.00000000000E+00  0.45831547937E+03  0.45831547937E+03  0.00000000000E+00 0. -1.
         -2   -1    0    0    0  501 -0.00000000000E+00 -0.00000000000E+00 -0.18677023660E+03  0.18677023660E+03  0.00000000000E+00 0.  1.
         25    2    1    2    0    0  0.23151882941E+03  0.13875868124E+03  0.10672500524E+03  0.31605828638E+03  0.12509066174E+03 0.  0.
          5    1    3    3  502    0  0.61880208898E+02  0.13212406491E+02 -0.23966204520E+02  0.67790702148E+02  0.41800000000E+01 0.  1.
         -5    1    3    3    0  502  0.16963862052E+03  0.12554627475E+03  0.13069120976E+03  0.24826758424E+03  0.41800000000E+01 0.  1.
        -11    1    1    2    0    0 -0.91377481791E+02 -0.27714976290E+02  0.16904599807E+02  0.96972829101E+02  0.00000000000E+00 0.  1.
         11    1    1    2    0    0 -0.14014134762E+03 -0.11104370495E+03  0.14791563772E+03  0.23205460048E+03  0.00000000000E+00 0. -1.
</event>
<event>
 7    1  0.2899775E-009  0.8691968E+02  0.7561462E-02  0.1310487E+00
         -2   -1    0    0    0  501 -0.00000000000E+00  0.00000000000E+00  0.15653105954E+03  0.15653105954E+03  0.00000000000E+00 0. -1.
          2   -1    0    0  501    0  0.00000000000E+00 -0.00000000000E+00 -0.99470274025E+02  0.99470274025E+02  0.00000000000E+00 0.  1.
         25    2    1    2    0    0 -0.55938363591E+02 -0.23332485908E+02  0.23399953194E+02  0.14095532266E+03  0.12508932712E+03 0.  0.
          5    1    3    3  502    0 -0.55000567291E+01 -0.35370215162E+02  0.65015117347E+02  0.74335325575E+02  0.41800000000E+01 0.  1.
         -5    1    3    3    0  502 -0.50438306862E+02  0.12037729255E+02 -0.41615164153E+02  0.66619997090E+02  0.41800000000E+01 0.  1.
        -11    1    1    2    0    0  0.41534681395E-01  0.29537539129E+02 -0.21294830636E+02  0.36413428220E+02  0.00000000000E+00 0.  1.
         11    1    1    2    0    0  0.55896828910E+02 -0.62050532212E+01  0.54955662953E+02  0.78632582676E+02  0.00000000000E+00 0. -1.
</event>
<event>
 7    1  0.2899775E-009  0.1482404E+03  0.7561462E-02  0.1202652E+00
          3   -1    0    0  501    0  0.00000000000E+00  0.00000000000E+00  0.57066328974E+03  0.57066328974E+03  0.00000000000E+00 0. -1.
         -3   -1    0    0    0  501 -0.00000000000E+00 -0.00000000000E+00 -0.51541454092E+02  0.51541454092E+02  0.00000000000E+00 0.  1.
         25    2    1    2    0    0  0.96670974112E+02  0.84352868169E+02  0.21747451018E+03  0.28178663607E+03  0.12509141491E+03 0.  0.
          5    1    3    3  502    0  0.55797240797E+02 -0.26951341364E+01  0.15619332508E+02  0.58155238599E+02  0.41800000000E+01 0.  1.
         -5    1    3    3    0  502  0.40873733316E+02  0.87048002306E+02  0.20185517767E+03  0.22363139747E+03  0.41800000000E+01 0.  1.
        -11    1    1    2    0    0 -0.74220901545E+02 -0.94000279389E+02  0.17908877249E+03  0.21544740236E+03  0.00000000000E+00 0.  1.
         11    1    1    2    0    0 -0.22450072567E+02  0.96474112201E+01  0.12255855297E+03  0.12497070540E+03  0.00000000000E+00 0. -1.
</event>
<event>
 7    1  0.2899775E-009  0.1286437E+03  0.7561462E-02  0.1229482E+00
          2   -1    0    0  501    0  0.00000000000E+00  0.00000000000E+00  0.54364281923E+03  0.54364281923E+03  0.00000000000E+00 0. -1.
         -2   -1    0    0    0  501 -0.00000000000E+00 -0.00000000000E+00 -0.39542124656E+02  0.39542124656E+02  0.00000000000E+00 0.  1.
         25    2    1    2    0    0 -0.81709385003E+02 -0.28568943408E+02  0.36615239090E+03  0.39650363361E+03  0.12511974255E+03 0.  0.
          5    1    3    3  502    0 -0.65871717297E+02  0.28764431539E+02  0.96860394769E+02  0.12068920472E+03  0.41800000000E+01 0.  1.
         -5    1    3    3    0  502 -0.15837667707E+02 -0.57333374947E+02  0.26929199613E+03  0.27581442889E+03  0.41800000000E+01 0.  1.
        -11    1    1    2    0    0 -0.16213916090E+02  0.22253282980E+02  0.26954267499E+02  0.38530925434E+02  0.00000000000E+00 0. -1.
         11    1    1    2    0    0  0.97923301093E+02  0.63156604278E+01  0.11099403617E+03  0.14815038485E+03  0.00000000000E+00 0.  1.
</event>
<event>
 7    1  0.2899775E-009  0.1317292E+03  0.7561462E-02  0.1224912E+00
          2   -1    0    0  501    0  0.00000000000E+00  0.00000000000E+00  0.62210868826E+03  0.62210868826E+03  0.00000000000E+00 0.  1.
         -2   -1    0    0    0  501 -0.00000000000E+00 -0.00000000000E+00 -0.42027558618E+02  0.42027558618E+02  0.00000000000E+00 0. -1.
         25    2    1    2    0    0  0.12677647159E+02 -0.10176710231E+03  0.43705897517E+03  0.46603375131E+03  0.12509853613E+03 0.  0.
          5    1    3    3  502    0  0.19671108092E+02  0.15899111444E+02  0.19707179077E+02  0.32335422457E+02  0.41800000000E+01 0.  1.
         -5    1    3    3    0  502 -0.69934609333E+01 -0.11766621375E+03  0.41735179609E+03  0.43369832886E+03  0.41800000000E+01 0.  1.
        -11    1    1    2    0    0  0.25135604544E+02  0.34161496215E+02  0.10196143688E+03  0.11043070700E+03  0.00000000000E+00 0. -1.
         11    1    1    2    0    0 -0.37813251703E+02  0.67605606093E+02  0.41060717600E+02  0.87671788560E+02  0.00000000000E+00 0.  1.
</event>
<event>
 7    1  0.2899775E-009  0.1759525E+03  0.7561462E-02  0.1171779E+00
          2   -1    0    0  501    0  0.00000000000E+00  0.00000000000E+00  0.11144393924E+04  0.11144393924E+04  0.00000000000E+00 0. -1.
         -2   -1    0    0    0  501 -0.00000000000E+00 -0.00000000000E+00 -0.36718511373E+02  0.36718511373E+02  0.00000000000E+00 0.  1.
         25    2    1    2    0    0  0.15063006919E+03  0.58201618170E+02  0.71799847111E+03  0.74648768337E+03  0.12508081705E+03 0.  0.
          5    1    3    3  502    0  0.11020645842E+03 -0.10242887083E+02  0.54378482256E+03  0.55495025531E+03  0.41800000000E+01 0. -1.
         -5    1    3    3    0  502  0.40423610765E+02  0.68444505254E+02  0.17421364855E+03  0.19153742806E+03  0.41800000000E+01 0. -1.
        -11    1    1    2    0    0 -0.62061257241E+02 -0.21637362635E+02  0.25230990576E+03  0.26072986721E+03  0.00000000000E+00 0. -1.
         11    1    1    2    0    0 -0.88568811945E+02 -0.36564255535E+02  0.10741250419E+03  0.14394035323E+03  0.00000000000E+00 0.  1.
</event>
<event>
 7    1  0.2899775E-009  0.1184199E+03  0.7561462E-02  0.1245727E+00
          2   -1    0    0  501    0  0.00000000000E+00  0.00000000000E+00  0.16591584352E+03  0.16591584352E+03  0.00000000000E+00 0. -1.
         -2   -1    0    0    0  501 -0.00000000000E+00 -0.00000000000E+00 -0.97030195587E+02  0.97030195587E+02  0.00000000000E+00 0.  1.
         25    2    1    2    0    0 -0.47089939563E+02  0.18288554208E+02 -0.58487509859E+01  0.13503349757E+03  0.12509158227E+03 0.  0.
          5    1    3    3  502    0  0.40025666503E+02 -0.11846656013E+02 -0.81237977573E+01  0.42730150102E+02  0.41800000000E+01 0. -1.
         -5    1    3    3    0  502 -0.87115606067E+02  0.30135210221E+02  0.22750467714E+01  0.92303347465E+02  0.41800000000E+01 0. -1.
        -11    1    1    2    0    0 -0.72474919616E+01 -0.42509189757E+02  0.41100933121E+02  0.59572175191E+02  0.00000000000E+00 0.  1.
         11    1    1    2    0    0  0.54337431525E+02  0.24220635550E+02  0.33633465795E+02  0.68340366348E+02  0.00000000000E+00 0. -1.
</event>
<event>
 7    1  0.2899775E-009  0.7358178E+02  0.7561462E-02  0.1348320E+00
         -1   -1    0    0    0  501 -0.00000000000E+00  0.00000000000E+00  0.65060529900E+02  0.65060529900E+02  0.00000000000E+00 0.  1.
          1   -1    0    0  501    0  0.00000000000E+00 -0.00000000000E+00 -0.20239146160E+03  0.20239146160E+03  0.00000000000E+00 0. -1.
         25    2    1    2    0    0 -0.10652682698E+02  0.33717789916E+02 -0.60941382362E+02  0.14356324537E+03  0.12508470863E+03 0.  0.
          5    1    3    3  502    0 -0.63225559475E+01  0.64596337788E+02 -0.82774386100E+02  0.10526981031E+03  0.41800000000E+01 0.  1.
         -5    1    3    3    0  502 -0.43301267500E+01 -0.30878547872E+02  0.21833003737E+02  0.38293435058E+02  0.41800000000E+01 0.  1.
        -11    1    1    2    0    0 -0.13285109975E+02 -0.78984992679E+01 -0.86011356964E+02  0.87388980796E+02  0.00000000000E+00 0. -1.
         11    1    1    2    0    0  0.23937792672E+02 -0.25819290648E+02  0.96218076236E+01  0.36499765335E+02  0.00000000000E+00 0.  1.
</event>
<event>
 7    1  0.2899775E-009  0.1509288E+03  0.7561462E-02  0.1199336E+00
          2   -1    0    0  501    0  0.00000000000E+00  0.00000000000E+00  0.14955730330E+03  0.14955730330E+03  0.00000000000E+00 0. -1.
         -2   -1    0    0    0  501 -0.00000000000E+00 -0.00000000000E+00 -0.16485732735E+03  0.16485732735E+03  0.00000000000E+00 0.  1.
         25    2    1    2    0    0 -0.10892181742E+03  0.27941768605E+02 -0.12146083109E+02  0.16863033808E+03  0.12507581238E+03 0.  0.
          5    1    3    3  502    0 -0.12356130080E+03 -0.13189463676E+02 -0.91261155960E+01  0.12466802073E+03  0.41800000000E+01 0. -1.
         -5    1    3    3    0  502  0.14639483378E+02  0.41131232281E+02 -0.30199675134E+01  0.43962317345E+02  0.41800000000E+01 0. -1.
        -11    1    1    2    0    0  0.25363521420E+01 -0.27159041428E+02 -0.25199638878E+02  0.37135810387E+02  0.00000000000E+00 0.  1.
         11    1    1    2    0    0  0.10638546528E+03 -0.78272717708E+00  0.22045697929E+02  0.10864848219E+03  0.00000000000E+00 0. -1.
</event>
<event>
 7    1  0.2899775E-009  0.1028174E+03  0.7561462E-02  0.1274480E+00
          2   -1    0    0  501    0  0.00000000000E+00  0.00000000000E+00  0.99694217946E+03  0.99694217946E+03  0.00000000000E+00 0. -1.
         -2   -1    0    0    0  501 -0.00000000000E+00 -0.00000000000E+00 -0.20799924994E+02  0.20799924994E+02  0.00000000000E+00 0.  1.
         25    2    1    2    0    0  0.64360277786E+02  0.19489527707E+02  0.76377105296E+03  0.77686334943E+03  0.12509338634E+03 0.  0.
          5    1    3    3  502    0 -0.14834963650E+02  0.13111544139E+02  0.18688288647E+02  0.27544750294E+02  0.41800000000E+01 0. -1.
         -5    1    3    3    0  502  0.79195241436E+02  0.63779835678E+01  0.74508276431E+03  0.74931859914E+03  0.41800000000E+01 0. -1.
        -11    1    1    2    0    0 -0.50098663157E+02  0.27208889522E+02  0.15712288756E+03  0.16714604846E+03  0.00000000000E+00 0. -1.
         11    1    1    2    0    0 -0.14261614629E+02 -0.46698417229E+02  0.55248313949E+02  0.73732706567E+02  0.00000000000E+00 0.  1.
</event>
<event>
 7    1  0.2899775E-009  0.1543785E+03  0.7561462E-02  0.1195194E+00
          1   -1    0    0  501    0  0.00000000000E+00  0.00000000000E+00  0.19128553986E+03  0.19128553986E+03  0.00000000000E+00 0. -1.
         -1   -1    0    0    0  501 -0.00000000000E+00 -0.00000000000E+00 -0.15544832471E+03  0.15544832471E+03  0.00000000000E+00 0.  1.
         25    2    1    2    0    0  0.43486648992E+02  0.11997341893E+03 -0.23312096597E+02  0.18020986746E+03  0.12508969818E+03 0.  0.
          5    1    3    3  502    0  0.87649505302E+02  0.74334306853E+02 -0.17003943291E+02  0.11625244704E+03  0.41800000000E+01 0. -1.
         -5    1    3    3    0  502 -0.44162856310E+02  0.45639112077E+02 -0.63081533063E+01  0.63957420420E+02  0.41800000000E+01 0. -1.
        -11    1    1    2    0    0 -0.26190113193E+02 -0.10140702668E+03  0.28530783092E+01  0.10477331314E+03  0.00000000000E+00 0.  1.
         11    1    1    2    0    0 -0.17296535799E+02 -0.18566392248E+02  0.56296233439E+02  0.61750683973E+02  0.00000000000E+00 0. -1.
</event>
<event>
 7    1  0.2899775E-009  0.8829962E+02  0.7561462E-02  0.1307022E+00
         -3   -1    0    0    0  501 -0.00000000000E+00  0.00000000000E+00  0.17526383772E+03  0.17526383772E+03  0.00000000000E+00 0.  1.
          3   -1    0    0  501    0  0.00000000000E+00 -0.00000000000E+00 -0.90044997720E+02  0.90044997720E+02  0.00000000000E+00 0. -1.
         25    2    1    2    0    0  0.22822641692E+02  0.57640271875E+02  0.12382906096E+02  0.14015577465E+03  0.12508809251E+03 0.  0.
          5    1    3    3  502    0  0.34235706925E+02 -0.79097000986E+01 -0.41426652449E+02  0.54481987091E+02  0.41800000000E+01 0.  1.
         -5    1    3    3    0  502 -0.11413065233E+02  0.65549971974E+02  0.53809558544E+02  0.85673787558E+02  0.41800000000E+01 0.  1.
        -11    1    1    2    0    0  0.36115243339E+01 -0.45177984468E+02 -0.14292054398E+01  0.45344636031E+02  0.00000000000E+00 0. -1.
         11    1    1    2    0    0 -0.26434166025E+02 -0.12462287407E+02  0.74265139346E+02  0.79808424762E+02  0.00000000000E+00 0.  1.
</event>
<event>
 7    1  0.2899775E-009  0.1287018E+03  0.7561462E-02  0.1229395E+00
          4   -1    0    0  501    0  0.00000000000E+00  0.00000000000E+00  0.97837759600E+02  0.97837759600E+02  0.00000000000E+00 0. -1.
         -4   -1    0    0    0  501 -0.00000000000E+00 -0.00000000000E+00 -0.28148623624E+03  0.28148623624E+03  0.00000000000E+00 0.  1.
         25    2    1    2    0    0  0.20726386621E+01  0.10554072858E+03 -0.13025082445E+03  0.20917357535E+03  0.12508063853E+03 0.  0.
          5    1    3    3  502    0  0.13143058186E+02  0.82296565943E+02 -0.76107907635E+01  0.83790579903E+02  0.41800000000E+01 0.  1.
         -5    1    3    3    0  502 -0.11070419524E+02  0.23244162639E+02 -0.12264003369E+03  0.12538299545E+03  0.41800000000E+01 0.  1.
        -11    1    1    2    0    0 -0.45285038034E+02 -0.92084744821E+02 -0.67402792887E+02  0.12277406643E+03  0.00000000000E+00 0.  1.
         11    1    1    2    0    0  0.43212399372E+02 -0.13455983761E+02  0.14005140693E+02  0.47376354063E+02  0.00000000000E+00 0. -1.
</event>
<event>
 7    1  0.2899775E-009  0.1632910E+03  0.7561462E-02  0.1185031E+00
         -2   -1    0    0    0  501 -0.00000000000E+00  0.00000000000E+00  0.48272499698E+02  0.48272499698E+02  0.00000000000E+00 0.  1.
          2   -1    0    0  501    0  0.00000000000E+00 -0.00000000000E+00 -0.10157519095E+04  0.10157519095E+04  0.00000000000E+00 0. -1.
         25    2    1    2    0    0 -0.12619569124E+03  0.72899485460E+02 -0.80694487780E+03  0.82948609856E+03  0.12508982545E+03 0.  0.
          5    1    3    3  502    0 -0.17571273827E+02 -0.12608134656E+02 -0.38128841762E+03  0.38192413453E+03  0.41800000000E+01 0.  1.
         -5    1    3    3    0  502 -0.10862441741E+03  0.85507620117E+02 -0.42565646018E+03  0.44756196403E+03  0.41800000000E+01 0.  1.
        -11    1    1    2    0    0  0.35822060996E+02 -0.66642399532E+02 -0.46142746654E+02  0.88620440859E+02  0.00000000000E+00 0.  1.
         11    1    1    2    0    0  0.90373630245E+02 -0.62570859284E+01 -0.11439178540E+03  0.14591786983E+03  0.00000000000E+00 0. -1.
</event>
<event>
 7    1  0.2899775E-009  0.8047686E+02  0.7561462E-02  0.1327704E+00
         -1   -1    0    0    0  501 -0.00000000000E+00  0.00000000000E+00  0.28504164447E+03  0.28504164447E+03  0.00000000000E+00 0.  1.
          1   -1    0    0  501    0  0.00000000000E+00 -0.00000000000E+00 -0.84500273918E+02  0.84500273918E+02  0.00000000000E+00 0. -1.
         25    2    1    2    0    0  0.58280532327E+02  0.37081773411E+02  0.51520933412E+01  0.14298980539E+03  0.12509141462E+03 0.  0.
          5    1    3    3  502    0  0.23083799826E+00  0.33265168666E+02  0.56225955802E+02  0.65463388534E+02  0.41800000000E+01 0.  1.
         -5    1    3    3    0  502  0.58049694328E+02  0.38166047453E+01 -0.51073862461E+02  0.77526416853E+02  0.41800000000E+01 0.  1.
        -11    1    1    2    0    0 -0.22663591830E+02 -0.13375826480E+02 -0.22116161900E+00  0.26317295475E+02  0.00000000000E+00 0. -1.
         11    1    1    2    0    0 -0.35616940496E+02 -0.23705946931E+02  0.19561043883E+03  0.20023481753E+03  0.00000000000E+00 0.  1.
</event>
<event>
 7    1  0.2899775E-009  0.1442841E+03  0.7561462E-02  0.1207678E+00
         -2   -1    0    0    0  501 -0.00000000000E+00  0.00000000000E+00  0.27045216925E+02  0.27045216925E+02  0.00000000000E+00 0.  1.
          2   -1    0    0  501    0  0.00000000000E+00 -0.00000000000E+00 -0.95025715027E+03  0.95025715027E+03  0.00000000000E+00 0. -1.
         25    2    1    2    0    0 -0.10263373934E+03 -0.52448416769E+02 -0.43470142840E+03  0.46679522623E+03  0.12509168838E+03 0.  0.
          5    1    3    3  502    0 -0.73145517974E+02 -0.73734258325E+02 -0.40916303477E+03  0.42215976724E+03  0.41800000000E+01 0. -1.
         -5    1    3    3    0  502 -0.29488221363E+02  0.21285841557E+02 -0.25538393631E+02  0.44635458989E+02  0.41800000000E+01 0. -1.
        -11    1    1    2    0    0  0.11654362655E+03  0.61146627076E+02 -0.44261288053E+03  0.46176562118E+03  0.00000000000E+00 0. -1.
         11    1    1    2    0    0 -0.13909887210E+02 -0.86982103072E+01 -0.45897624409E+02  0.48741519787E+02  0.00000000000E+00 0.  1.
</event>
<event>
 7    1  0.2899775E-009  0.1445154E+03  0.7561462E-02  0.1207379E+00
         -1   -1    0    0    0  501 -0.00000000000E+00  0.00000000000E+00  0.70659273652E+02  0.70659273652E+02  0.00000000000E+00 0.  1.
          1   -1    0    0  501    0  0.00000000000E+00 -0.00000000000E+00 -0.41904744822E+03  0.41904744822E+03  0.00000000000E+00 0. -1.
         25    2    1    2    0    0  0.63711496696E+02  0.11420780861E+03 -0.23740805848E+03  0.29851741821E+03  0.12508990521E+03 0.  0.
          5    1    3    3  502    0  0.55243669418E+02  0.12255932305E+03 -0.11944047420E+03  0.17987815307E+03  0.41800000000E+01 0. -1.
         -5    1    3    3    0  502  0.84678272782E+01 -0.83515144320E+01 -0.11796758428E+03  0.11863926514E+03  0.41800000000E+01 0. -1.
        -11    1    1    2    0    0 -0.57981994301E+02 -0.47453012040E+02 -0.18826512392E+02  0.77253722134E+02  0.00000000000E+00 0.  1.
         11    1    1    2    0    0 -0.57295023949E+01 -0.66754796575E+02 -0.92153603703E+02  0.11393558153E+03  0.00000000000E+00 0. -1.
</event>
<event>
 7    1  0.2899775E-009  0.8967903E+02  0.7561462E-02  0.1303631E+00
          2   -1    0    0  501    0  0.00000000000E+00  0.00000000000E+00  0.18956830931E+03  0.18956830931E+03  0.00000000000E+00 0. -1.
         -2   -1    0    0    0  501 -0.00000000000E+00 -0.00000000000E+00 -0.78089793147E+02  0.78089793147E+02  0.00000000000E+00 0.  1.
         25    2    1    2    0    0 -0.68586185713E+01 -0.55824563288E+02  0.70441703060E+02  0.15418446332E+03  0.12508953866E+03 0.  0.
          5    1    3    3  502    0 -0.41760871644E+02 -0.61947267732E+02  0.87082341752E+02  0.11481394090E+03  0.41800000000E+01 0.  1.
         -5    1    3    3    0  502  0.34902253072E+02  0.61227044435E+01 -0.16640638692E+02  0.39370522416E+02  0.41800000000E+01 0.  1.
        -11    1    1    2    0    0 -0.16720099526E+02  0.22862022504E+02  0.61767373014E+02  0.67951763555E+02  0.00000000000E+00 0. -1.
         11    1    1    2    0    0  0.23578718097E+02  0.32962540784E+02 -0.20730559916E+02  0.45521875582E+02  0.00000000000E+00 0.  1.
</event>
<event>
 7    1  0.2899775E-009  0.8460731E+02  0.7561462E-02  0.1316463E+00
          1   -1    0    0  501    0  0.00000000000E+00  0.00000000000E+00  0.24135586143E+03  0.24135586143E+03  0.00000000000E+00 0. -1.
         -1   -1    0    0    0  501 -0.00000000000E+00 -0.00000000000E+00 -0.66769853930E+02  0.66769853930E+02  0.00000000000E+00 0.  1.
         25    2    1    2    0    0 -0.99685701120E+01 -0.53451288063E+02  0.13673883778E+03  0.19316937530E+03  0.12514186035E+03 0.  0.
          5    1    3    3  502    0 -0.89747727640E+01  0.14282161074E+02 -0.17497440355E+02  0.24660889888E+02  0.41800000000E+01 0.  1.
         -5    1    3    3    0  502 -0.99379734796E+00 -0.67733449137E+02  0.15423627813E+03  0.16850848541E+03  0.41800000000E+01 0.  1.
        -11    1    1    2    0    0  0.21093962236E+02 -0.72113147159E+01 -0.20331331267E+02  0.30171531844E+02  0.00000000000E+00 0.  1.
         11    1    1    2    0    0 -0.11125392124E+02  0.60662602779E+02  0.58178500987E+02  0.84784808208E+02  0.00000000000E+00 0. -1.
</event>
<event>
 7    1  0.2899775E-009  0.1093249E+03  0.7561462E-02  0.1261825E+00
         -1   -1    0    0    0  501 -0.00000000000E+00  0.00000000000E+00  0.68169970607E+03  0.68169970607E+03  0.00000000000E+00 0.  1.
          1   -1    0    0  501    0  0.00000000000E+00 -0.00000000000E+00 -0.99594648247E+02  0.99594648247E+02  0.00000000000E+00 0. -1.
         25    2    1    2    0    0 -0.28172480361E+02 -0.66527338366E+02  0.63439570575E+03  0.65063443620E+03  0.12509069791E+03 0.  0.
          5    1    3    3  502    0  0.22203652893E+02 -0.23015682551E+02  0.35212637685E+02  0.47750665941E+02  0.41800000000E+01 0.  1.
         -5    1    3    3    0  502 -0.50376133254E+02 -0.43511655815E+02  0.59918306806E+03  0.60288377026E+03  0.41800000000E+01 0.  1.
        -11    1    1    2    0    0  0.62057600347E+02  0.27110233862E+02 -0.31242947308E+02  0.74580374747E+02  0.00000000000E+00 0. -1.
         11    1    1    2    0    0 -0.33885119986E+02  0.39417104504E+02 -0.21047700611E+02  0.56079543373E+02  0.00000000000E+00 0.  1.
</event>
<event>
 7    1  0.2899775E-009  0.3597475E+03  0.7561462E-02  0.1058684E+00
          2   -1    0    0  501    0  0.00000000000E+00  0.00000000000E+00  0.82170323365E+03  0.82170323365E+03  0.00000000000E+00 0. -1.
         -2   -1    0    0    0  501 -0.00000000000E+00 -0.00000000000E+00 -0.21660163540E+03  0.21660163540E+03  0.00000000000E+00 0.  1.
         25    2    1    2    0    0 -0.26056367884E+03  0.24795584861E+03  0.54157622758E+03  0.66206322203E+03  0.12508943239E+03 0.  0.
          5    1    3    3  502    0 -0.16835358963E+03  0.16213610023E+03  0.44717618496E+03  0.50459395451E+03  0.41800000000E+01 0. -1.
         -5    1    3    3    0  502 -0.92210089218E+02  0.85819748382E+02  0.94400042622E+02  0.15746926752E+03  0.41800000000E+01 0. -1.
        -11    1    1    2    0    0  0.12998346250E+03 -0.12396647860E+03 -0.14061157622E+02  0.18016965475E+03  0.00000000000E+00 0. -1.
         11    1    1    2    0    0  0.13058021634E+03 -0.12398937001E+03  0.77586528295E+02  0.19607199226E+03  0.00000000000E+00 0.  1.
</event>
<event>
 7    1  0.2899775E-009  0.9484991E+02  0.7561462E-02  0.1291514E+00
          2   -1    0    0  501    0  0.00000000000E+00  0.00000000000E+00  0.58211289154E+02  0.58211289154E+02  0.00000000000E+00 0.  1.
         -2   -1    0    0    0  501 -0.00000000000E+00 -0.00000000000E+00 -0.25263924266E+03  0.25263924266E+03  0.00000000000E+00 0. -1.
         25    2    1    2    0    0 -0.31734685180E+02  0.19355511959E+02 -0.61758054109E+02  0.14438779840E+03  0.12510816517E+03 0.  0.
          5    1    3    3  502    0 -0.11486217055E+02  0.55681298934E+02  0.13244089400E+02  0.58525366614E+02  0.41800000000E+01 0.  1.
         -5    1    3    3    0  502 -0.20248468125E+02 -0.36325786975E+02 -0.75002143509E+02  0.85862431783E+02  0.41800000000E+01 0.  1.
        -11    1    1    2    0    0  0.30303182801E+02 -0.50943369090E+02 -0.11703198973E+03  0.13118687572E+03  0.00000000000E+00 0. -1.
         11    1    1    2    0    0  0.14315023790E+01  0.31587857131E+02 -0.15637909668E+02  0.35275857693E+02  0.00000000000E+00 0.  1.
</event>
<event>
 7    1  0.2899775E-009  0.1176133E+03  0.7561462E-02  0.1247087E+00
          1   -1    0    0  501    0  0.00000000000E+00  0.00000000000E+00  0.11825937811E+03  0.11825937811E+03  0.00000000000E+00 0. -1.
         -1   -1    0    0    0  501 -0.00000000000E+00 -0.00000000000E+00 -0.17603652913E+03  0.17603652913E+03  0.00000000000E+00 0.  1.
         25    2    1    2    0    0 -0.44837653363E+02 -0.15294909798E+02 -0.11513459292E+03  0.17648776282E+03  0.12509039337E+03 0.  0.
          5    1    3    3  502    0 -0.47081321169E+02  0.49489192442E+02 -0.52515471670E+02  0.86262263686E+02  0.41800000000E+01 0. -1.
         -5    1    3    3    0  502  0.22436678057E+01 -0.64784102240E+02 -0.62619121251E+02  0.90225499137E+02  0.41800000000E+01 0. -1.
        -11    1    1    2    0    0 -0.27708060511E+02  0.84427713364E+01  0.24225226564E+02  0.37760807820E+02  0.00000000000E+00 0. -1.
         11    1    1    2    0    0  0.72545713874E+02  0.68521384617E+01  0.33132215343E+02  0.80047336599E+02  0.00000000000E+00 0.  1.
</event>
<event>
 7    1  0.2899775E-009  0.1804678E+03  0.7561462E-02  0.1167351E+00
         -3   -1    0    0    0  501 -0.00000000000E+00  0.00000000000E+00  0.11061392772E+03  0.11061392772E+03  0.00000000000E+00 0.  1.
          3   -1    0    0  501    0  0.00000000000E+00 -0.00000000000E+00 -0.62423580706E+03  0.62423580706E+03  0.00000000000E+00 0. -1.
         25    2    1    2    0    0 -0.15292282947E+03  0.51787326688E+02 -0.50859161649E+03  0.54806869539E+03  0.12508614441E+03 0.  0.
          5    1    3    3  502    0 -0.11854167540E+03  0.49911124294E+01 -0.18882697333E+03  0.22304739018E+03  0.41800000000E+01 0.  1.
         -5    1    3    3    0  502 -0.34381154068E+02  0.46796214259E+02 -0.31976464316E+03  0.32502130521E+03  0.41800000000E+01 0.  1.
        -11    1    1    2    0    0  0.79948670514E+02  0.19166542588E+02  0.13530604959E+02  0.83320006855E+02  0.00000000000E+00 0.  1.
         11    1    1    2    0    0  0.72974158954E+02 -0.70953869276E+02 -0.18560867804E+02  0.10346103254E+03  0.00000000000E+00 0. -1.
</event>
<event>
 7    1  0.2899775E-009  0.2557004E+03  0.7561462E-02  0.1109754E+00
          2   -1    0    0  501    0  0.00000000000E+00  0.00000000000E+00  0.13188130535E+04  0.13188130535E+04  0.00000000000E+00 0. -1.
         -2   -1    0    0    0  501 -0.00000000000E+00 -0.00000000000E+00 -0.57335183618E+02  0.57335183618E+02  0.00000000000E+00 0.  1.
         25    2    1    2    0    0  0.22674024194E+03  0.10772948123E+03  0.58031265925E+03  0.64453619707E+03  0.12508936164E+03 0.  0.
          5    1    3    3  502    0  0.21301543857E+03  0.77280942500E+02  0.38835533837E+03  0.44965015555E+03  0.41800000000E+01 0. -1.
         -5    1    3    3    0  502  0.13724803374E+02  0.30448538734E+02  0.19195732088E+03  0.19488604152E+03  0.41800000000E+01 0. -1.
        -11    1    1    2    0    0 -0.12722267179E+03 -0.63714212921E+02  0.25750756419E+03  0.29420274431E+03  0.00000000000E+00 0.  1.
         11    1    1    2    0    0 -0.99517570152E+02 -0.44015268313E+02  0.42365764646E+03  0.43740929576E+03  0.00000000000E+00 0. -1.
</event>
<event>
 7    1  0.3879569E-009  0.1081949E+03  0.7561462E-02  0.1263950E+00
          1   -1    0    0  501    0  0.00000000000E+00  0.00000000000E+00  0.12084959257E+03  0.12084959257E+03  0.00000000000E+00 0. -1.
         -1   -1    0    0    0  501 -0.00000000000E+00 -0.00000000000E+00 -0.15494713952E+03  0.15494713952E+03  0.00000000000E+00 0.  1.
         25    2    1    2    0    0  0.37892923279E+02 -0.50808160844E+02 -0.71955434968E+02  0.15761170078E+03  0.12508605341E+03 0.  0.
          5    1    3    3  502    0  0.59302703095E+02 -0.78005839043E+02 -0.73732377915E+02  0.12270149743E+03  0.41800000000E+01 0.  1.
         -5    1    3    3    0  502 -0.21409779816E+02  0.27197678199E+02  0.17769429468E+01  0.34910203343E+02  0.41800000000E+01 0.  1.
        -11    1    1    2    0    0 -0.39206830483E+02  0.72525800954E+01 -0.20911681958E+02  0.45023037624E+02  0.00000000000E+00 0.  1.
         11    1    1    2    0    0  0.13139072045E+01  0.43555580749E+02  0.58769569968E+02  0.73161993690E+02  0.00000000000E+00 0. -1.
</event>
<event>
 7    1  0.2899775E-009  0.9188919E+02  0.7561462E-02  0.1298340E+00
          2   -1    0    0  501    0  0.00000000000E+00  0.00000000000E+00  0.54763465302E+03  0.54763465302E+03  0.00000000000E+00 0. -1.
         -2   -1    0    0    0  501 -0.00000000000E+00 -0.00000000000E+00 -0.24314828620E+02  0.24314828620E+02  0.00000000000E+00 0.  1.
         25    2    1    2    0    0  0.27376857959E+02 -0.27440956657E+02  0.27819486607E+03  0.30747886770E+03  0.12509345354E+03 0.  0.
          5    1    3    3  502    0 -0.76846806957E+01 -0.47294247593E+02  0.25756992036E+03  0.26202201519E+03  0.41800000000E+01 0.  1.
         -5    1    3    3    0  502  0.35061538655E+02  0.19853290937E+02  0.20624945708E+02  0.45456852501E+02  0.41800000000E+01 0.  1.
        -11    1    1    2    0    0  0.30327213988E+02  0.21477253718E+02  0.61052463281E+02  0.71473181042E+02  0.00000000000E+00 0.  1.
         11    1    1    2    0    0 -0.57704071948E+02  0.59637029388E+01  0.18407249505E+03  0.19299743290E+03  0.00000000000E+00 0. -1.
</event>
<event>
 7    1  0.2899775E-009  0.1486187E+03  0.7561462E-02  0.1202181E+00
         -1   -1    0    0    0  501 -0.00000000000E+00  0.00000000000E+00  0.38072936929E+02  0.38072936929E+02  0.00000000000E+00 0.  1.
          1   -1    0    0  501    0  0.00000000000E+00 -0.00000000000E+00 -0.11687089693E+04  0.11687089693E+04  0.00000000000E+00 0. -1.
         25    2    1    2    0    0 -0.91595697080E+01 -0.12073766301E+03 -0.97190370533E+03  0.98737305214E+03  0.12508897102E+03 0.  0.
          5    1    3    3  502    0 -0.30470975835E+02  0.97485703336E+01 -0.35407064138E+03  0.35553763019E+03  0.41800000000E+01 0. -1.
         -5    1    3    3    0  502  0.21311406127E+02 -0.13048623335E+03 -0.61783306395E+03  0.63183542195E+03  0.41800000000E+01 0. -1.
        -11    1    1    2    0    0 -0.18407277789E+02  0.87948961451E+02 -0.50649637901E+02  0.10314666022E+03  0.00000000000E+00 0.  1.
         11    1    1    2    0    0  0.27566847497E+02  0.32788701562E+02 -0.10808268915E+03  0.11626219388E+03  0.00000000000E+00 0. -1.
</event>
<event>
 7    1  0.2899775E-009  0.1554497E+03  0.7561462E-02  0.1193932E+00
         -1   -1    0    0    0  501 -0.00000000000E+00  0.00000000000E+00  0.28316708389E+03  0.28316708389E+03  0.00000000000E+00 0.  1.
          1   -1    0    0  501    0  0.00000000000E+00 -0.00000000000E+00 -0.10351545021E+03  0.10351545021E+03  0.00000000000E+00 0. -1.
         25    2    1    2    0    0 -0.98019299666E+02  0.87028020374E+02  0.63753491666E+02  0.19207550227E+03  0.12508729525E+03 0.  0.
          5    1    3    3  502    0 -0.14448774987E+02 -0.15964153792E+02 -0.24365565709E+02  0.32783753556E+02  0.41800000000E+01 0.  1.
         -5    1    3    3    0  502 -0.83570524679E+02  0.10299217417E+03  0.88119057375E+02  0.15929174871E+03  0.41800000000E+01 0.  1.
        -11    1    1    2    0    0  0.49607054665E+01 -0.58817683602E+02  0.41082258802E+02  0.71915787497E+02  0.00000000000E+00 0.  1.
         11    1    1    2    0    0  0.93058594200E+02 -0.28210336772E+02  0.74815883212E+02  0.12269124433E+03  0.00000000000E+00 0. -1.
</event>
<event>
 7    1  0.2899775E-009  0.1620754E+03  0.7561462E-02  0.1186373E+00
          1   -1    0    0  501    0  0.00000000000E+00  0.00000000000E+00  0.27065898802E+03  0.27065898802E+03  0.00000000000E+00 0. -1.
         -1   -1    0    0    0  501 -0.00000000000E+00 -0.00000000000E+00 -0.40488349141E+03  0.40488349141E+03  0.00000000000E+00 0.  1.
         25    2    1    2    0    0 -0.13212066438E+03  0.32294954492E+02 -0.35491433041E+03  0.40014037559E+03  0.12509717903E+03 0.  0.
          5    1    3    3  502    0 -0.64251396777E+02 -0.29579199257E+02 -0.25368344483E+03  0.26339311608E+03  0.41800000000E+01 0. -1.
         -5    1    3    3    0  502 -0.67869267608E+02  0.61874153749E+02 -0.10123088558E+03  0.13674725951E+03  0.41800000000E+01 0. -1.
        -11    1    1    2    0    0  0.71765541566E+02 -0.61312835303E+02  0.10092946020E+03  0.13818940866E+03  0.00000000000E+00 0. -1.
         11    1    1    2    0    0  0.60355122819E+02  0.29017880811E+02  0.11976036682E+03  0.13721269518E+03  0.00000000000E+00 0.  1.
</event>
<event>
 7    1  0.2899775E-009  0.1490791E+03  0.7561462E-02  0.1201609E+00
          1   -1    0    0  501    0  0.00000000000E+00  0.00000000000E+00  0.27346213400E+03  0.27346213400E+03  0.00000000000E+00 0. -1.
         -1   -1    0    0    0  501 -0.00000000000E+00 -0.00000000000E+00 -0.92986040858E+02  0.92986040858E+02  0.00000000000E+00 0.  1.
         25    2    1    2    0    0 -0.17294164625E+02 -0.10980162501E+03  0.59864036485E+02  0.17771858438E+03  0.12507880469E+03 0.  0.
          5    1    3    3  502    0  0.38113095839E+01  0.26157612219E+02 -0.19334351462E+01  0.26832020595E+02  0.41800000000E+01 0.  1.
         -5    1    3    3    0  502 -0.21105474209E+02 -0.13595923723E+03  0.61797471631E+02  0.15088656378E+03  0.41800000000E+01 0.  1.
        -11    1    1    2    0    0  0.14101788587E+02 -0.77896804878E+01 -0.47719536993E+01  0.16802116104E+02  0.00000000000E+00 0.  1.
         11    1    1    2    0    0  0.31923760375E+01  0.11759130550E+03  0.12538401036E+03  0.17192747438E+03  0.00000000000E+00 0. -1.
</event>
<event>
 7    1  0.2899775E-009  0.1464638E+03  0.7561462E-02  0.1204887E+00
          2   -1    0    0  501    0  0.00000000000E+00  0.00000000000E+00  0.35045049259E+03  0.35045049259E+03  0.00000000000E+00 0. -1.
         -2   -1    0    0    0  501 -0.00000000000E+00 -0.00000000000E+00 -0.93395318952E+02  0.93395318952E+02  0.00000000000E+00 0.  1.
         25    2    1    2    0    0 -0.13340364003E+03  0.33903463818E+02  0.19259394270E+03  0.26774246878E+03  0.12509047444E+03 0.  0.
          5    1    3    3  502    0 -0.81812082702E+02  0.48574428743E+02  0.19156505881E+03  0.21393301793E+03  0.41800000000E+01 0. -1.
         -5    1    3    3    0  502 -0.51591557325E+02 -0.14670964925E+02  0.10288838869E+01  0.53809450853E+02  0.41800000000E+01 0. -1.
        -11    1    1    2    0    0  0.20622854009E+02  0.99325600035E+01 -0.18468553665E+02  0.29411652966E+02  0.00000000000E+00 0.  1.
         11    1    1    2    0    0  0.11278078602E+03 -0.43836023822E+02  0.82929784602E+02  0.14669168979E+03  0.00000000000E+00 0. -1.
</event>
<event>
 7    1  0.2899775E-009  0.1494113E+03  0.7561462E-02  0.1201198E+00
         -2   -1    0    0    0  501 -0.00000000000E+00  0.00000000000E+00  0.12588344313E+03  0.12588344313E+03  0.00000000000E+00 0. -1.
          2   -1    0    0  501    0  0.00000000000E+00 -0.00000000000E+00 -0.22993851937E+03  0.22993851937E+03  0.00000000000E+00 0.  1.
         25    2    1    2    0    0 -0.10108783703E+03  0.62407972325E+02 -0.42448216309E+00  0.17251415668E+03  0.12508976084E+03 0.  0.
          5    1    3    3  502    0 -0.37145227119E+02 -0.26622931248E+02 -0.34763146285E+02  0.57571669296E+02  0.41800000000E+01 0. -1.
         -5    1    3    3    0  502 -0.63942609913E+02  0.89030903572E+02  0.34338664122E+02  0.11494248739E+03  0.41800000000E+01 0. -1.
        -11    1    1    2    0    0  0.12097087998E+02 -0.52293008664E+02 -0.68681409889E+02  0.87166704409E+02  0.00000000000E+00 0.  1.
         11    1    1    2    0    0  0.88990749034E+02 -0.10114963661E+02 -0.34949184193E+02  0.96141101404E+02  0.00000000000E+00 0. -1.
</event>
<event>
 7    1  0.2899775E-009  0.9552152E+02  0.7561462E-02  0.1290006E+00
          1   -1    0    0  501    0  0.00000000000E+00  0.00000000000E+00  0.40865295342E+03  0.40865295342E+03  0.00000000000E+00 0. -1.
         -1   -1    0    0    0  501 -0.00000000000E+00 -0.00000000000E+00 -0.35061846646E+02  0.35061846646E+02  0.00000000000E+00 0.  1.
         25    2    1    2    0    0 -0.51126542779E+01 -0.22060812614E+02  0.29455966447E+03  0.32082089972E+03  0.12509130695E+03 0.  0.
          5    1    3    3  502    0  0.42448862188E+02  0.17726831986E+02  0.48268599577E+02  0.66809255186E+02  0.41800000000E+01 0. -1.
         -5    1    3    3    0  502 -0.47561516466E+02 -0.39787644600E+02  0.24629106489E+03  0.25401164453E+03  0.41800000000E+01 0. -1.
        -11    1    1    2    0    0  0.39447099215E+02 -0.39257832494E+01  0.89482471158E+01  0.40639347153E+02  0.00000000000E+00 0.  1.
         11    1    1    2    0    0 -0.34334444937E+02  0.25986595863E+02  0.70083195188E+02  0.82254553196E+02  0.00000000000E+00 0. -1.
</event>
<event>
 7    1  0.2899775E-009  0.8548594E+02  0.7561462E-02  0.1314167E+00
          2   -1    0    0  501    0  0.00000000000E+00  0.00000000000E+00  0.13617964535E+04  0.13617964535E+04  0.00000000000E+00 0. -1.
         -2   -1    0    0    0  501 -0.00000000000E+00 -0.00000000000E+00 -0.13744234695E+02  0.13744234695E+02  0.00000000000E+00 0.  1.
         25    2    1    2    0    0  0.81121035761E+01 -0.51997235051E+01  0.11564267750E+04  0.11632124799E+04  0.12509014382E+03 0.  0.
          5    1    3    3  502    0  0.38132469464E+02  0.21182874412E+02  0.10212430551E+04  0.10221827867E+04  0.41800000000E+01 0.  1.
         -5    1    3    3    0  502 -0.30020365888E+02 -0.26382597917E+02  0.13518371996E+03  0.14102969327E+03  0.41800000000E+01 0.  1.
        -11    1    1    2    0    0 -0.44828455296E+02  0.17678253646E+02  0.13784218273E+03  0.14602252702E+03  0.00000000000E+00 0. -1.
         11    1    1    2    0    0  0.36716351720E+02 -0.12478530141E+02  0.53783261015E+02  0.66305681231E+02  0.00000000000E+00 0.  1.
</event>
<event>
 7    1  0.2899775E-009  0.9903408E+02  0.7561462E-02  0.1282340E+00
         -1   -1    0    0    0  501 -0.00000000000E+00  0.00000000000E+00  0.22792377517E+02  0.22792377517E+02  0.00000000000E+00 0.  1.
          1   -1    0    0  501    0  0.00000000000E+00 -0.00000000000E+00 -0.57127908950E+03  0.57127908950E+03  0.00000000000E+00 0. -1.
         25    2    1    2    0    0 -0.74088550507E+01 -0.30749048039E+02 -0.34688958024E+03  0.37011159142E+03  0.12509921716E+03 0.  0.
          5    1    3    3  502    0  0.51437931416E+02 -0.43157229490E+02 -0.15486981871E+03  0.16885064522E+03  0.41800000000E+01 0.  1.
         -5    1    3    3    0  502 -0.58846786466E+02  0.12408181451E+02 -0.19201976153E+03  0.20126094619E+03  0.41800000000E+01 0.  1.
        -11    1    1    2    0    0  0.34679641698E+02  0.95617105117E+01 -0.17925431838E+03  0.18282837448E+03  0.00000000000E+00 0. -1.
         11    1    1    2    0    0 -0.27270786647E+02  0.21187337527E+02 -0.22342813369E+02  0.41131501128E+02  0.00000000000E+00 0.  1.
</event>
<event>
 7    1  0.2899775E-009  0.1264407E+03  0.7561462E-02  0.1232835E+00
          4   -1    0    0  501    0  0.00000000000E+00  0.00000000000E+00  0.15251693668E+03  0.15251693668E+03  0.00000000000E+00 0. -1.
         -4   -1    0    0    0  501 -0.00000000000E+00 -0.00000000000E+00 -0.12392145237E+03  0.12392145237E+03  0.00000000000E+00 0.  1.
         25    2    1    2    0    0  0.72086973222E+02 -0.20656837752E+01 -0.33638718319E+02  0.14825463249E+03  0.12508826455E+03 0.  0.
          5    1    3    3  502    0  0.33217814325E+02 -0.61322199132E+02 -0.32984978236E+02  0.77261351814E+02  0.41800000000E+01 0.  1.
         -5    1    3    3    0  502  0.38869158897E+02  0.59256515357E+02 -0.65374008291E+00  0.70993280680E+02  0.41800000000E+01 0.  1.
        -11    1    1    2    0    0 -0.56413298978E+02  0.41207927290E+02  0.37194356628E+02  0.79145269841E+02  0.00000000000E+00 0.  1.
         11    1    1    2    0    0 -0.15673674244E+02 -0.39142243515E+02  0.25039846003E+02  0.49038486718E+02  0.00000000000E+00 0. -1.
</event>
<event>
 7    1  0.2899775E-009  0.9732677E+02  0.7561462E-02  0.1286020E+00
         -1   -1    0    0    0  501 -0.00000000000E+00  0.00000000000E+00  0.75106288441E+02  0.75106288441E+02  0.00000000000E+00 0.  1.
          1   -1    0    0  501    0  0.00000000000E+00 -0.00000000000E+00 -0.23392676984E+03  0.23392676984E+03  0.00000000000E+00 0. -1.
         25    2    1    2    0    0  0.17231262789E+02 -0.64831213715E+01 -0.27468630867E+01  0.12646871961E+03  0.12509134464E+03 0.  0.
          5    1    3    3  502    0  0.59253756399E+02 -0.35481446766E+02 -0.20643388005E+02  0.72205003846E+02  0.41800000000E+01 0.  1.
         -5    1    3    3    0  502 -0.42022493610E+02  0.28998325394E+02  0.17896524918E+02  0.54263715769E+02  0.41800000000E+01 0.  1.
        -11    1    1    2    0    0 -0.54301871706E+01  0.39138032930E+02 -0.24513305072E+02  0.46499190099E+02  0.00000000000E+00 0.  1.
         11    1    1    2    0    0 -0.11801075618E+02 -0.32654911558E+02 -0.13156031324E+03  0.13606514857E+03  0.00000000000E+00 0. -1.
</event>
<event>
 7    1  0.3107029E-009  0.1174860E+03  0.7561462E-02  0.1247303E+00
         -2   -1    0    0    0  501 -0.00000000000E+00  0.00000000000E+00  0.45969499358E+02  0.45969499358E+02  0.00000000000E+00 0.  1.
          2   -1    0    0  501    0  0.00000000000E+00 -0.00000000000E+00 -0.40566369699E+03  0.40566369699E+03  0.00000000000E+00 0. -1.
         25    2    1    2    0    0 -0.12598774369E+02 -0.54092825748E+02 -0.95522879763E+02  0.16690369886E+03  0.12508981263E+03 0.  0.
          5    1    3    3  502    0  0.44709170482E+01 -0.92518620785E+02 -0.77979579077E+02  0.12115267824E+03  0.41800000000E+01 0. -1.
         -5    1    3    3    0  502 -0.17069691417E+02  0.38425795037E+02 -0.17543300686E+02  0.45751020626E+02  0.41800000000E+01 0. -1.
        -11    1    1    2    0    0 -0.35517305957E+02  0.28237570877E+02 -0.16911859052E+03  0.17509979181E+03  0.00000000000E+00 0. -1.
         11    1    1    2    0    0  0.48116080326E+02  0.25855254871E+02 -0.95052727346E+02  0.10962970567E+03  0.00000000000E+00 0.  1.
</event>
<event>
 7    1  0.2899775E-009  0.1342746E+03  0.7561462E-02  0.1221247E+00
         -1   -1    0    0    0  501 -0.00000000000E+00  0.00000000000E+00  0.36091403075E+02  0.36091403075E+02  0.00000000000E+00 0. -1.
          1   -1    0    0  501    0  0.00000000000E+00 -0.00000000000E+00 -0.88377521472E+03  0.88377521472E+03  0.00000000000E+00 0.  1.
         25    2    1    2    0    0 -0.50834323239E+02  0.90524713090E+02 -0.69517028545E+03  0.71392550710E+03  0.12509617023E+03 0.  0.
          5    1    3    3  502    0 -0.14399475122E+02  0.92246822657E+02 -0.64511384347E+03  0.65184826809E+03  0.41800000000E+01 0.  1.
         -5    1    3    3    0  502 -0.36434848117E+02 -0.17221095664E+01 -0.50056441978E+02  0.62077239002E+02  0.41800000000E+01 0.  1.
        -11    1    1    2    0    0 -0.21863320566E+02 -0.51318549805E+02 -0.62751966182E+02  0.83960750354E+02  0.00000000000E+00 0. -1.
         11    1    1    2    0    0  0.72697643805E+02 -0.39206163285E+02 -0.89761560010E+02  0.12198036034E+03  0.00000000000E+00 0.  1.
</event>
<event>
 7    1  0.2899775E-009  0.9555978E+02  0.7561462E-02  0.1289920E+00
          1   -1    0    0  501    0  0.00000000000E+00  0.00000000000E+00  0.29189264891E+03  0.29189264891E+03  0.00000000000E+00 0. -1.
         -1   -1    0    0    0  501 -0.00000000000E+00 -0.00000000000E+00 -0.11535230407E+03  0.11535230407E+03  0.00000000000E+00 0.  1.
         25    2    1    2    0    0 -0.10144320808E+02  0.41479750945E+02  0.24833752843E+03  0.28132423012E+03  0.12509323501E+03 0.  0.
          5    1    3    3  502    0  0.28636856481E+02  0.59352451361E+02  0.63636609527E+02  0.91705362459E+02  0.41800000000E+01 0. -1.
         -5    1    3    3    0  502 -0.38781177289E+02 -0.17872700415E+02  0.18470091890E+03  0.18961886767E+03  0.41800000000E+01 0. -1.
        -11    1    1    2    0    0  0.17464296859E+02 -0.59882212808E+02 -0.82485816698E+02  0.10341562277E+03  0.00000000000E+00 0. -1.
         11    1    1    2    0    0 -0.73199760503E+01  0.18402461863E+02  0.10688633110E+02  0.22505100083E+02  0.00000000000E+00 0.  1.
</event>
<event>
 7    1  0.2899775E-009  0.5450076E+03  0.7561462E-02  0.1002656E+00
         -1   -1    0    0    0  501 -0.00000000000E+00  0.00000000000E+00  0.12904176281E+04  0.12904176281E+04  0.00000000000E+00 0.  1.
          1   -1    0    0  501    0  0.00000000000E+00 -0.00000000000E+00 -0.33331874857E+03  0.33331874857E+03  0.00000000000E+00 0. -1.
         25    2    1    2    0    0 -0.53640222570E+03  0.38832265731E+01  0.92793685299E+03  0.10791024774E+04  0.12511165566E+03 0.  0.
          5    1    3    3  502    0 -0.34217728851E+03 -0.48533484712E+02  0.64712634642E+03  0.73364213111E+03  0.41800000000E+01 0.  1.
         -5    1    3    3    0  502 -0.19422493720E+03  0.52416711285E+02  0.28081050657E+03  0.34546034628E+03  0.41800000000E+01 0.  1.
        -11    1    1    2    0    0  0.11250287194E+03  0.34141686015E+02 -0.49018211028E+01  0.11767148665E+03  0.00000000000E+00 0. -1.
         11    1    1    2    0    0  0.42389935376E+03 -0.38024912589E+02  0.34063847654E+02  0.42696241265E+03  0.00000000000E+00 0.  1.
</event>
<event>
 7    1  0.2899775E-009  0.1063714E+03  0.7561462E-02  0.1267441E+00
         -1   -1    0    0    0  501 -0.00000000000E+00  0.00000000000E+00  0.35594931613E+02  0.35594931613E+02  0.00000000000E+00 0.  1.
          1   -1    0    0  501    0  0.00000000000E+00 -0.00000000000E+00 -0.38784895435E+03  0.38784895435E+03  0.00000000000E+00 0. -1.
         25    2    1    2    0    0 -0.28593545949E+02  0.76575795081E+01 -0.26505319836E+03  0.29459081844E+03  0.12511723682E+03 0.  0.
          5    1    3    3  502    0  0.15562984345E+02  0.57538591151E+02 -0.99146010053E+02  0.11575966337E+03  0.41800000000E+01 0. -1.
         -5    1    3    3    0  502 -0.44156530294E+02 -0.49881011643E+02 -0.16590718831E+03  0.17883115507E+03  0.41800000000E+01 0. -1.
        -11    1    1    2    0    0  0.56472909830E+02 -0.12766406818E+02 -0.81450986358E+02  0.99932146312E+02  0.00000000000E+00 0.  1.
         11    1    1    2    0    0 -0.27879363881E+02  0.51088273101E+01 -0.57498380187E+01  0.28920921218E+02  0.00000000000E+00 0. -1.
</event>
<event>
 7    1  0.2899775E-009  0.1459226E+03  0.7561462E-02  0.1205575E+00
          2   -1    0    0  501    0  0.00000000000E+00  0.00000000000E+00  0.51525632308E+03  0.51525632308E+03  0.00000000000E+00 0.  1.
         -2   -1    0    0    0  501 -0.00000000000E+00 -0.00000000000E+00 -0.93630441001E+02  0.93630441001E+02  0.00000000000E+00 0. -1.
         25    2    1    2    0    0  0.89544849131E+02 -0.10097110024E+03  0.21469041979E+02  0.18526419008E+03  0.12509379390E+03 0.  0.
          5    1    3    3  502    0  0.59239794834E+02 -0.10811166305E+03  0.58655394815E+02  0.13658481878E+03  0.41800000000E+01 0. -1.
         -5    1    3    3    0  502  0.30305054297E+02  0.71405628099E+01 -0.37186352835E+02  0.48679371302E+02  0.41800000000E+01 0. -1.
        -11    1    1    2    0    0 -0.68642961333E+02  0.60356273657E+02  0.23155217214E+03  0.24894004164E+03  0.00000000000E+00 0. -1.
         11    1    1    2    0    0 -0.20901887798E+02  0.40614826588E+02  0.16860466797E+03  0.17468253236E+03  0.00000000000E+00 0.  1.
</event>
<event>
 7    1  0.2899775E-009  0.1392309E+03  0.7561462E-02  0.1214368E+00
         -1   -1    0    0    0  501 -0.00000000000E+00  0.00000000000E+00  0.30351835746E+02  0.30351835746E+02  0.00000000000E+00 0.  1.
          1   -1    0    0  501    0  0.00000000000E+00 -0.00000000000E+00 -0.67015667987E+03  0.67015667987E+03  0.00000000000E+00 0. -1.
         25    2    1    2    0    0  0.99535045231E+01  0.18161710439E+00 -0.21592143672E+03  0.24973551756E+03  0.12508659663E+03 0.  0.
          5    1    3    3  502    0 -0.37598560279E+02 -0.45604526330E+02 -0.97442161021E+02  0.11404328872E+03  0.41800000000E+01 0. -1.
         -5    1    3    3    0  502  0.47552064802E+02  0.45786143434E+02 -0.11847927570E+03  0.13569222884E+03  0.41800000000E+01 0. -1.
        -11    1    1    2    0    0  0.69073000979E+02 -0.19379129036E+02 -0.21265898151E+03  0.22443367065E+03  0.00000000000E+00 0.  1.
         11    1    1    2    0    0 -0.79026505502E+02  0.19197511931E+02 -0.21122442590E+03  0.22633932741E+03  0.00000000000E+00 0. -1.
</event>
<event>
 7    1  0.2899775E-009  0.1100232E+03  0.7561462E-02  0.1260527E+00
          2   -1    0    0  501    0  0.00000000000E+00  0.00000000000E+00  0.48005307111E+03  0.48005307111E+03  0.00000000000E+00 0. -1.
         -2   -1    0    0    0  501 -0.00000000000E+00 -0.00000000000E+00 -0.39228283009E+02  0.39228283009E+02  0.00000000000E+00 0.  1.
         25    2    1    2    0    0  0.31335583094E+02 -0.36125725198E+02  0.11056714691E+03  0.17366342268E+03  0.12508758376E+03 0.  0.
          5    1    3    3  502    0  0.21274496891E+02  0.46111289354E+02  0.42980522465E+02  0.66660730083E+02  0.41800000000E+01 0.  1.
         -5    1    3    3    0  502  0.10061086203E+02 -0.82237014552E+02  0.67586624447E+02  0.10700269259E+03  0.41800000000E+01 0.  1.
        -11    1    1    2    0    0  0.15315496035E+02 -0.11740199067E+02  0.18350512706E+02  0.26629645313E+02  0.00000000000E+00 0.  1.
         11    1    1    2    0    0 -0.46651079129E+02  0.47865924266E+02  0.31190712848E+03  0.31898828613E+03  0.00000000000E+00 0. -1.
</event>
<event>
 7    1  0.2899775E-009  0.1097128E+03  0.7561462E-02  0.1261103E+00
         -1   -1    0    0    0  501 -0.00000000000E+00  0.00000000000E+00  0.39824625641E+02  0.39824625641E+02  0.00000000000E+00 0.  1.
          1   -1    0    0  501    0  0.00000000000E+00 -0.00000000000E+00 -0.46374517413E+03  0.46374517413E+03  0.00000000000E+00 0. -1.
         25    2    1    2    0    0 -0.19063910591E+02 -0.80638464769E+02 -0.24492361345E+03  0.28722983138E+03  0.12508958759E+03 0.  0.
          5    1    3    3  502    0 -0.31733096714E+02 -0.98376445640E+02 -0.24398907233E+03  0.26501519636E+03  0.41800000000E+01 0. -1.
         -5    1    3    3    0  502  0.12669186122E+02  0.17737980871E+02 -0.93454112344E+00  0.22214635029E+02  0.41800000000E+01 0. -1.
        -11    1    1    2    0    0 -0.35342964677E+01  0.67592025519E+02 -0.48518608504E+02  0.83278019527E+02  0.00000000000E+00 0. -1.
         11    1    1    2    0    0  0.22598207059E+02  0.13046439250E+02 -0.13047832654E+03  0.13306194886E+03  0.00000000000E+00 0.  1.
</event>
<event>
 7    1  0.2899775E-009  0.8193946E+02  0.7561462E-02  0.1323636E+00
         -2   -1    0    0    0  501 -0.00000000000E+00  0.00000000000E+00  0.52442238397E+02  0.52442238397E+02  0.00000000000E+00 0.  1.
          2   -1    0    0  501    0  0.00000000000E+00 -0.00000000000E+00 -0.33005134581E+03  0.33005134581E+03  0.00000000000E+00 0. -1.
         25    2    1    2    0    0 -0.28687046699E+02  0.68757920404E+02 -0.16184566996E+03  0.21772609662E+03  0.12514005753E+03 0.  0.
          5    1    3    3  502    0  0.41212157759E+01  0.62250104492E+01  0.20459826225E+02  0.22176836197E+02  0.41800000000E+01 0. -1.
         -5    1    3    3    0  502 -0.32808262475E+02  0.62532909955E+02 -0.18230549618E+03  0.19554926042E+03  0.41800000000E+01 0. -1.
        -11    1    1    2    0    0  0.29621744948E+02 -0.19832556527E+02  0.35351731370E+01  0.35822835193E+02  0.00000000000E+00 0.  1.
         11    1    1    2    0    0 -0.93469824864E+00 -0.48925363877E+02 -0.11929861060E+03  0.12894465240E+03  0.00000000000E+00 0. -1.
</event>
<event>
 7    1  0.2899775E-009  0.1664940E+03  0.7561462E-02  0.1181554E+00
         -2   -1    0    0    0  501 -0.00000000000E+00  0.00000000000E+00  0.29948912260E+03  0.29948912260E+03  0.00000000000E+00 0.  1.
          2   -1    0    0  501    0  0.00000000000E+00 -0.00000000000E+00 -0.11277909813E+03  0.11277909813E+03  0.00000000000E+00 0. -1.
         25    2    1    2    0    0  0.82673510624E+02 -0.11806252949E+03  0.60918778690E+02  0.20033121997E+03  0.12509128615E+03 0.  0.
          5    1    3    3  502    0 -0.16663897300E+02  0.12212421927E+02 -0.80037720079E+01  0.22546873151E+02  0.41800000000E+01 0.  1.
         -5    1    3    3    0  502  0.99337407924E+02 -0.13027495142E+03  0.68922550698E+02  0.17778434682E+03  0.41800000000E+01 0.  1.
        -11    1    1    2    0    0 -0.29165972952E+02  0.71044666710E+02  0.12057763813E+02  0.77739232787E+02  0.00000000000E+00 0. -1.
         11    1    1    2    0    0 -0.53507537671E+02  0.47017862780E+02  0.11373348197E+03  0.13419776797E+03  0.00000000000E+00 0.  1.
</event>
<event>
 7    1  0.2899775E-009  0.1053641E+03  0.7561462E-02  0.1269404E+00
         -3   -1    0    0    0  501 -0.00000000000E+00  0.00000000000E+00  0.14240763559E+03  0.14240763559E+03  0.00000000000E+00 0.  1.
          3   -1    0    0  501    0  0.00000000000E+00 -0.00000000000E+00 -0.16807821140E+03  0.16807821140E+03  0.00000000000E+00 0. -1.
         25    2    1    2    0    0  0.70712220322E+02  0.27769639375E+02 -0.93325464236E+02  0.17357863158E+03  0.12509407697E+03 0.  0.
          5    1    3    3  502    0  0.20282319522E+02 -0.18090405072E+02  0.24867685329E+02  0.37074376791E+02  0.41800000000E+01 0. -1.
         -5    1    3    3    0  502  0.50429900800E+02  0.45860044447E+02 -0.11819314957E+03  0.13650425479E+03  0.41800000000E+01 0. -1.
        -11    1    1    2    0    0 -0.91046169168E+02 -0.20343185792E+02  0.39294408865E+02  0.10122895187E+03  0.00000000000E+00 0. -1.
         11    1    1    2    0    0  0.20333948846E+02 -0.74264535830E+01  0.28360479559E+02  0.35678263541E+02  0.00000000000E+00 0.  1.
</event>
<event>
 7    1  0.2899775E-009  0.1108363E+03  0.7561462E-02  0.1259029E+00
          2   -1    0    0  501    0  0.00000000000E+00  0.00000000000E+00  0.31124727762E+03  0.31124727762E+03  0.00000000000E+00 0. -1.
         -2   -1    0    0    0  501 -0.00000000000E+00 -0.00000000000E+00 -0.56514666690E+02  0.56514666690E+02  0.00000000000E+00 0.  1.
         25    2    1    2    0    0  0.42073888591E+02  0.39753750080E+02  0.20613731519E+03  0.24797398754E+03  0.12509169851E+03 0.  0.
          5    1    3    3  502    0  0.79560449163E+01 -0.45250455876E+02  0.67603594046E+02  0.81845102087E+02  0.41800000000E+01 0.  1.
         -5    1    3    3    0  502  0.34117843675E+02  0.85004205957E+02  0.13853372114E+03  0.16612888545E+03  0.41800000000E+01 0.  1.
        -11    1    1    2    0    0 -0.24154856209E+02 -0.55159404473E+02  0.66817055742E+02  0.89947406401E+02  0.00000000000E+00 0.  1.
         11    1    1    2    0    0 -0.17919032383E+02  0.15405654393E+02 -0.18221760001E+02  0.29840550370E+02  0.00000000000E+00 0. -1.
</event>
<event>
 7    1  0.2899775E-009  0.1467730E+03  0.7561462E-02  0.1204495E+00
          4   -1    0    0  501    0  0.00000000000E+00  0.00000000000E+00  0.28242005891E+03  0.28242005891E+03  0.00000000000E+00 0.  1.
         -4   -1    0    0    0  501 -0.00000000000E+00 -0.00000000000E+00 -0.12135004953E+03  0.12135004953E+03  0.00000000000E+00 0. -1.
         25    2    1    2    0    0 -0.81724613266E+02  0.61513162700E+02 -0.33546631558E+02  0.16503474066E+03  0.12509319540E+03 0.  0.
          5    1    3    3  502    0  0.26576078679E+02 -0.12864506379E+02 -0.22035347840E+01  0.29901696404E+02  0.41800000000E+01 0. -1.
         -5    1    3    3    0  502 -0.10830069194E+03  0.74377669080E+02 -0.31343096774E+02  0.13513304425E+03  0.41800000000E+01 0. -1.
        -11    1    1    2    0    0  0.95917620437E+02 -0.34813261859E+02  0.17535722672E+03  0.20288496759E+03  0.00000000000E+00 0.  1.
         11    1    1    2    0    0 -0.14193007171E+02 -0.26699900841E+02  0.19259414221E+02  0.35850400188E+02  0.00000000000E+00 0. -1.
</event>
<event>
 7    1  0.2899775E-009  0.9158745E+02  0.7561462E-02  0.1299052E+00
         -2   -1    0    0    0  501 -0.00000000000E+00  0.00000000000E+00  0.14849097619E+03  0.14849097619E+03  0.00000000000E+00 0.  1.
          2   -1    0    0  501    0  0.00000000000E+00 -0.00000000000E+00 -0.22568623727E+03  0.22568623727E+03  0.00000000000E+00 0. -1.
         25    2    1    2    0    0 -0.28574699648E+02 -0.45311929526E+02 -0.17626972230E+03  0.22268537723E+03  0.12509227720E+03 0.  0.
          5    1    3    3  502    0  0.34336750821E+02 -0.69545877202E+01 -0.13197969472E+03  0.13661438785E+03  0.41800000000E+01 0.  1.
         -5    1    3    3    0  502 -0.62911450470E+02 -0.38357341806E+02 -0.44290027579E+02  0.86070989384E+02  0.41800000000E+01 0.  1.
        -11    1    1    2    0    0 -0.66923767808E+01  0.37339286212E+02  0.10781458189E+03  0.11429345681E+03  0.00000000000E+00 0.  1.
         11    1    1    2    0    0  0.35267076429E+02  0.79726433139E+01 -0.87401206745E+01  0.37198379409E+02  0.00000000000E+00 0. -1.
</event>
<event>
 7    1  0.2899775E-009  0.1040004E+03  0.7561462E-02  0.1272102E+00
         -3   -1    0    0    0  501 -0.00000000000E+00  0.00000000000E+00  0.10788192080E+03  0.10788192080E+03  0.00000000000E+00 0.  1.
          3   -1    0    0  501    0  0.00000000000E+00 -0.00000000000E+00 -0.13335750572E+03  0.13335750572E+03  0.00000000000E+00 0. -1.
         25    2    1    2    0    0 -0.43506743667E+02  0.23304610744E+02 -0.25528970266E+02  0.13687398220E+03  0.12508723778E+03 0.  0.
          5    1    3    3  502    0 -0.72589571863E+02  0.18339008999E+02  0.24290470001E+02  0.78822994914E+02  0.41800000000E+01 0.  1.
         -5    1    3    3    0  502  0.29082828196E+02  0.49656017453E+01 -0.49819440267E+02  0.58050987288E+02  0.41800000000E+01 0.  1.
        -11    1    1    2    0    0  0.90003338407E+01  0.34631513822E+02  0.73798104736E+01  0.36535042924E+02  0.00000000000E+00 0.  1.
         11    1    1    2    0    0  0.34506409826E+02 -0.57936124566E+02 -0.73264251217E+01  0.67830401398E+02  0.00000000000E+00 0. -1.
</event>
<event>
 7    1  0.2899775E-009  0.1051578E+03  0.7561462E-02  0.1269809E+00
         -2   -1    0    0    0  501 -0.00000000000E+00  0.00000000000E+00  0.15204700215E+02  0.15204700215E+02  0.00000000000E+00 0.  1.
          2   -1    0    0  501    0  0.00000000000E+00 -0.00000000000E+00 -0.11027247540E+04  0.11027247540E+04  0.00000000000E+00 0. -1.
         25    2    1    2    0    0  0.25664486020E+01  0.65908562545E+02 -0.82958899030E+03  0.84155556402E+03  0.12508936500E+03 0.  0.
          5    1    3    3  502    0 -0.53081136193E+02 -0.18210948818E+00 -0.38105418874E+03  0.38475629604E+03  0.41800000000E+01 0. -1.
         -5    1    3    3    0  502  0.55647584795E+02  0.66090672033E+02 -0.44853480155E+03  0.45679926798E+03  0.41800000000E+01 0. -1.
        -11    1    1    2    0    0 -0.11617541279E+02 -0.15579716314E+02 -0.75906843047E+01  0.20864163391E+02  0.00000000000E+00 0.  1.
         11    1    1    2    0    0  0.90510926767E+01 -0.50328846231E+02 -0.25034037916E+03  0.25550972678E+03  0.00000000000E+00 0. -1.
</event>
<event>
 7    1  0.2899775E-009  0.1227837E+03  0.7561462E-02  0.1238574E+00
          2   -1    0    0  501    0  0.00000000000E+00  0.00000000000E+00  0.33177277297E+03  0.33177277297E+03  0.00000000000E+00 0. -1.
         -2   -1    0    0    0  501 -0.00000000000E+00 -0.00000000000E+00 -0.75868457685E+02  0.75868457685E+02  0.00000000000E+00 0.  1.
         25    2    1    2    0    0  0.27148026604E+02 -0.80821293931E+02  0.23942258681E+03  0.28326782519E+03  0.12509352027E+03 0.  0.
          5    1    3    3  502    0 -0.30948998356E+02 -0.84532992007E+02  0.11735077235E+03  0.14796061438E+03  0.41800000000E+01 0.  1.
         -5    1    3    3    0  502  0.58097024960E+02  0.37116980754E+01  0.12207181446E+03  0.13530721081E+03  0.41800000000E+01 0.  1.
        -11    1    1    2    0    0 -0.14729274012E+02 -0.58088915223E+00 -0.27365339386E+02  0.31082965509E+02  0.00000000000E+00 0.  1.
         11    1    1    2    0    0 -0.12418752593E+02  0.81402183083E+02  0.43847067857E+02  0.93290439952E+02  0.00000000000E+00 0. -1.
</event>
<event>
 7    1  0.2899775E-009  0.2519884E+03  0.7561462E-02  0.1112055E+00
         -1   -1    0    0    0  501 -0.00000000000E+00  0.00000000000E+00  0.15270967279E+03  0.15270967279E+03  0.00000000000E+00 0.  1.
          1   -1    0    0  501    0  0.00000000000E+00 -0.00000000000E+00 -0.61273753709E+03  0.61273753709E+03  0.00000000000E+00 0. -1.
         25    2    1    2    0    0 -0.22533497885E+03 -0.11190462102E+03 -0.64594570433E+02  0.28830327920E+03  0.12509126816E+03 0.  0.
          5    1    3    3  502    0 -0.15088345817E+03 -0.83719800698E+02 -0.10173820325E+03  0.20035707469E+03  0.41800000000E+01 0.  1.
         -5    1    3    3    0  502 -0.74451520673E+02 -0.28184820325E+02  0.37143632821E+02  0.87946204502E+02  0.41800000000E+01 0.  1.
        -11    1    1    2    0    0  0.51442610810E+02  0.28200901443E+02 -0.35046738156E+02  0.68336717104E+02  0.00000000000E+00 0.  1.
         11    1    1    2    0    0  0.17389236804E+03  0.83703719579E+02 -0.36038655572E+03  0.40880721358E+03  0.00000000000E+00 0. -1.
</event>
<event>
 7    1  0.2899775E-009  0.1467461E+03  0.7561462E-02  0.1204529E+00
          2   -1    0    0  501    0  0.00000000000E+00  0.00000000000E+00  0.53850726032E+02  0.53850726032E+02  0.00000000000E+00 0. -1.
         -2   -1    0    0    0  501 -0.00000000000E+00 -0.00000000000E+00 -0.41902038773E+03  0.41902038773E+03  0.00000000000E+00 0.  1.
         25    2    1    2    0    0 -0.37450020225E+02 -0.96646076885E+02 -0.18547104333E+03  0.24654327661E+03  0.12506442794E+03 0.  0.
          5    1    3    3  502    0 -0.69448269003E+02 -0.11480955099E+02 -0.68617137433E+02  0.98390336655E+02  0.41800000000E+01 0. -1.
         -5    1    3    3    0  502  0.31998248778E+02 -0.85165121786E+02 -0.11685390590E+03  0.14815293996E+03  0.41800000000E+01 0. -1.
        -11    1    1    2    0    0 -0.11655503965E+02 -0.94429436527E+01 -0.47707527428E+02  0.50010280251E+02  0.00000000000E+00 0.  1.
         11    1    1    2    0    0  0.49105524190E+02  0.10608902054E+03 -0.13199109094E+03  0.17631755690E+03  0.00000000000E+00 0. -1.
</event>
<event>
 7    1  0.2899775E-009  0.1377632E+03  0.7561462E-02  0.1216371E+00
          2   -1    0    0  501    0  0.00000000000E+00  0.00000000000E+00  0.11407010996E+04  0.11407010996E+04  0.00000000000E+00 0.  1.
         -2   -1    0    0    0  501 -0.00000000000E+00 -0.00000000000E+00 -0.20804508160E+02  0.20804508160E+02  0.00000000000E+00 0. -1.
         25    2    1    2    0    0  0.10082432120E+03 -0.38749324708E+02  0.78147218212E+03  0.79875705821E+03  0.12508801980E+03 0.  0.
          5    1    3    3  502    0  0.48770584639E+02 -0.71380307484E+02  0.61873407577E+03  0.62475839101E+03  0.41800000000E+01 0.  1.
         -5    1    3    3    0  502  0.52053736557E+02  0.32630982775E+02  0.16273810635E+03  0.17399866719E+03  0.41800000000E+01 0.  1.
        -11    1    1    2    0    0 -0.74607647103E+02  0.58306842467E+02  0.28267445958E+03  0.29811212485E+03  0.00000000000E+00 0. -1.
         11    1    1    2    0    0 -0.26216674094E+02 -0.19557517758E+02  0.55749949691E+02  0.64636424653E+02  0.00000000000E+00 0.  1.
</event>
<event>
 7    1  0.2899775E-009  0.1219478E+03  0.7561462E-02  0.1239918E+00
         -1   -1    0    0    0  501 -0.00000000000E+00  0.00000000000E+00  0.11324673839E+03  0.11324673839E+03  0.00000000000E+00 0.  1.
          1   -1    0    0  501    0  0.00000000000E+00 -0.00000000000E+00 -0.16647792469E+03  0.16647792469E+03  0.00000000000E+00 0. -1.
         25    2    1    2    0    0 -0.43004030663E+02 -0.66866585398E+02 -0.21271074635E+01  0.14823376627E+03  0.12509291739E+03 0.  0.
          5    1    3    3  502    0  0.28515021714E+02 -0.87352657898E+00  0.33789127032E+02  0.44418993883E+02  0.41800000000E+01 0.  1.
         -5    1    3    3    0  502 -0.71519052377E+02 -0.65993058819E+02 -0.35916234495E+02  0.10381477239E+03  0.41800000000E+01 0.  1.
        -11    1    1    2    0    0  0.65958658156E+01  0.79005336572E+02 -0.48687054688E+02  0.93036433439E+02  0.00000000000E+00 0.  1.
         11    1    1    2    0    0  0.36408164848E+02 -0.12138751174E+02 -0.24170241498E+01  0.38454463374E+02  0.00000000000E+00 0. -1.
</event>
<event>
 7    1  0.2899775E-009  0.1084649E+03  0.7561462E-02  0.1263439E+00
          1   -1    0    0  501    0  0.00000000000E+00  0.00000000000E+00  0.24209299115E+03  0.24209299115E+03  0.00000000000E+00 0. -1.
         -1   -1    0    0    0  501 -0.00000000000E+00 -0.00000000000E+00 -0.69012690437E+02  0.69012690437E+02  0.00000000000E+00 0.  1.
         25    2    1    2    0    0  0.18707170315E+02 -0.21316580861E+02  0.16981437785E+02  0.12938037168E+03  0.12508619631E+03 0.  0.
          5    1    3    3  502    0 -0.20182396131E+02 -0.65473124293E+02  0.15521174076E+02  0.70373562955E+02  0.41800000000E+01 0. -1.
         -5    1    3    3    0  502  0.38889566446E+02  0.44156543433E+02  0.14602637087E+01  0.59006808729E+02  0.41800000000E+01 0. -1.
        -11    1    1    2    0    0  0.33667005060E+02  0.29368347691E+01  0.85381280213E+02  0.91826223046E+02  0.00000000000E+00 0.  1.
         11    1    1    2    0    0 -0.52374175375E+02  0.18379746092E+02  0.70717582714E+02  0.89899086855E+02  0.00000000000E+00 0. -1.
</event>
<event>
 7    1  0.2899775E-009  0.8445560E+02  0.7561462E-02  0.1316862E+00
         -2   -1    0    0    0  501 -0.00000000000E+00  0.00000000000E+00  0.55269152023E+02  0.55269152023E+02  0.00000000000E+00 0.  1.
          2   -1    0    0  501    0  0.00000000000E+00 -0.00000000000E+00 -0.23722635463E+03  0.23722635463E+03  0.00000000000E+00 0. -1.
         25    2    1    2    0    0 -0.34110163652E+02 -0.10002430157E+02 -0.11274163074E+03  0.17209763552E+03  0.12507345432E+03 0.  0.
          5    1    3    3  502    0  0.36388730121E+02  0.30858531916E+02 -0.49394546407E+02  0.68801760781E+02  0.41800000000E+01 0.  1.
         -5    1    3    3    0  502 -0.70498893774E+02 -0.40860962073E+02 -0.63347084333E+02  0.10329587474E+03  0.41800000000E+01 0.  1.
        -11    1    1    2    0    0  0.19748320139E+02  0.14359616478E+02  0.18985094331E+02  0.30929412223E+02  0.00000000000E+00 0.  1.
         11    1    1    2    0    0  0.14361843513E+02 -0.43571863212E+01 -0.88200666195E+02  0.89468458906E+02  0.00000000000E+00 0. -1.
</event>
<event>
 7    1  0.2899775E-009  0.1659524E+03  0.7561462E-02  0.1182136E+00
         -2   -1    0    0    0  501 -0.00000000000E+00  0.00000000000E+00  0.37501497256E+02  0.37501497256E+02  0.00000000000E+00 0.  1.
          2   -1    0    0  501    0  0.00000000000E+00 -0.00000000000E+00 -0.82746655461E+03  0.82746655461E+03  0.00000000000E+00 0. -1.
         25    2    1    2    0    0  0.13146540668E+03 -0.86022513148E+01 -0.31567042522E+03  0.36421806308E+03  0.12509927354E+03 0.  0.
          5    1    3    3  502    0  0.12960011628E+03 -0.46693542285E+02 -0.20442719854E+03  0.24654498360E+03  0.41800000000E+01 0. -1.
         -5    1    3    3    0  502  0.18652903948E+01  0.38091290970E+02 -0.11124322667E+03  0.11767307949E+03  0.41800000000E+01 0. -1.
        -11    1    1    2    0    0 -0.37782763712E+02 -0.35798784061E+02 -0.22128802257E+03  0.22732681123E+03  0.00000000000E+00 0. -1.
         11    1    1    2    0    0 -0.93682642963E+02  0.44401035375E+02 -0.25300660957E+03  0.27342317755E+03  0.00000000000E+00 0.  1.
</event>
<event>
 7    1  0.2899775E-009  0.1199397E+03  0.7561462E-02  0.1243197E+00
          1   -1    0    0  501    0  0.00000000000E+00  0.00000000000E+00  0.71291566028E+03  0.71291566028E+03  0.00000000000E+00 0. -1.
         -1   -1    0    0    0  501 -0.00000000000E+00 -0.00000000000E+00 -0.24477643324E+02  0.24477643324E+02  0.00000000000E+00 0.  1.
         25    2    1    2    0    0 -0.44227273030E+02 -0.52190882202E+02  0.47426231634E+03  0.49523007636E+03  0.12509254164E+03 0.  0.
          5    1    3    3  502    0 -0.77949180082E+02 -0.56738498566E+02  0.24334229343E+03  0.26177905964E+03  0.41800000000E+01 0.  1.
         -5    1    3    3    0  502  0.33721907052E+02  0.45476163641E+01  0.23092002291E+03  0.23345101672E+03  0.41800000000E+01 0.  1.
        -11    1    1    2    0    0 -0.25773630566E+02  0.15152969769E+02  0.33551487715E+02  0.44939902684E+02  0.00000000000E+00 0.  1.
         11    1    1    2    0    0  0.70000903596E+02  0.37037912433E+02  0.18062421291E+03  0.19722332456E+03  0.00000000000E+00 0. -1.
</event>
<event>
 7    1  0.2899775E-009  0.7738437E+02  0.7561462E-02  0.1336642E+00
          1   -1    0    0  501    0  0.00000000000E+00  0.00000000000E+00  0.46638368360E+03  0.46638368360E+03  0.00000000000E+00 0. -1.
         -1   -1    0    0    0  501 -0.00000000000E+00 -0.00000000000E+00 -0.32678062210E+02  0.32678062210E+02  0.00000000000E+00 0.  1.
         25    2    1    2    0    0 -0.47817298403E+02  0.35755299693E+02  0.22141649094E+03  0.26122367914E+03  0.12509041771E+03 0.  0.
          5    1    3    3  502    0 -0.33098325139E+02  0.16202020788E+02  0.23148077486E+03  0.23443298858E+03  0.41800000000E+01 0. -1.
         -5    1    3    3    0  502 -0.14718973264E+02  0.19553278905E+02 -0.10064283923E+02  0.26790690562E+02  0.41800000000E+01 0. -1.
        -11    1    1    2    0    0  0.23636490521E+01  0.20439886579E+02  0.97112713667E+01  0.22752683177E+02  0.00000000000E+00 0.  1.
         11    1    1    2    0    0  0.45453649351E+02 -0.56195186272E+02  0.20257785909E+03  0.21508538349E+03  0.00000000000E+00 0. -1.
</event>
<event>
 7    1  0.2899775E-009  0.1662144E+03  0.7561462E-02  0.1181854E+00
         -2   -1    0    0    0  501 -0.00000000000E+00  0.00000000000E+00  0.69217032382E+02  0.69217032382E+02  0.00000000000E+00 0.  1.
          2   -1    0    0  501    0  0.00000000000E+00 -0.00000000000E+00 -0.60655650532E+03  0.60655650532E+03  0.00000000000E+00 0. -1.
         25    2    1    2    0    0  0.83876840306E+02 -0.14090969436E+03 -0.37231553024E+03  0.42562288411E+03  0.12508045058E+03 0.  0.
          5    1    3    3  502    0  0.32462746587E+02 -0.23864497384E+02 -0.23300143323E+03  0.23649626728E+03  0.41800000000E+01 0.  1.
         -5    1    3    3    0  502  0.51414093719E+02 -0.11704519697E+03 -0.13931409701E+03  0.18912661682E+03  0.41800000000E+01 0.  1.
        -11    1    1    2    0    0 -0.49739490433E+02  0.86529416338E+02 -0.36120964766E+02  0.10614179618E+03  0.00000000000E+00 0. -1.
         11    1    1    2    0    0 -0.34137349873E+02  0.54380278017E+02 -0.12890297794E+03  0.14400885742E+03  0.00000000000E+00 0.  1.
</event>
<event>
 7    1  0.2899775E-009  0.2097012E+03  0.7561462E-02  0.1141803E+00
         -1   -1    0    0    0  501 -0.00000000000E+00  0.00000000000E+00  0.40001844639E+02  0.40001844639E+02  0.00000000000E+00 0.  1.
          1   -1    0    0  501    0  0.00000000000E+00 -0.00000000000E+00 -0.12110155418E+04  0.12110155418E+04  0.00000000000E+00 0. -1.
         25    2    1    2    0    0  0.19017900328E+03 -0.18207366894E+02 -0.61915223481E+03  0.65991866813E+03  0.12507436661E+03 0.  0.
          5    1    3    3  502    0  0.19397595202E+03 -0.46250675738E+02 -0.52997655756E+03  0.56626709152E+03  0.41800000000E+01 0.  1.
         -5    1    3    3    0  502 -0.37969487331E+01  0.28043308845E+02 -0.89175677246E+02  0.93651576617E+02  0.41800000000E+01 0.  1.
        -11    1    1    2    0    0 -0.16314221536E+03  0.19300692478E+02 -0.53394527259E+03  0.55864608947E+03  0.00000000000E+00 0. -1.
         11    1    1    2    0    0 -0.27036787925E+02 -0.10933255841E+01 -0.17916189744E+02  0.32452628816E+02  0.00000000000E+00 0.  1.
</event>
<event>
 7    1  0.2899775E-009  0.7639108E+02  0.7561462E-02  0.1339617E+00
          2   -1    0    0  501    0  0.00000000000E+00  0.00000000000E+00  0.11978380556E+04  0.11978380556E+04  0.00000000000E+00 0.  1.
         -2   -1    0    0    0  501 -0.00000000000E+00 -0.00000000000E+00 -0.10407203495E+02  0.10407203495E+02  0.00000000000E+00 0. -1.
         25    2    1    2    0    0  0.51158198521E+01  0.28571541962E+02  0.70333373019E+03  0.71495996049E+03  0.12508758713E+03 0.  0.
          5    1    3    3  502    0 -0.94001676538E+01  0.39700207879E+02  0.69163322509E+03  0.69284807866E+03  0.41800000000E+01 0. -1.
         -5    1    3    3    0  502  0.14515987506E+02 -0.11128665917E+02  0.11700505105E+02  0.22111881830E+02  0.41800000000E+01 0. -1.
        -11    1    1    2    0    0 -0.34909063295E+02  0.16790428895E+02  0.15647703109E+03  0.16120056595E+03  0.00000000000E+00 0. -1.
         11    1    1    2    0    0  0.29793243443E+02 -0.45361970856E+02  0.32762009081E+03  0.33208473265E+03  0.00000000000E+00 0.  1.
</event>
<event>
 7    1  0.2899775E-009  0.1195064E+03  0.7561462E-02  0.1243914E+00
          1   -1    0    0  501    0  0.00000000000E+00  0.00000000000E+00  0.31903287772E+03  0.31903287772E+03  0.00000000000E+00 0. -1.
         -1   -1    0    0    0  501 -0.00000000000E+00 -0.00000000000E+00 -0.58634416187E+02  0.58634416187E+02  0.00000000000E+00 0.  1.
         25    2    1    2    0    0  0.66564916034E+02  0.85046283639E+00  0.76230973136E+02  0.16090145160E+03  0.12508598854E+03 0.  0.
          5    1    3    3  502    0  0.26855977118E+02 -0.52293297798E+02 -0.10779293108E+01  0.58944608177E+02  0.41800000000E+01 0. -1.
         -5    1    3    3    0  502  0.39708938916E+02  0.53143760634E+02  0.77308902446E+02  0.10195684343E+03  0.41800000000E+01 0. -1.
        -11    1    1    2    0    0 -0.89175869667E+02  0.75271272065E+01  0.13447258087E+03  0.16152977552E+03  0.00000000000E+00 0.  1.
         11    1    1    2    0    0  0.22610953633E+02 -0.83775900429E+01  0.49694907534E+02  0.55236066786E+02  0.00000000000E+00 0. -1.
</event>
<event>
 7    1  0.2899775E-009  0.3393123E+03  0.7561462E-02  0.1067089E+00
         -2   -1    0    0    0  501 -0.00000000000E+00  0.00000000000E+00  0.12887658368E+03  0.12887658368E+03  0.00000000000E+00 0.  1.
          2   -1    0    0  501    0  0.00000000000E+00 -0.00000000000E+00 -0.12406923406E+04  0.12406923406E+04  0.00000000000E+00 0. -1.
         25    2    1    2    0    0 -0.31027375766E+03 -0.12487088731E+03 -0.88756629058E+03  0.95670371352E+03  0.12508210143E+03 0.  0.
          5    1    3    3  502    0 -0.19419253653E+03 -0.11215390914E+03 -0.43657111988E+03  0.49081672312E+03  0.41800000000E+01 0.  1.
         -5    1    3    3    0  502 -0.11608122114E+03 -0.12716978174E+02 -0.45099517069E+03  0.46588699040E+03  0.41800000000E+01 0.  1.
        -11    1    1    2    0    0  0.24323329206E+02 -0.24921502413E+01  0.48835623750E+01  0.24933598577E+02  0.00000000000E+00 0.  1.
         11    1    1    2    0    0  0.28595042846E+03  0.12736303755E+03 -0.22913302870E+03  0.38793161216E+03  0.00000000000E+00 0. -1.
</event>
<event>
 7    1  0.2899775E-009  0.1183696E+03  0.7561462E-02  0.1245811E+00
         -3   -1    0    0    0  501 -0.00000000000E+00  0.00000000000E+00  0.46467513609E+02  0.46467513609E+02  0.00000000000E+00 0.  1.
          3   -1    0    0  501    0  0.00000000000E+00 -0.00000000000E+00 -0.59238353052E+03  0.59238353052E+03  0.00000000000E+00 0. -1.
         25    2    1    2    0    0 -0.32505289723E+02  0.94348194816E+02 -0.42666485213E+03  0.45568249481E+03  0.12508183046E+03 0.  0.
          5    1    3    3  502    0 -0.55426117373E+02  0.97101036742E+02 -0.21175593941E+03  0.23949679768E+03  0.41800000000E+01 0. -1.
         -5    1    3    3    0  502  0.22920827650E+02 -0.27528419252E+01 -0.21490891272E+03  0.21618569713E+03  0.41800000000E+01 0. -1.
        -11    1    1    2    0    0  0.24987093880E+02 -0.44962382285E+02  0.25695972201E+01  0.51503140789E+02  0.00000000000E+00 0.  1.
         11    1    1    2    0    0  0.75181958435E+01 -0.49385812532E+02 -0.12182076200E+03  0.13166540853E+03  0.00000000000E+00 0. -1.
</event>
<event>
 7    1  0.2899775E-009  0.2009427E+03  0.7561462E-02  0.1148946E+00
          1   -1    0    0  501    0  0.00000000000E+00  0.00000000000E+00  0.66883451375E+03  0.66883451375E+03  0.00000000000E+00 0. -1.
         -1   -1    0    0    0  501 -0.00000000000E+00 -0.00000000000E+00 -0.78337547890E+02  0.78337547890E+02  0.00000000000E+00 0.  1.
         25    2    1    2    0    0  0.14552502946E+03 -0.10334417329E+03  0.45600060781E+03  0.50541188530E+03  0.12508823735E+03 0.  0.
          5    1    3    3  502    0  0.14850148474E+03 -0.39261215329E+02  0.32330669098E+03  0.35796483463E+03  0.41800000000E+01 0.  1.
         -5    1    3    3    0  502 -0.29764552756E+01 -0.64082957961E+02  0.13269391683E+03  0.14744705067E+03  0.41800000000E+01 0.  1.
        -11    1    1    2    0    0 -0.13211053329E+03  0.73415491428E+02  0.64238815799E+02  0.16422439784E+03  0.00000000000E+00 0.  1.
         11    1    1    2    0    0 -0.13414496170E+02  0.29928681862E+02  0.70257542249E+02  0.77535778505E+02  0.00000000000E+00 0. -1.
</event>
<event>
 7    1  0.2899775E-009  0.1131750E+03  0.7561462E-02  0.1254801E+00
         -2   -1    0    0    0  501 -0.00000000000E+00  0.00000000000E+00  0.28778409686E+02  0.28778409686E+02  0.00000000000E+00 0.  1.
          2   -1    0    0  501    0  0.00000000000E+00 -0.00000000000E+00 -0.51941359483E+03  0.51941359483E+03  0.00000000000E+00 0. -1.
         25    2    1    2    0    0 -0.20399521441E+02  0.40139152013E+02 -0.35958115963E+03  0.38337103857E+03  0.12508977117E+03 0.  0.
          5    1    3    3  502    0 -0.72741401214E+02  0.24468460102E+02 -0.23559874109E+03  0.24781899885E+03  0.41800000000E+01 0.  1.
         -5    1    3    3    0  502  0.52341879774E+02  0.15670691911E+02 -0.12398241854E+03  0.13555203972E+03  0.41800000000E+01 0.  1.
        -11    1    1    2    0    0  0.10463416044E+02  0.25887802257E+02 -0.17089820207E+02  0.32737185824E+02  0.00000000000E+00 0.  1.
         11    1    1    2    0    0  0.99361053970E+01 -0.66026954270E+02 -0.11396420530E+03  0.13208378012E+03  0.00000000000E+00 0. -1.
</event>
<event>
 7    1  0.3545426E-009  0.1472805E+03  0.7561462E-02  0.1203855E+00
         -1   -1    0    0    0  501 -0.00000000000E+00  0.00000000000E+00  0.16249689428E+03  0.16249689428E+03  0.00000000000E+00 0.  1.
          1   -1    0    0  501    0  0.00000000000E+00 -0.00000000000E+00 -0.18459669924E+03  0.18459669924E+03  0.00000000000E+00 0. -1.
         25    2    1    2    0    0 -0.13346928114E+03  0.12342471450E+01 -0.28085571059E+02  0.18507295625E+03  0.12509047709E+03 0.  0.
          5    1    3    3  502    0 -0.12792622894E+03 -0.87482638194E+01 -0.66695272049E+02  0.14459385839E+03  0.41800000000E+01 0.  1.
         -5    1    3    3    0  502 -0.55430521997E+01  0.99825109644E+01  0.38609700990E+02  0.40479097858E+02  0.41800000000E+01 0.  1.
        -11    1    1    2    0    0  0.85841710781E+02  0.36564376271E+02 -0.20773000907E+02  0.95589070968E+02  0.00000000000E+00 0. -1.
         11    1    1    2    0    0  0.47627570358E+02 -0.37798623416E+02  0.26758767005E+02  0.66431566307E+02  0.00000000000E+00 0.  1.
</event>
<event>
 7    1  0.2899775E-009  0.1748690E+03  0.7561462E-02  0.1172863E+00
         -2   -1    0    0    0  501 -0.00000000000E+00  0.00000000000E+00  0.19346861370E+03  0.19346861370E+03  0.00000000000E+00 0.  1.
          2   -1    0    0  501    0  0.00000000000E+00 -0.00000000000E+00 -0.19220932646E+03  0.19220932646E+03  0.00000000000E+00 0. -1.
         25    2    1    2    0    0 -0.13601795884E+03 -0.72883408940E+02  0.39270045692E+02  0.20249023963E+03  0.12508910517E+03 0.  0.
          5    1    3    3  502    0 -0.29021941781E+02  0.23126766759E+02  0.45100001372E+02  0.58554273706E+02  0.41800000000E+01 0.  1.
         -5    1    3    3    0  502 -0.10699601705E+03 -0.96010175700E+02 -0.58299556801E+01  0.14393596592E+03  0.41800000000E+01 0.  1.
        -11    1    1    2    0    0  0.53001697207E+02  0.66890465156E+02  0.11851771240E+02  0.86162513410E+02  0.00000000000E+00 0.  1.
         11    1    1    2    0    0  0.83016261628E+02  0.59929437846E+01 -0.49862529692E+02  0.97025187128E+02  0.00000000000E+00 0. -1.
</event>
<event>
 7    1  0.2899775E-009  0.1057882E+03  0.7561462E-02  0.1268574E+00
          1   -1    0    0  501    0  0.00000000000E+00  0.00000000000E+00  0.50765175269E+03  0.50765175269E+03  0.00000000000E+00 0. -1.
         -1   -1    0    0    0  501 -0.00000000000E+00 -0.00000000000E+00 -0.28174845167E+02  0.28174845167E+02  0.00000000000E+00 0.  1.
         25    2    1    2    0    0 -0.26536519034E+02  0.36758412289E+02  0.32133152405E+03  0.34778920577E+03  0.12509202845E+03 0.  0.
          5    1    3    3  502    0 -0.20259570859E+02  0.76505113606E+02  0.27542374702E+03  0.28659936400E+03  0.41800000000E+01 0.  1.
         -5    1    3    3    0  502 -0.62769481753E+01 -0.39746701317E+02  0.45907777027E+02  0.61189841768E+02  0.41800000000E+01 0.  1.
        -11    1    1    2    0    0 -0.26167801711E+02 -0.28204943306E+02  0.28661043449E+02  0.47976328380E+02  0.00000000000E+00 0.  1.
         11    1    1    2    0    0  0.52704320745E+02 -0.85534689833E+01  0.12948434003E+03  0.14006106371E+03  0.00000000000E+00 0. -1.
</event>
<event>
 7    1  0.2899775E-009  0.1101462E+03  0.7561462E-02  0.1260299E+00
          2   -1    0    0  501    0  0.00000000000E+00  0.00000000000E+00  0.11704916013E+03  0.11704916013E+03  0.00000000000E+00 0. -1.
         -2   -1    0    0    0  501 -0.00000000000E+00 -0.00000000000E+00 -0.13039136161E+03  0.13039136161E+03  0.00000000000E+00 0.  1.
         25    2    1    2    0    0  0.37859558985E+02  0.26779013482E+02  0.25443237767E+02  0.13580963524E+03  0.12508571823E+03 0.  0.
          5    1    3    3  502    0  0.50117484859E+02 -0.40656282394E+02  0.10178977854E+02  0.65465865738E+02  0.41800000000E+01 0.  1.
         -5    1    3    3    0  502 -0.12257925874E+02  0.67435295876E+02  0.15264259914E+02  0.70343769499E+02  0.41800000000E+01 0.  1.
        -11    1    1    2    0    0 -0.58235146857E+02 -0.71672396580E+01  0.56642306289E+01  0.58947308356E+02  0.00000000000E+00 0. -1.
         11    1    1    2    0    0  0.20375587873E+02 -0.19611773824E+02 -0.44449669882E+02  0.52683578146E+02  0.00000000000E+00 0.  1.
</event>
<event>
 7    1  0.2899775E-009  0.2091559E+03  0.7561462E-02  0.1142236E+00
          2   -1    0    0  501    0  0.00000000000E+00  0.00000000000E+00  0.15578515029E+03  0.15578515029E+03  0.00000000000E+00 0.  1.
         -2   -1    0    0    0  501 -0.00000000000E+00 -0.00000000000E+00 -0.32889776137E+03  0.32889776137E+03  0.00000000000E+00 0. -1.
         25    2    1    2    0    0 -0.10741469367E+03 -0.15571832872E+03 -0.15171491663E+03  0.27285765054E+03  0.12509103570E+03 0.  0.
          5    1    3    3  502    0  0.90436799915E+01 -0.94655343167E+02 -0.60874477642E+02  0.11298051410E+03  0.41800000000E+01 0. -1.
         -5    1    3    3    0  502 -0.11645837366E+03 -0.61062985558E+02 -0.90840438990E+02  0.15987713644E+03  0.41800000000E+01 0. -1.
        -11    1    1    2    0    0  0.85635036087E+00  0.15173856113E+02  0.25175123007E+02  0.29406905034E+02  0.00000000000E+00 0.  1.
         11    1    1    2    0    0  0.10655834330E+03  0.14054447261E+03 -0.46572817454E+02  0.18241835608E+03  0.00000000000E+00 0. -1.
</event>
<event>
 7    1  0.2899775E-009  0.1211418E+03  0.7561462E-02  0.1241225E+00
         -2   -1    0    0    0  501 -0.00000000000E+00  0.00000000000E+00  0.12298309299E+03  0.12298309299E+03  0.00000000000E+00 0.  1.
          2   -1    0    0  501    0  0.00000000000E+00 -0.00000000000E+00 -0.17609542032E+03  0.17609542032E+03  0.00000000000E+00 0. -1.
         25    2    1    2    0    0 -0.69450033049E+02  0.40690591393E+02  0.28179598350E+02  0.15141003241E+03  0.12510746114E+03 0.  0.
          5    1    3    3  502    0 -0.92069573092E+02 -0.10382703209E+02  0.18030879104E+02  0.94483817749E+02  0.41800000000E+01 0. -1.
         -5    1    3    3    0  502  0.22619540043E+02  0.51073294602E+02  0.10148719246E+02  0.56926214661E+02  0.41800000000E+01 0. -1.
        -11    1    1    2    0    0  0.73317344684E+02 -0.25155481562E+02 -0.14338676221E+02  0.78827843557E+02  0.00000000000E+00 0.  1.
         11    1    1    2    0    0 -0.38673116349E+01 -0.15535109831E+02 -0.66953249462E+02  0.68840637347E+02  0.00000000000E+00 0. -1.
</event>
<event>
 7    1  0.2899775E-009  0.1376670E+03  0.7561462E-02  0.1216503E+00
         -1   -1    0    0    0  501 -0.00000000000E+00  0.00000000000E+00  0.13387681622E+03  0.13387681622E+03  0.00000000000E+00 0.  1.
          1   -1    0    0  501    0  0.00000000000E+00 -0.00000000000E+00 -0.18770392963E+03  0.18770392963E+03  0.00000000000E+00 0. -1.
         25    2    1    2    0    0 -0.80847928930E+02  0.77206696458E+02 -0.78731625522E+02  0.18532115324E+03  0.12509196373E+03 0.  0.
          5    1    3    3  502    0 -0.73952193994E+02  0.98854859847E+02 -0.96029065049E+02  0.15646170153E+03  0.41800000000E+01 0.  1.
         -5    1    3    3    0  502 -0.68957349364E+01 -0.21648163389E+02  0.17297439527E+02  0.28859451704E+02  0.41800000000E+01 0.  1.
        -11    1    1    2    0    0  0.51704546489E+02 -0.84133737352E+02  0.34812914611E+02  0.10470809382E+03  0.00000000000E+00 0.  1.
         11    1    1    2    0    0  0.29143382441E+02  0.69270408937E+01 -0.99084025041E+01  0.31551498789E+02  0.00000000000E+00 0. -1.
</event>
<event>
 7    1  0.2899775E-009  0.5878743E+02  0.7561462E-02  0.1402992E+00
         -3   -1    0    0    0  501 -0.00000000000E+00  0.00000000000E+00  0.13468311520E+03  0.13468311520E+03  0.00000000000E+00 0.  1.
          3   -1    0    0  501    0  0.00000000000E+00 -0.00000000000E+00 -0.88397341477E+02  0.88397341477E+02  0.00000000000E+00 0. -1.
         25    2    1    2    0    0 -0.38058261647E+01  0.10422414804E+02  0.16520130664E+02  0.12666772482E+03  0.12509471112E+03 0.  0.
          5    1    3    3  502    0  0.10712848425E+01  0.25341689789E+02 -0.51058381956E+02  0.57164496504E+02  0.41800000000E+01 0.  1.
         -5    1    3    3    0  502 -0.48771110072E+01 -0.14919274985E+02  0.67578512620E+02  0.69503228312E+02  0.41800000000E+01 0.  1.
        -11    1    1    2    0    0  0.14886103391E+02 -0.40724983228E+02  0.43433320608E+02  0.61372417845E+02  0.00000000000E+00 0.  1.
         11    1    1    2    0    0 -0.11080277226E+02  0.30302568424E+02 -0.13667677552E+02  0.35040314013E+02  0.00000000000E+00 0. -1.
</event>
<event>
 7    1  0.2899775E-009  0.1220925E+03  0.7561462E-02  0.1239684E+00
          1   -1    0    0  501    0  0.00000000000E+00  0.00000000000E+00  0.48577685539E+02  0.48577685539E+02  0.00000000000E+00 0. -1.
         -1   -1    0    0    0  501 -0.00000000000E+00 -0.00000000000E+00 -0.41201610828E+03  0.41201610828E+03  0.00000000000E+00 0.  1.
         25    2    1    2    0    0 -0.71767967147E+02 -0.60754902067E+02 -0.19993169586E+03  0.25389302549E+03  0.12508871312E+03 0.  0.
          5    1    3    3  502    0 -0.88780192783E+02 -0.42050881816E+02 -0.68126804642E+02  0.11961995320E+03  0.41800000000E+01 0.  1.
         -5    1    3    3    0  502  0.17012225636E+02 -0.18704020251E+02 -0.13180489122E+03  0.13427307229E+03  0.41800000000E+01 0.  1.
        -11    1    1    2    0    0  0.66474961634E+02  0.77042837933E+01 -0.12194722164E+03  0.13910212572E+03  0.00000000000E+00 0.  1.
         11    1    1    2    0    0  0.52930055128E+01  0.53050618274E+02 -0.41559505235E+02  0.67598642604E+02  0.00000000000E+00 0. -1.
</event>
<event>
 7    1  0.2899775E-009  0.1083185E+03  0.7561462E-02  0.1263716E+00
          1   -1    0    0  501    0  0.00000000000E+00  0.00000000000E+00  0.43231425905E+02  0.43231425905E+02  0.00000000000E+00 0. -1.
         -1   -1    0    0    0  501 -0.00000000000E+00 -0.00000000000E+00 -0.51162549217E+03  0.51162549217E+03  0.00000000000E+00 0.  1.
         25    2    1    2    0    0  0.25993799004E+02  0.97182604932E+02 -0.22839248966E+03  0.27915996453E+03  0.12508804969E+03 0.  0.
          5    1    3    3  502    0  0.27772511605E+02  0.45360128225E+02 -0.22011015991E+03  0.22648357232E+03  0.41800000000E+01 0.  1.
         -5    1    3    3    0  502 -0.17787126007E+01  0.51822476707E+02 -0.82823297505E+01  0.52676392214E+02  0.41800000000E+01 0.  1.
        -11    1    1    2    0    0 -0.40047595985E+02 -0.69250455971E+02 -0.81723379813E+02  0.11435972370E+03  0.00000000000E+00 0. -1.
         11    1    1    2    0    0  0.14053796981E+02 -0.27932148961E+02 -0.15827819679E+03  0.16133722985E+03  0.00000000000E+00 0.  1.
</event>
<event>
 7    1  0.2899775E-009  0.1174063E+03  0.7561462E-02  0.1247438E+00
         -2   -1    0    0    0  501 -0.00000000000E+00  0.00000000000E+00  0.22880025753E+03  0.22880025753E+03  0.00000000000E+00 0.  1.
          2   -1    0    0  501    0  0.00000000000E+00 -0.00000000000E+00 -0.10434264255E+03  0.10434264255E+03  0.00000000000E+00 0. -1.
         25    2    1    2    0    0  0.66587762503E+02 -0.22241447209E+02 -0.24707636642E+02  0.14555421099E+03  0.12508776494E+03 0.  0.
          5    1    3    3  502    0  0.72746583545E+02 -0.53211138287E+02  0.18271821635E+02  0.92058799260E+02  0.41800000000E+01 0. -1.
         -5    1    3    3    0  502 -0.61588210417E+01  0.30969691078E+02 -0.42979458278E+02  0.53495411728E+02  0.41800000000E+01 0. -1.
        -11    1    1    2    0    0  0.21421543658E+02 -0.18079143588E+01  0.39153248617E+02  0.44666855321E+02  0.00000000000E+00 0.  1.
         11    1    1    2    0    0 -0.88009306161E+02  0.24049361568E+02  0.11001200301E+03  0.14292183377E+03  0.00000000000E+00 0. -1.
</event>
<event>
 7    1  0.2899775E-009  0.1273531E+03  0.7561462E-02  0.1231437E+00
         -3   -1    0    0    0  501 -0.00000000000E+00  0.00000000000E+00  0.53393096644E+03  0.53393096644E+03  0.00000000000E+00 0.  1.
          3   -1    0    0  501    0  0.00000000000E+00 -0.00000000000E+00 -0.35444748401E+02  0.35444748401E+02  0.00000000000E+00 0. -1.
         25    2    1    2    0    0  0.46035742403E+02 -0.62979603560E+02  0.20726830848E+03  0.25434889431E+03  0.12508992083E+03 0.  0.
          5    1    3    3  502    0 -0.43000119185E+02 -0.28948754399E+02  0.74351599952E+02  0.90734080954E+02  0.41800000000E+01 0. -1.
         -5    1    3    3    0  502  0.89035861587E+02 -0.34030849161E+02  0.13291670853E+03  0.16361481335E+03  0.41800000000E+01 0. -1.
        -11    1    1    2    0    0 -0.66440854051E+02  0.49068046599E+02  0.27037886564E+03  0.28271326687E+03  0.00000000000E+00 0.  1.
         11    1    1    2    0    0  0.20405111649E+02  0.13911556961E+02  0.20839043928E+02  0.32313553662E+02  0.00000000000E+00 0. -1.
</event>
<event>
 7    1  0.2899775E-009  0.1084561E+03  0.7561462E-02  0.1263456E+00
          1   -1    0    0  501    0  0.00000000000E+00  0.00000000000E+00  0.38273572629E+03  0.38273572629E+03  0.00000000000E+00 0. -1.
         -1   -1    0    0    0  501 -0.00000000000E+00 -0.00000000000E+00 -0.45423597547E+02  0.45423597547E+02  0.00000000000E+00 0.  1.
         25    2    1    2    0    0 -0.54044663902E+02  0.11602990535E+02  0.26689959922E+03  0.29989133286E+03  0.12507581852E+03 0.  0.
          5    1    3    3  502    0  0.36348035245E+02  0.20463224956E+02  0.12019944963E+03  0.12730005237E+03  0.41800000000E+01 0. -1.
         -5    1    3    3    0  502 -0.90392699147E+02 -0.88602344214E+01  0.14670014959E+03  0.17259128049E+03  0.41800000000E+01 0. -1.
        -11    1    1    2    0    0 -0.90653848482E+01  0.13406602759E+02  0.56762219822E+02  0.59024298379E+02  0.00000000000E+00 0. -1.
         11    1    1    2    0    0  0.63110048750E+02 -0.25009593294E+02  0.13650309708E+02  0.69243692602E+02  0.00000000000E+00 0.  1.
</event>
<event>
 7    1  0.2899775E-009  0.1313801E+03  0.7561462E-02  0.1225422E+00
          2   -1    0    0  501    0  0.00000000000E+00  0.00000000000E+00  0.81139757293E+03  0.81139757293E+03  0.00000000000E+00 0. -1.
         -2   -1    0    0    0  501 -0.00000000000E+00 -0.00000000000E+00 -0.29560847982E+02  0.29560847982E+02  0.00000000000E+00 0.  1.
         25    2    1    2    0    0  0.41406870611E+02  0.10040018415E+03  0.39050927283E+03  0.42419258217E+03  0.12508848343E+03 0.  0.
          5    1    3    3  502    0 -0.14440519438E+02  0.94664290977E+01  0.23426193937E+03  0.23493460903E+03  0.41800000000E+01 0. -1.
         -5    1    3    3    0  502  0.55847390049E+02  0.90933755054E+02  0.15624733346E+03  0.18925797314E+03  0.41800000000E+01 0. -1.
        -11    1    1    2    0    0  0.26671114744E+02 -0.24152084567E+02  0.59322279058E+02  0.69381585044E+02  0.00000000000E+00 0.  1.
         11    1    1    2    0    0 -0.68077985356E+02 -0.76248099585E+02  0.33200517306E+03  0.34738425370E+03  0.00000000000E+00 0. -1.
</event>
<event>
 7    1  0.2899775E-009  0.1086469E+03  0.7561462E-02  0.1263096E+00
          2   -1    0    0  501    0  0.00000000000E+00  0.00000000000E+00  0.49536942194E+03  0.49536942194E+03  0.00000000000E+00 0. -1.
         -2   -1    0    0    0  501 -0.00000000000E+00 -0.00000000000E+00 -0.26598809538E+02  0.26598809538E+02  0.00000000000E+00 0.  1.
         25    2    1    2    0    0 -0.22789734837E+02 -0.28325888732E+02  0.26645773915E+03  0.29659574108E+03  0.12509028293E+03 0.  0.
          5    1    3    3  502    0 -0.24061335350E+02 -0.74399224580E+02  0.20654240910E+03  0.22088782591E+03  0.41800000000E+01 0. -1.
         -5    1    3    3    0  502  0.12716005134E+01  0.46073335848E+02  0.59915330047E+02  0.75707915165E+02  0.41800000000E+01 0. -1.
        -11    1    1    2    0    0 -0.28517096370E+02 -0.82649425654E+01  0.10751784308E+03  0.11154201290E+03  0.00000000000E+00 0.  1.
         11    1    1    2    0    0  0.51306831207E+02  0.36590831297E+02  0.94795030172E+02  0.11383047750E+03  0.00000000000E+00 0. -1.
</event>
<event>
 7    1  0.2899775E-009  0.1320943E+03  0.7561462E-02  0.1224381E+00
         -4   -1    0    0    0  501 -0.00000000000E+00  0.00000000000E+00  0.10492948420E+03  0.10492948420E+03  0.00000000000E+00 0.  1.
          4   -1    0    0  501    0  0.00000000000E+00 -0.00000000000E+00 -0.22231933207E+03  0.22231933207E+03  0.00000000000E+00 0. -1.
         25    2    1    2    0    0  0.29245071673E+02 -0.93905915506E+02 -0.84906668345E+02  0.18036022794E+03  0.12508826607E+03 0.  0.
          5    1    3    3  502    0 -0.23681561038E+02 -0.35454380550E+02  0.21437741366E+02  0.47904891068E+02  0.41800000000E+01 0. -1.
         -5    1    3    3    0  502  0.52926632711E+02 -0.58451534956E+02 -0.10634440971E+03  0.13245533687E+03  0.41800000000E+01 0. -1.
        -11    1    1    2    0    0 -0.28801830032E+02  0.11638757693E+03 -0.33136425137E+02  0.12439307114E+03  0.00000000000E+00 0.  1.
         11    1    1    2    0    0 -0.44324164032E+00 -0.22481661428E+02  0.65324561203E+00  0.22495517188E+02  0.00000000000E+00 0. -1.
</event>
<event>
 7    1  0.2899775E-009  0.1051170E+03  0.7561462E-02  0.1269889E+00
         -1   -1    0    0    0  501 -0.00000000000E+00  0.00000000000E+00  0.21882989082E+02  0.21882989082E+02  0.00000000000E+00 0.  1.
          1   -1    0    0  501    0  0.00000000000E+00 -0.00000000000E+00 -0.66611137192E+03  0.66611137192E+03  0.00000000000E+00 0. -1.
         25    2    1    2    0    0  0.38748634455E+02  0.34305492644E+02 -0.40335261048E+03  0.42546383755E+03  0.12509126743E+03 0.  0.
          5    1    3    3  502    0 -0.29258115496E+02 -0.13814621239E+02 -0.23837885463E+03  0.24060098050E+03  0.41800000000E+01 0. -1.
         -5    1    3    3    0  502  0.68006749951E+02  0.48120113883E+02 -0.16497375585E+03  0.18486285705E+03  0.41800000000E+01 0. -1.
        -11    1    1    2    0    0 -0.45007280525E+02  0.12708159344E+02 -0.63128518199E+02  0.78564383942E+02  0.00000000000E+00 0.  1.
         11    1    1    2    0    0  0.62586460699E+01 -0.47013651989E+02 -0.17774725416E+03  0.18396613951E+03  0.00000000000E+00 0. -1.
</event>
<event>
 7    1  0.2899775E-009  0.1078975E+03  0.7561462E-02  0.1264514E+00
          1   -1    0    0  501    0  0.00000000000E+00  0.00000000000E+00  0.11844898050E+04  0.11844898050E+04  0.00000000000E+00 0. -1.
         -1   -1    0    0    0  501 -0.00000000000E+00 -0.00000000000E+00 -0.15019584312E+02  0.15019584312E+02  0.00000000000E+00 0.  1.
         25    2    1    2    0    0 -0.11013303294E+02  0.13631658141E+02  0.95734007258E+03  0.96563728448E+03  0.12509290809E+03 0.  0.
          5    1    3    3  502    0 -0.64524536721E+02 -0.87222389793E+01  0.60811557438E+03  0.61160568792E+03  0.41800000000E+01 0. -1.
         -5    1    3    3    0  502  0.53511233427E+02  0.22353897121E+02  0.34922449820E+03  0.35403159656E+03  0.41800000000E+01 0. -1.
        -11    1    1    2    0    0 -0.48604919317E+01  0.38041202489E+02  0.50298561842E+02  0.63251109018E+02  0.00000000000E+00 0.  1.
         11    1    1    2    0    0  0.15873795226E+02 -0.51672860630E+02  0.16183158631E+03  0.17062099586E+03  0.00000000000E+00 0. -1.
</event>
<event>
 7    1  0.2899775E-009  0.1204073E+03  0.7561462E-02  0.1242427E+00
         -1   -1    0    0    0  501 -0.00000000000E+00  0.00000000000E+00  0.19837409273E+02  0.19837409273E+02  0.00000000000E+00 0.  1.
          1   -1    0    0  501    0  0.00000000000E+00 -0.00000000000E+00 -0.14083695932E+04  0.14083695932E+04  0.00000000000E+00 0. -1.
         25    2    1    2    0    0  0.19673404612E+01 -0.65790855568E+02 -0.11988720728E+04  0.12071759689E+04  0.12508903163E+03 0.  0.
          5    1    3    3  502    0 -0.56968402636E+02 -0.56518883306E+02 -0.76302509676E+03  0.76724478086E+03  0.41800000000E+01 0. -1.
         -5    1    3    3    0  502  0.58935743097E+02 -0.92719722619E+01 -0.43584697602E+03  0.43993118801E+03  0.41800000000E+01 0. -1.
        -11    1    1    2    0    0  0.27830063412E+02 -0.64599852698E+00 -0.14604071526E+02  0.31435786116E+02  0.00000000000E+00 0.  1.
         11    1    1    2    0    0 -0.29797403874E+02  0.66436854095E+02 -0.17505603964E+03  0.18959524749E+03  0.00000000000E+00 0. -1.
</event>
<event>
 7    1  0.2899775E-009  0.9277392E+02  0.7561462E-02  0.1296270E+00
          1   -1    0    0  501    0  0.00000000000E+00  0.00000000000E+00  0.19808799941E+03  0.19808799941E+03  0.00000000000E+00 0. -1.
         -1   -1    0    0    0  501 -0.00000000000E+00 -0.00000000000E+00 -0.66094605081E+02  0.66094605081E+02  0.00000000000E+00 0.  1.
         25    2    1    2    0    0 -0.38676612542E+02  0.17917679304E+01  0.71257060667E+02  0.14907701088E+03  0.12508915097E+03 0.  0.
          5    1    3    3  502    0 -0.51112060302E+02 -0.28869706518E+02  0.92428871124E+02  0.10957404474E+03  0.41800000000E+01 0.  1.
         -5    1    3    3    0  502  0.12435447760E+02  0.30661474448E+02 -0.21171810457E+02  0.39502966147E+02  0.41800000000E+01 0.  1.
        -11    1    1    2    0    0  0.66002590401E+02 -0.10363579727E+01  0.26104799771E+02  0.70985044542E+02  0.00000000000E+00 0. -1.
         11    1    1    2    0    0 -0.27325977860E+02 -0.75540995778E+00  0.34631533893E+02  0.44120549067E+02  0.00000000000E+00 0.  1.
</event>
<event>
 7    1  0.2899775E-009  0.1397730E+03  0.7561462E-02  0.1213635E+00
         -1   -1    0    0    0  501 -0.00000000000E+00  0.00000000000E+00  0.18076175217E+02  0.18076175217E+02  0.00000000000E+00 0.  1.
          1   -1    0    0  501    0  0.00000000000E+00 -0.00000000000E+00 -0.15147124632E+04  0.15147124632E+04  0.00000000000E+00 0. -1.
         25    2    1    2    0    0  0.33592906187E+02 -0.12230376166E+03 -0.77662176273E+03  0.79679082134E+03  0.12509019612E+03 0.  0.
          5    1    3    3  502    0  0.24162464470E+01 -0.39587054275E+01  0.34723480351E+01  0.71441722006E+01  0.41800000000E+01 0. -1.
         -5    1    3    3    0  502  0.31176659740E+02 -0.11834505623E+03 -0.78009411077E+03  0.78964664914E+03  0.41800000000E+01 0. -1.
        -11    1    1    2    0    0  0.18015313815E+02  0.85709950124E+02 -0.47088525751E+03  0.47896103476E+03  0.00000000000E+00 0.  1.
         11    1    1    2    0    0 -0.51608220002E+02  0.36593811535E+02 -0.24912926771E+03  0.25703678228E+03  0.00000000000E+00 0. -1.
</event>
<event>
 7    1  0.5237653E-009  0.1114323E+03  0.7561462E-02  0.1257940E+00
          2   -1    0    0  501    0  0.00000000000E+00  0.00000000000E+00  0.52245771811E+03  0.52245771811E+03  0.00000000000E+00 0. -1.
         -2   -1    0    0    0  501 -0.00000000000E+00 -0.00000000000E+00 -0.34305313317E+02  0.34305313317E+02  0.00000000000E+00 0.  1.
         25    2    1    2    0    0 -0.74156651347E+02 -0.81642802318E+01  0.31870944423E+03  0.35041191220E+03  0.12508770505E+03 0.  0.
          5    1    3    3  502    0  0.12607740079E+02 -0.33522258587E+02  0.27160710652E+02  0.45142812648E+02  0.41800000000E+01 0. -1.
         -5    1    3    3    0  502 -0.86764391426E+02  0.25357978355E+02  0.29154873358E+03  0.30526909955E+03  0.41800000000E+01 0. -1.
        -11    1    1    2    0    0  0.48252081988E+02 -0.24911688776E+02  0.32903116510E+02  0.63493863718E+02  0.00000000000E+00 0.  1.
         11    1    1    2    0    0  0.25904569359E+02  0.33075969007E+02  0.13653984405E+03  0.14285725551E+03  0.00000000000E+00 0. -1.
</event>
<event>
 7    1  0.3013052E-009  0.1024376E+03  0.7561462E-02  0.1275252E+00
         -2   -1    0    0    0  501 -0.00000000000E+00  0.00000000000E+00  0.14915561353E+03  0.14915561353E+03  0.00000000000E+00 0.  1.
          2   -1    0    0  501    0  0.00000000000E+00 -0.00000000000E+00 -0.16192402350E+03  0.16192402350E+03  0.00000000000E+00 0. -1.
         25    2    1    2    0    0  0.48566867617E+02  0.80153855504E+02  0.52948935712E+02  0.16502673116E+03  0.12508737356E+03 0.  0.
          5    1    3    3  502    0  0.17740301553E+02  0.77845834412E+02  0.87467072668E+02  0.11850170225E+03  0.41800000000E+01 0. -1.
         -5    1    3    3    0  502  0.30826566064E+02  0.23080210915E+01 -0.34518136957E+02  0.46525028916E+02  0.41800000000E+01 0. -1.
        -11    1    1    2    0    0 -0.31918238695E+02 -0.53945466322E+02  0.10682645566E+02  0.63584638195E+02  0.00000000000E+00 0.  1.
         11    1    1    2    0    0 -0.16648628921E+02 -0.26208389182E+02 -0.76399991250E+02  0.82468267663E+02  0.00000000000E+00 0. -1.
</event>
<event>
 7    1  0.2899775E-009  0.7740939E+02  0.7561462E-02  0.1336568E+00
         -1   -1    0    0    0  501 -0.00000000000E+00  0.00000000000E+00  0.25260299357E+03  0.25260299357E+03  0.00000000000E+00 0.  1.
          1   -1    0    0  501    0  0.00000000000E+00 -0.00000000000E+00 -0.50965426522E+02  0.50965426522E+02  0.00000000000E+00 0. -1.
         25    2    1    2    0    0 -0.16307496107E+00 -0.21466325027E+02  0.78669692956E+02  0.14932849989E+03  0.12509696474E+03 0.  0.
          5    1    3    3  502    0 -0.16594631156E+02  0.20360091242E+02  0.97026580448E+02  0.10060588855E+03  0.41800000000E+01 0.  1.
         -5    1    3    3    0  502  0.16431556195E+02 -0.41826416269E+02 -0.18356887492E+02  0.48722611335E+02  0.41800000000E+01 0.  1.
        -11    1    1    2    0    0  0.47554708702E+00 -0.30809433742E+02  0.82695610709E+02  0.88249710385E+02  0.00000000000E+00 0.  1.
         11    1    1    2    0    0 -0.31247212595E+00  0.52275758770E+02  0.40272263386E+02  0.65990209819E+02  0.00000000000E+00 0. -1.
</event>
<event>
 7    1  0.2974470E-009  0.1370703E+03  0.7561462E-02  0.1217326E+00
          1   -1    0    0  501    0  0.00000000000E+00  0.00000000000E+00  0.50464765736E+03  0.50464765736E+03  0.00000000000E+00 0. -1.
         -1   -1    0    0    0  501 -0.00000000000E+00 -0.00000000000E+00 -0.41213913648E+02  0.41213913648E+02  0.00000000000E+00 0.  1.
         25    2    1    2    0    0  0.31454108630E+02 -0.89115037209E+02  0.24476833044E+03  0.29066018479E+03  0.12506381022E+03 0.  0.
          5    1    3    3  502    0  0.79833092315E+02 -0.60486265153E+02  0.16244447282E+03  0.19088632756E+03  0.41800000000E+01 0. -1.
         -5    1    3    3    0  502 -0.48378983685E+02 -0.28628772057E+02  0.82323857623E+02  0.99773857226E+02  0.41800000000E+01 0. -1.
        -11    1    1    2    0    0  0.17066607371E+02  0.56596863223E+02  0.52473426077E+02  0.79043876791E+02  0.00000000000E+00 0.  1.
         11    1    1    2    0    0 -0.48520716002E+02  0.32518173986E+02  0.16619198720E+03  0.17615750943E+03  0.00000000000E+00 0. -1.
</event>
<event>
 7    1  0.2899775E-009  0.1535646E+03  0.7561462E-02  0.1196160E+00
          1   -1    0    0  501    0  0.00000000000E+00  0.00000000000E+00  0.88088249453E+02  0.88088249453E+02  0.00000000000E+00 0. -1.
         -1   -1    0    0    0  501 -0.00000000000E+00 -0.00000000000E+00 -0.36029267534E+03  0.36029267534E+03  0.00000000000E+00 0.  1.
         25    2    1    2    0    0  0.13717886867E+03  0.21593960100E+02 -0.11133752422E+03  0.21755056998E+03  0.12509142688E+03 0.  0.
          5    1    3    3  502    0  0.10805508916E+03  0.33136976353E+02 -0.12506122288E+02  0.11378856265E+03  0.41800000000E+01 0. -1.
         -5    1    3    3    0  502  0.29123779503E+02 -0.11543016253E+02 -0.98831401932E+02  0.10376200733E+03  0.41800000000E+01 0. -1.
        -11    1    1    2    0    0 -0.84965711773E+02  0.28942446587E+02 -0.11076083368E+03  0.14256507170E+03  0.00000000000E+00 0. -1.
         11    1    1    2    0    0 -0.52213156893E+02 -0.50536406687E+02 -0.50106067985E+02  0.88265283110E+02  0.00000000000E+00 0.  1.
</event>
<event>
 7    1  0.2899775E-009  0.1068460E+03  0.7561462E-02  0.1266525E+00
          1   -1    0    0  501    0  0.00000000000E+00  0.00000000000E+00  0.80984870627E+03  0.80984870627E+03  0.00000000000E+00 0. -1.
         -1   -1    0    0    0  501 -0.00000000000E+00 -0.00000000000E+00 -0.17691453765E+02  0.17691453765E+02  0.00000000000E+00 0.  1.
         25    2    1    2    0    0  0.30288076594E+02  0.29260361680E+02  0.54154580330E+03  0.55739839801E+03  0.12509029010E+03 0.  0.
          5    1    3    3  502    0  0.63992790679E+02 -0.90972018192E+01  0.42742855097E+03  0.43230831004E+03  0.41800000000E+01 0. -1.
         -5    1    3    3    0  502 -0.33704714086E+02  0.38357563499E+02  0.11411725233E+03  0.12509008797E+03  0.41800000000E+01 0. -1.
        -11    1    1    2    0    0  0.62832523397E+01 -0.53464680660E+02  0.17069938070E+03  0.17898667523E+03  0.00000000000E+00 0. -1.
         11    1    1    2    0    0 -0.36571328933E+02  0.24204318980E+02  0.79912068508E+02  0.91155086805E+02  0.00000000000E+00 0.  1.
</event>
<event>
 7    1  0.2899775E-009  0.2376903E+03  0.7561462E-02  0.1121341E+00
         -1   -1    0    0    0  501 -0.00000000000E+00  0.00000000000E+00  0.39891211510E+02  0.39891211510E+02  0.00000000000E+00 0.  1.
          1   -1    0    0  501    0  0.00000000000E+00 -0.00000000000E+00 -0.14486712881E+04  0.14486712881E+04  0.00000000000E+00 0. -1.
         25    2    1    2    0    0  0.20813566070E+03 -0.14303725079E+02 -0.74210544959E+03  0.78095653979E+03  0.12509024314E+03 0.  0.
          5    1    3    3  502    0 -0.16056673395E+02 -0.90665397097E+01 -0.62256693550E+02  0.65064484895E+02  0.41800000000E+01 0.  1.
         -5    1    3    3    0  502  0.22419233409E+03 -0.52371853690E+01 -0.67984875604E+03  0.71589205490E+03  0.41800000000E+01 0.  1.
        -11    1    1    2    0    0 -0.17650542196E+03 -0.28672793697E+02 -0.44466968490E+03  0.47927802135E+03  0.00000000000E+00 0. -1.
         11    1    1    2    0    0 -0.31630238732E+02  0.42976518776E+02 -0.22200494211E+03  0.22832793848E+03  0.00000000000E+00 0.  1.
</event>
<event>
 7    1  0.2899775E-009  0.1873182E+03  0.7561462E-02  0.1160903E+00
         -2   -1    0    0    0  501 -0.00000000000E+00  0.00000000000E+00  0.14987094532E+03  0.14987094532E+03  0.00000000000E+00 0.  1.
          2   -1    0    0  501    0  0.00000000000E+00 -0.00000000000E+00 -0.25502914125E+03  0.25502914125E+03  0.00000000000E+00 0. -1.
         25    2    1    2    0    0 -0.10883499863E+03 -0.12024171352E+03 -0.48930473871E+02  0.21058076115E+03  0.12508772561E+03 0.  0.
          5    1    3    3  502    0 -0.38804534125E+02 -0.12343331339E+03 -0.53785823031E+02  0.14018545532E+03  0.41800000000E+01 0. -1.
         -5    1    3    3    0  502 -0.70030464504E+02  0.31915998759E+01  0.48553491593E+01  0.70395305837E+02  0.41800000000E+01 0. -1.
        -11    1    1    2    0    0  0.65128964575E+02  0.11331785645E+03 -0.11188173837E+02  0.13117886206E+03  0.00000000000E+00 0. -1.
         11    1    1    2    0    0  0.43706034054E+02  0.69238570655E+01 -0.45039548222E+02  0.63140463361E+02  0.00000000000E+00 0.  1.
</event>
<event>
 7    1  0.2899775E-009  0.1071897E+03  0.7561462E-02  0.1265864E+00
         -1   -1    0    0    0  501 -0.00000000000E+00  0.00000000000E+00  0.16412085973E+03  0.16412085973E+03  0.00000000000E+00 0.  1.
          1   -1    0    0  501    0  0.00000000000E+00 -0.00000000000E+00 -0.79174862372E+02  0.79174862372E+02  0.00000000000E+00 0. -1.
         25    2    1    2    0    0 -0.14694437436E+02  0.31719043736E+02  0.54658182175E+02  0.14091411304E+03  0.12508895294E+03 0.  0.
          5    1    3    3  502    0  0.49536712974E+02  0.20695163923E+02  0.53049162114E+02  0.75590090243E+02  0.41800000000E+01 0.  1.
         -5    1    3    3    0  502 -0.64231150410E+02  0.11023879813E+02  0.16090200614E+01  0.65324022799E+02  0.41800000000E+01 0.  1.
        -11    1    1    2    0    0 -0.37241540943E+02 -0.78091764100E+01  0.23698302569E+02  0.44827727498E+02  0.00000000000E+00 0.  1.
         11    1    1    2    0    0  0.51935978379E+02 -0.23909867326E+02  0.65895126097E+01  0.57553881556E+02  0.00000000000E+00 0. -1.
</event>
<event>
 7    1  0.2899775E-009  0.2672506E+03  0.7561462E-02  0.1102864E+00
         -2   -1    0    0    0  501 -0.00000000000E+00  0.00000000000E+00  0.10274360033E+03  0.10274360033E+03  0.00000000000E+00 0. -1.
          2   -1    0    0  501    0  0.00000000000E+00 -0.00000000000E+00 -0.80834469336E+03  0.80834469336E+03  0.00000000000E+00 0.  1.
         25    2    1    2    0    0  0.13103404061E+01  0.24626067177E+03 -0.19922131103E+03  0.34055529979E+03  0.12507096384E+03 0.  0.
          5    1    3    3  502    0  0.57861345348E+02  0.16055464677E+03 -0.14699441264E+03  0.22527884861E+03  0.41800000000E+01 0. -1.
         -5    1    3    3    0  502 -0.56551004942E+02  0.85706024995E+02 -0.52226898393E+02  0.11527645118E+03  0.41800000000E+01 0. -1.
        -11    1    1    2    0    0 -0.33540534459E+02 -0.39750053364E+02 -0.76097338155E+02  0.92172875991E+02  0.00000000000E+00 0. -1.
         11    1    1    2    0    0  0.32230194053E+02 -0.20651061840E+03 -0.43028244384E+03  0.47836011790E+03  0.00000000000E+00 0.  1.
</event>
<event>
 7    1  0.2899775E-009  0.6773427E+02  0.7561462E-02  0.1367972E+00
          1   -1    0    0  501    0  0.00000000000E+00  0.00000000000E+00  0.16933665569E+03  0.16933665569E+03  0.00000000000E+00 0. -1.
         -1   -1    0    0    0  501 -0.00000000000E+00 -0.00000000000E+00 -0.77747430520E+02  0.77747430520E+02  0.00000000000E+00 0.  1.
         25    2    1    2    0    0  0.35558990994E+02 -0.15900368818E+02  0.58292328394E+02  0.14338821028E+03  0.12507965354E+03 0.  0.
          5    1    3    3  502    0  0.60819499394E+02 -0.24307793451E+02  0.83691581014E+02  0.10635616325E+03  0.41800000000E+01 0. -1.
         -5    1    3    3    0  502 -0.25260508401E+02  0.84074246325E+01 -0.25399252620E+02  0.37032047030E+02  0.41800000000E+01 0. -1.
        -11    1    1    2    0    0 -0.11509668457E+02 -0.34564591681E+01 -0.30521788302E+02  0.32802425812E+02  0.00000000000E+00 0.  1.
         11    1    1    2    0    0 -0.24049322537E+02  0.19356827986E+02  0.63818685074E+02  0.70893450112E+02  0.00000000000E+00 0. -1.
</event>
<event>
 7    1  0.2899775E-009  0.1410861E+03  0.7561462E-02  0.1211875E+00
          1   -1    0    0  501    0  0.00000000000E+00  0.00000000000E+00  0.40867338499E+02  0.40867338499E+02  0.00000000000E+00 0. -1.
         -1   -1    0    0    0  501 -0.00000000000E+00 -0.00000000000E+00 -0.56921011428E+03  0.56921011428E+03  0.00000000000E+00 0.  1.
         25    2    1    2    0    0  0.56767459729E+02 -0.81528824386E+02 -0.20718823032E+03  0.26161678378E+03  0.12508750970E+03 0.  0.
          5    1    3    3  502    0  0.75221913818E+02 -0.97610140262E+02 -0.12427674400E+03  0.17506643682E+03  0.41800000000E+01 0. -1.
         -5    1    3    3    0  502 -0.18454454089E+02  0.16081315876E+02 -0.82911486316E+02  0.86550346961E+02  0.41800000000E+01 0. -1.
        -11    1    1    2    0    0 -0.75247480572E+02  0.33106768684E+02 -0.21875041733E+03  0.23368779718E+03  0.00000000000E+00 0.  1.
         11    1    1    2    0    0  0.18480020843E+02  0.48422055703E+02 -0.10240412813E+03  0.11477287183E+03  0.00000000000E+00 0. -1.
</event>
<event>
 7    1  0.2899775E-009  0.1618693E+03  0.7561462E-02  0.1186602E+00
         -2   -1    0    0    0  501 -0.00000000000E+00  0.00000000000E+00  0.20647107391E+02  0.20647107391E+02  0.00000000000E+00 0.  1.
          2   -1    0    0  501    0  0.00000000000E+00 -0.00000000000E+00 -0.21047719893E+04  0.21047719893E+04  0.00000000000E+00 0. -1.
         25    2    1    2    0    0 -0.35568523750E+02 -0.98143915750E+02 -0.12856163200E+04  0.12959001471E+04  0.12510204140E+03 0.  0.
          5    1    3    3  502    0  0.13118020177E+02 -0.22210743870E-01 -0.14241072799E+02  0.19808167537E+02  0.41800000000E+01 0.  1.
         -5    1    3    3    0  502 -0.48686543928E+02 -0.98121705006E+02 -0.12713752472E+04  0.12760919795E+04  0.41800000000E+01 0.  1.
        -11    1    1    2    0    0 -0.21080330582E+02 -0.43206587119E+02 -0.67818643599E+02  0.83129765593E+02  0.00000000000E+00 0.  1.
         11    1    1    2    0    0  0.56648854333E+02  0.14135050287E+03 -0.73068991826E+03  0.74638918401E+03  0.00000000000E+00 0. -1.
</event>
<event>
 7    1  0.2899775E-009  0.2134782E+03  0.7561462E-02  0.1138841E+00
          2   -1    0    0  501    0  0.00000000000E+00  0.00000000000E+00  0.36955263365E+04  0.36955263365E+04  0.00000000000E+00 0. -1.
         -2   -1    0    0    0  501 -0.00000000000E+00 -0.00000000000E+00 -0.58472626572E+02  0.58472626572E+02  0.00000000000E+00 0.  1.
         25    2    1    2    0    0  0.98816279370E+02  0.18343221156E+03  0.34529633173E+04  0.34615047521E+04  0.12508974552E+03 0.  0.
          5    1    3    3  502    0  0.12945907530E+02  0.91610583578E+02  0.22666519527E+04  0.22685432864E+04  0.41800000000E+01 0. -1.
         -5    1    3    3    0  502  0.85870371840E+02  0.91821627982E+02  0.11863113647E+04  0.11929614656E+04  0.41800000000E+01 0. -1.
        -11    1    1    2    0    0 -0.72499166311E+02 -0.12575504959E+03  0.68163411126E+02  0.16036431096E+03  0.00000000000E+00 0.  1.
         11    1    1    2    0    0 -0.26317113059E+02 -0.57677161966E+02  0.11592698146E+03  0.13212990003E+03  0.00000000000E+00 0. -1.
</event>
<event>
 7    1  0.2899775E-009  0.1225459E+03  0.7561462E-02  0.1238955E+00
         -1   -1    0    0    0  501 -0.00000000000E+00  0.00000000000E+00  0.19390965749E+03  0.19390965749E+03  0.00000000000E+00 0.  1.
          1   -1    0    0  501    0  0.00000000000E+00 -0.00000000000E+00 -0.79566310329E+02  0.79566310329E+02  0.00000000000E+00 0. -1.
         25    2    1    2    0    0 -0.20311099197E+01 -0.33999752440E+02  0.57523367163E+02  0.14183306922E+03  0.12509026014E+03 0.  0.
          5    1    3    3  502    0 -0.16401197354E+02  0.44335666209E+02  0.84807804196E+01  0.48208366591E+02  0.41800000000E+01 0.  1.
         -5    1    3    3    0  502  0.14370087434E+02 -0.78335418649E+02  0.49042586744E+02  0.93624702629E+02  0.41800000000E+01 0.  1.
        -11    1    1    2    0    0 -0.41596377759E+01 -0.41711873861E+02  0.27925856798E+02  0.50369003220E+02  0.00000000000E+00 0. -1.
         11    1    1    2    0    0  0.61907476956E+01  0.75711626301E+02  0.28894123196E+02  0.81273895375E+02  0.00000000000E+00 0.  1.
</event>
<event>
 7    1  0.2899775E-009  0.1333110E+03  0.7561462E-02  0.1222624E+00
         -1   -1    0    0    0  501 -0.00000000000E+00  0.00000000000E+00  0.37715004753E+02  0.37715004753E+02  0.00000000000E+00 0.  1.
          1   -1    0    0  501    0  0.00000000000E+00 -0.00000000000E+00 -0.66660911677E+03  0.66660911677E+03  0.00000000000E+00 0. -1.
         25    2    1    2    0    0 -0.75750236420E+02 -0.84299477749E+02 -0.37953713631E+03  0.41537961160E+03  0.12508910274E+03 0.  0.
          5    1    3    3  502    0 -0.93035121348E+02 -0.51124496865E+02 -0.35473548011E+03  0.37030255364E+03  0.41800000000E+01 0. -1.
         -5    1    3    3    0  502  0.17284884929E+02 -0.33174980884E+02 -0.24801656205E+02  0.45077057958E+02  0.41800000000E+01 0. -1.
        -11    1    1    2    0    0  0.59788362681E+02  0.87969582105E+02 -0.25087948376E+03  0.27249552485E+03  0.00000000000E+00 0. -1.
         11    1    1    2    0    0  0.15961873738E+02 -0.36701043560E+01  0.15225080630E+01  0.16448985076E+02  0.00000000000E+00 0.  1.
</event>
<event>
 7    1  0.2899775E-009  0.1333869E+03  0.7561462E-02  0.1222515E+00
         -1   -1    0    0    0  501 -0.00000000000E+00  0.00000000000E+00  0.34268927581E+03  0.34268927581E+03  0.00000000000E+00 0.  1.
          1   -1    0    0  501    0  0.00000000000E+00 -0.00000000000E+00 -0.67584421158E+02  0.67584421158E+02  0.00000000000E+00 0. -1.
         25    2    1    2    0    0 -0.35704383722E+01  0.98785712814E+02  0.20318564782E+03  0.25827310765E+03  0.12509686474E+03 0.  0.
          5    1    3    3  502    0 -0.42484090661E+02  0.77083195429E+02  0.19330887641E+03  0.21244413636E+03  0.41800000000E+01 0.  1.
         -5    1    3    3    0  502  0.38913652288E+02  0.21702517385E+02  0.98767714068E+01  0.45828971281E+02  0.41800000000E+01 0.  1.
        -11    1    1    2    0    0 -0.43299745845E+02 -0.42658074767E+02  0.33117288754E+02  0.69219463646E+02  0.00000000000E+00 0.  1.
         11    1    1    2    0    0  0.46870184217E+02 -0.56127638047E+02  0.38801918080E+02  0.82781125675E+02  0.00000000000E+00 0. -1.
</event>
<event>
 7    1  0.4019085E-009  0.1123896E+03  0.7561462E-02  0.1256208E+00
         -2   -1    0    0    0  501 -0.00000000000E+00  0.00000000000E+00  0.71541993369E+02  0.71541993369E+02  0.00000000000E+00 0.  1.
          2   -1    0    0  501    0  0.00000000000E+00 -0.00000000000E+00 -0.24307980071E+03  0.24307980071E+03  0.00000000000E+00 0. -1.
         25    2    1    2    0    0 -0.71725657047E+02 -0.10615237259E+02 -0.11503450442E+03  0.18476044394E+03  0.12508489636E+03 0.  0.
          5    1    3    3  502    0 -0.10017854845E+03  0.12403439178E+02 -0.56936980080E+02  0.11596930186E+03  0.41800000000E+01 0.  1.
         -5    1    3    3    0  502  0.28452891405E+02 -0.23018676437E+02 -0.58097524341E+02  0.68791142081E+02  0.41800000000E+01 0.  1.
        -11    1    1    2    0    0  0.28263745069E+02 -0.19234651006E+02  0.17962386920E+02  0.38619404818E+02  0.00000000000E+00 0.  1.
         11    1    1    2    0    0  0.43461911978E+02  0.29849888265E+02 -0.74465689841E+02  0.91241945320E+02  0.00000000000E+00 0. -1.
</event>
<event>
 6    1  0.2899775E-009  0.1160546E+03  0.7561462E-02  0.1249751E+00
          1   -1    0    0  501    0  0.00000000000E+00  0.00000000000E+00  0.21602906207E+03  0.21602906207E+03  0.00000000000E+00 0. -1.
         -1   -1    0    0    0  501 -0.00000000000E+00 -0.00000000000E+00 -0.10377380324E+03  0.10377380324E+03  0.00000000000E+00 0.  1.
          5    1    1    2  502    0 -0.10156304257E+03 -0.11859679114E+02  0.83694598369E+02  0.13220424275E+03  0.41800000000E+01 0. -1.
         -5    1    1    2    0  502  0.34206156164E+02  0.61440123961E+01 -0.31334085118E+00  0.35005436582E+02  0.41800000000E+01 0. -1.
        -11    1    1    2    0    0  0.76202259892E+02  0.19251906511E+02 -0.35483675033E+02  0.86235210389E+02  0.00000000000E+00 0.  1.
         11    1    1    2    0    0 -0.88453734896E+01 -0.13536239793E+02  0.64357676342E+02  0.66357975587E+02  0.00000000000E+00 0. -1.
</event>
<event>
 7    1  0.2899775E-009  0.9268307E+02  0.7561462E-02  0.1296481E+00
         -2   -1    0    0    0  501 -0.00000000000E+00  0.00000000000E+00  0.53617283457E+03  0.53617283457E+03  0.00000000000E+00 0.  1.
          2   -1    0    0  501    0  0.00000000000E+00 -0.00000000000E+00 -0.64614226963E+02  0.64614226963E+02  0.00000000000E+00 0. -1.
         25    2    1    2    0    0 -0.36337659513E+02 -0.17468767685E+02  0.48304732260E+03  0.50062217910E+03  0.12514897918E+03 0.  0.
          5    1    3    3  502    0 -0.39872225720E+02 -0.53982666611E+02  0.43427859671E+03  0.43945340440E+03  0.41800000000E+01 0. -1.
         -5    1    3    3    0  502  0.35345662074E+01  0.36513898927E+02  0.48768725888E+02  0.61168774696E+02  0.41800000000E+01 0. -1.
        -11    1    1    2    0    0  0.40169336050E+02 -0.19068299627E+02 -0.34965757538E+02  0.56566596234E+02  0.00000000000E+00 0. -1.
         11    1    1    2    0    0 -0.38316765369E+01  0.36537067312E+02  0.23477042543E+02  0.43598286198E+02  0.00000000000E+00 0.  1.
</event>
<event>
 7    1  0.2899775E-009  0.1131625E+03  0.7561462E-02  0.1254823E+00
         -1   -1    0    0    0  501 -0.00000000000E+00  0.00000000000E+00  0.24329595610E+03  0.24329595610E+03  0.00000000000E+00 0.  1.
          1   -1    0    0  501    0  0.00000000000E+00 -0.00000000000E+00 -0.74839578788E+02  0.74839578788E+02  0.00000000000E+00 0. -1.
         25    2    1    2    0    0 -0.57797399848E+02  0.39422638984E+02  0.45128661830E+02  0.15025935465E+03  0.12508634477E+03 0.  0.
          5    1    3    3  502    0  0.62183593404E+01 -0.27656649570E+02  0.49657263366E+02  0.57331269507E+02  0.41800000000E+01 0.  1.
         -5    1    3    3    0  502 -0.64015759188E+02  0.67079288553E+02 -0.45286015358E+01  0.92928085147E+02  0.41800000000E+01 0.  1.
        -11    1    1    2    0    0  0.44731944952E+02 -0.63373844342E+02  0.57316015339E+02  0.96448518186E+02  0.00000000000E+00 0. -1.
         11    1    1    2    0    0  0.13065454895E+02  0.23951205358E+02  0.66011700141E+02  0.71427662045E+02  0.00000000000E+00 0.  1.
</event>
<event>
 7    1  0.2899775E-009  0.1346388E+03  0.7561462E-02  0.1220730E+00
         -2   -1    0    0    0  501 -0.00000000000E+00  0.00000000000E+00  0.23732187151E+02  0.23732187151E+02  0.00000000000E+00 0.  1.
          2   -1    0    0  501    0  0.00000000000E+00 -0.00000000000E+00 -0.88330102322E+03  0.88330102322E+03  0.00000000000E+00 0. -1.
         25    2    1    2    0    0 -0.86568504121E+02 -0.38372715322E+02 -0.42891665495E+03  0.45670978722E+03  0.12509101351E+03 0.  0.
          5    1    3    3  502    0 -0.11375639836E+03 -0.38732208251E+02 -0.39577901762E+03  0.41364139700E+03  0.41800000000E+01 0. -1.
         -5    1    3    3    0  502  0.27187894239E+02  0.35949292926E+00 -0.33137637334E+02  0.43068390223E+02  0.41800000000E+01 0. -1.
        -11    1    1    2    0    0  0.99227235556E+02  0.42869891724E+02 -0.41841494138E+03  0.43215151864E+03  0.00000000000E+00 0. -1.
         11    1    1    2    0    0 -0.12658731435E+02 -0.44971764022E+01 -0.12237239735E+02  0.18171904509E+02  0.00000000000E+00 0.  1.
</event>
<event>
 7    1  0.2899775E-009  0.1129538E+03  0.7561462E-02  0.1255196E+00
         -2   -1    0    0    0  501 -0.00000000000E+00  0.00000000000E+00  0.31291084482E+02  0.31291084482E+02  0.00000000000E+00 0.  1.
          2   -1    0    0  501    0  0.00000000000E+00 -0.00000000000E+00 -0.61748462179E+03  0.61748462179E+03  0.00000000000E+00 0. -1.
         25    2    1    2    0    0  0.62018496593E+02  0.67151627612E+02 -0.32707829295E+03  0.36191625644E+03  0.12509009533E+03 0.  0.
          5    1    3    3  502    0  0.69506036313E+02  0.71171603311E+02 -0.33505331181E+03  0.34953494869E+03  0.41800000000E+01 0.  1.
         -5    1    3    3    0  502 -0.74875397200E+01 -0.40199756991E+01  0.79750188657E+01  0.12381307749E+02  0.41800000000E+01 0.  1.
        -11    1    1    2    0    0 -0.67527245660E+02 -0.21474220047E+02 -0.11034744191E+03  0.13113973070E+03  0.00000000000E+00 0.  1.
         11    1    1    2    0    0  0.55087490662E+01 -0.45677407565E+02 -0.14876780245E+03  0.15571971912E+03  0.00000000000E+00 0. -1.
</event>
<event>
 7    1  0.2899775E-009  0.9447571E+02  0.7561462E-02  0.1292361E+00
          1   -1    0    0  501    0  0.00000000000E+00  0.00000000000E+00  0.19937455001E+03  0.19937455001E+03  0.00000000000E+00 0. -1.
         -1   -1    0    0    0  501 -0.00000000000E+00 -0.00000000000E+00 -0.13529077046E+03  0.13529077046E+03  0.00000000000E+00 0.  1.
         25    2    1    2    0    0  0.31040427609E+01  0.74241877904E+02  0.13740214350E+03  0.20011848561E+03  0.12508624116E+03 0.  0.
          5    1    3    3  502    0  0.24281187757E+02  0.13840027860E+01  0.11953806081E+03  0.12205864134E+03  0.41800000000E+01 0.  1.
         -5    1    3    3    0  502 -0.21177144996E+02  0.72857875118E+02  0.17864082683E+02  0.78059844267E+02  0.41800000000E+01 0.  1.
        -11    1    1    2    0    0  0.21274463057E+02 -0.21830667232E+02 -0.70346603331E+02  0.76666977313E+02  0.00000000000E+00 0.  1.
         11    1    1    2    0    0 -0.24378505818E+02 -0.52411210672E+02 -0.29717606164E+01  0.57879857560E+02  0.00000000000E+00 0. -1.
</event>
<event>
 7    1  0.2899775E-009  0.7231270E+02  0.7561462E-02  0.1352401E+00
          3   -1    0    0  501    0  0.00000000000E+00  0.00000000000E+00  0.61989076464E+03  0.61989076464E+03  0.00000000000E+00 0. -1.
         -3   -1    0    0    0  501 -0.00000000000E+00 -0.00000000000E+00 -0.21028071678E+02  0.21028071678E+02  0.00000000000E+00 0.  1.
         25    2    1    2    0    0 -0.23181091871E+02 -0.47928573519E+01  0.43348491837E+03  0.45179520588E+03  0.12509755832E+03 0.  0.
          5    1    3    3  502    0 -0.20818794382E+02 -0.41195936360E+02  0.39814354323E+03  0.40083198574E+03  0.41800000000E+01 0. -1.
         -5    1    3    3    0  502 -0.23622974884E+01  0.36403079008E+02  0.35341375140E+02  0.50963220144E+02  0.41800000000E+01 0. -1.
        -11    1    1    2    0    0  0.33474112651E+02  0.23021621057E+02  0.16307952971E+03  0.16806381010E+03  0.00000000000E+00 0.  1.
         11    1    1    2    0    0 -0.10293020780E+02 -0.18228763705E+02  0.22982448726E+01  0.21059820334E+02  0.00000000000E+00 0. -1.
</event>
<event>
 7    1  0.2899775E-009  0.7343713E+02  0.7561462E-02  0.1348780E+00
         -2   -1    0    0    0  501 -0.00000000000E+00  0.00000000000E+00  0.17683797152E+03  0.17683797152E+03  0.00000000000E+00 0.  1.
          2   -1    0    0  501    0  0.00000000000E+00 -0.00000000000E+00 -0.72591379399E+02  0.72591379399E+02  0.00000000000E+00 0. -1.
         25    2    1    2    0    0 -0.17931884874E+02 -0.24611663628E+02  0.58119205374E+02  0.14124206846E+03  0.12507674999E+03 0.  0.
          5    1    3    3  502    0 -0.43958203942E+02 -0.57214246126E+02  0.34596362434E+01  0.72354924756E+02  0.41800000000E+01 0. -1.
         -5    1    3    3    0  502  0.26026319067E+02  0.32602582499E+02  0.54659569131E+02  0.68887143701E+02  0.41800000000E+01 0. -1.
        -11    1    1    2    0    0  0.14564894618E+02  0.99648720192E+01  0.74240524872E+02  0.76309176138E+02  0.00000000000E+00 0.  1.
         11    1    1    2    0    0  0.33669902565E+01  0.14646791609E+02 -0.28113138123E+02  0.31878106326E+02  0.00000000000E+00 0. -1.
</event>
<event>
 7    1  0.2899775E-009  0.1029744E+03  0.7561462E-02  0.1274163E+00
         -2   -1    0    0    0  501 -0.00000000000E+00  0.00000000000E+00  0.23180204269E+02  0.23180204269E+02  0.00000000000E+00 0.  1.
          2   -1    0    0  501    0  0.00000000000E+00 -0.00000000000E+00 -0.66409589312E+03  0.66409589312E+03  0.00000000000E+00 0. -1.
         25    2    1    2    0    0 -0.31389224080E+02  0.25054093371E+02 -0.48387157761E+03  0.50139031411E+03  0.12509017739E+03 0.  0.
          5    1    3    3  502    0 -0.38302659102E+02 -0.44897794488E+02 -0.26268480762E+03  0.26926508537E+03  0.41800000000E+01 0.  1.
         -5    1    3    3    0  502  0.69134350221E+01  0.69951887858E+02 -0.22118676999E+03  0.23212522874E+03  0.41800000000E+01 0.  1.
        -11    1    1    2    0    0  0.27951957024E+02  0.17954903581E+02 -0.13174556962E+03  0.13586973754E+03  0.00000000000E+00 0. -1.
         11    1    1    2    0    0  0.34372670551E+01 -0.43008996952E+02 -0.25298541620E+02  0.50016045742E+02  0.00000000000E+00 0.  1.
</event>
<event>
 7    1  0.2899775E-009  0.2220073E+03  0.7561462E-02  0.1132395E+00
         -2   -1    0    0    0  501 -0.00000000000E+00  0.00000000000E+00  0.97355121742E+02  0.97355121742E+02  0.00000000000E+00 0.  1.
          2   -1    0    0  501    0  0.00000000000E+00 -0.00000000000E+00 -0.56551650188E+03  0.56551650188E+03  0.00000000000E+00 0. -1.
         25    2    1    2    0    0  0.18831947088E+03 -0.73114580459E+02 -0.17610132671E+03  0.29575006939E+03  0.12508581569E+03 0.  0.
          5    1    3    3  502    0  0.65351551249E+02  0.31878448765E+02 -0.77337523728E+02  0.10623382570E+03  0.41800000000E+01 0.  1.
         -5    1    3    3    0  502  0.12296791963E+03 -0.10499302922E+03 -0.98763802985E+02  0.18951624369E+03  0.41800000000E+01 0.  1.
        -11    1    1    2    0    0 -0.14190631948E+03  0.79382839820E+02 -0.16478050132E+03  0.23149870925E+03  0.00000000000E+00 0.  1.
         11    1    1    2    0    0 -0.46413151393E+02 -0.62682593614E+01 -0.12727955211E+03  0.13562284498E+03  0.00000000000E+00 0. -1.
</event>
<event>
 7    1  0.2899775E-009  0.1316735E+03  0.7561462E-02  0.1224994E+00
          1   -1    0    0  501    0  0.00000000000E+00  0.00000000000E+00  0.10914120134E+03  0.10914120134E+03  0.00000000000E+00 0. -1.
         -1   -1    0    0    0  501 -0.00000000000E+00 -0.00000000000E+00 -0.24238263017E+03  0.24238263017E+03  0.00000000000E+00 0.  1.
         25    2    1    2    0    0 -0.88900353101E+02 -0.57962596058E+02 -0.13621999357E+03  0.21323319092E+03  0.12509824835E+03 0.  0.
          5    1    3    3  502    0 -0.15652598455E+01  0.12459771960E+02  0.18083417621E+02  0.22409336191E+02  0.41800000000E+01 0.  1.
         -5    1    3    3    0  502 -0.87335093256E+02 -0.70422368018E+02 -0.15430341119E+03  0.19082385473E+03  0.41800000000E+01 0.  1.
        -11    1    1    2    0    0  0.65775490034E+02 -0.95637392052E+01 -0.39147531610E+01  0.66582321146E+02  0.00000000000E+00 0.  1.
         11    1    1    2    0    0  0.23124863067E+02  0.67526335263E+02  0.68933178964E+01  0.71708319445E+02  0.00000000000E+00 0. -1.
</event>
<event>
 7    1  0.2899775E-009  0.8679058E+02  0.7561462E-02  0.1310815E+00
         -2   -1    0    0    0  501 -0.00000000000E+00  0.00000000000E+00  0.34503678098E+02  0.34503678098E+02  0.00000000000E+00 0.  1.
          2   -1    0    0  501    0  0.00000000000E+00 -0.00000000000E+00 -0.41375295391E+03  0.41375295391E+03  0.00000000000E+00 0. -1.
         25    2    1    2    0    0 -0.41501479190E+02  0.14838745009E+01 -0.26871577064E+03  0.29930091694E+03  0.12509316062E+03 0.  0.
          5    1    3    3  502    0 -0.61446483706E+02 -0.22527164131E+02 -0.62158002054E+02  0.90356145905E+02  0.41800000000E+01 0.  1.
         -5    1    3    3    0  502  0.19945004516E+02  0.24011038632E+02 -0.20655776858E+03  0.20894477104E+03  0.41800000000E+01 0.  1.
        -11    1    1    2    0    0 -0.53226451312E+01 -0.23978388544E+02 -0.89673960161E+02  0.92976947677E+02  0.00000000000E+00 0. -1.
         11    1    1    2    0    0  0.46824124321E+02  0.22494514043E+02 -0.20859545018E+02  0.55978767393E+02  0.00000000000E+00 0.  1.
</event>
<event>
 7    1  0.2899775E-009  0.1404293E+03  0.7561462E-02  0.1212753E+00
          1   -1    0    0  501    0  0.00000000000E+00  0.00000000000E+00  0.39750781755E+03  0.39750781755E+03  0.00000000000E+00 0. -1.
         -1   -1    0    0    0  501 -0.00000000000E+00 -0.00000000000E+00 -0.57888245373E+02  0.57888245373E+02  0.00000000000E+00 0.  1.
         25    2    1    2    0    0  0.96135280446E+02 -0.42741853564E+02  0.18481003083E+03  0.24672012418E+03  0.12508882439E+03 0.  0.
          5    1    3    3  502    0  0.37965163099E+02 -0.69346953845E+02  0.40748678081E+02  0.89040893875E+02  0.41800000000E+01 0.  1.
         -5    1    3    3    0  502  0.58170117347E+02  0.26605100280E+02  0.14406135275E+03  0.15767923031E+03  0.41800000000E+01 0.  1.
        -11    1    1    2    0    0 -0.89988282284E+02 -0.43521072029E+01  0.11867724197E+03  0.14900040117E+03  0.00000000000E+00 0.  1.
         11    1    1    2    0    0 -0.61469981611E+01  0.47093960767E+02  0.36132299368E+02  0.59675537574E+02  0.00000000000E+00 0. -1.
</event>
<event>
 7    1  0.2899775E-009  0.8938551E+02  0.7561462E-02  0.1304347E+00
          1   -1    0    0  501    0  0.00000000000E+00  0.00000000000E+00  0.39503200499E+03  0.39503200499E+03  0.00000000000E+00 0. -1.
         -1   -1    0    0    0  501 -0.00000000000E+00 -0.00000000000E+00 -0.33652965128E+02  0.33652965128E+02  0.00000000000E+00 0.  1.
         25    2    1    2    0    0 -0.24427510542E+02  0.30788220525E+02  0.22543729411E+03  0.26079440653E+03  0.12508849310E+03 0.  0.
          5    1    3    3  502    0  0.22248554899E+02 -0.19494404722E+02  0.16967529434E+03  0.17228525161E+03  0.41800000000E+01 0.  1.
         -5    1    3    3    0  502 -0.46676065441E+02  0.50282625247E+02  0.55761999767E+02  0.88509154921E+02  0.41800000000E+01 0.  1.
        -11    1    1    2    0    0  0.23782227903E+02  0.18956297356E+02  0.92609953803E+01  0.31791533604E+02  0.00000000000E+00 0.  1.
         11    1    1    2    0    0  0.64528263949E+00 -0.49744517881E+02  0.12668075037E+03  0.13609902999E+03  0.00000000000E+00 0. -1.
</event>
<event>
 7    1  0.2899775E-009  0.9067348E+02  0.7561462E-02  0.1301229E+00
         -1   -1    0    0    0  501 -0.00000000000E+00  0.00000000000E+00  0.44980807851E+02  0.44980807851E+02  0.00000000000E+00 0.  1.
          1   -1    0    0  501    0  0.00000000000E+00 -0.00000000000E+00 -0.29628873998E+03  0.29628873998E+03  0.00000000000E+00 0. -1.
         25    2    1    2    0    0 -0.38173079339E+02 -0.16137131981E+02 -0.14525696834E+03  0.19611790554E+03  0.12508019431E+03 0.  0.
          5    1    3    3  502    0 -0.59274040584E+02 -0.48335946417E+02 -0.13633635999E+03  0.15638046891E+03  0.41800000000E+01 0.  1.
         -5    1    3    3    0  502  0.21100961245E+02  0.32198814436E+02 -0.89206083555E+01  0.39737436630E+02  0.41800000000E+01 0.  1.
        -11    1    1    2    0    0  0.86694974177E+01 -0.18557458012E+02 -0.96458558320E+02  0.98609294220E+02  0.00000000000E+00 0. -1.
         11    1    1    2    0    0  0.29503581922E+02  0.34694589993E+02 -0.95924054663E+01  0.46542348067E+02  0.00000000000E+00 0.  1.
</event>
<event>
 7    1  0.2899775E-009  0.1100760E+03  0.7561462E-02  0.1260429E+00
          2   -1    0    0  501    0  0.00000000000E+00  0.00000000000E+00  0.33180027827E+03  0.33180027827E+03  0.00000000000E+00 0. -1.
         -2   -1    0    0    0  501 -0.00000000000E+00 -0.00000000000E+00 -0.44371767893E+02  0.44371767893E+02  0.00000000000E+00 0.  1.
         25    2    1    2    0    0  0.13038904822E+02 -0.51059811476E+02  0.19150925108E+03  0.23473781170E+03  0.12509568180E+03 0.  0.
          5    1    3    3  502    0 -0.36994881034E+02  0.12376653495E+02  0.17737897632E+02  0.43057034116E+02  0.41800000000E+01 0.  1.
         -5    1    3    3    0  502  0.50033785857E+02 -0.63436464971E+02  0.17377135345E+03  0.19168077758E+03  0.41800000000E+01 0.  1.
        -11    1    1    2    0    0 -0.13946779123E+02  0.74885981856E+02  0.54571087036E+02  0.93703929836E+02  0.00000000000E+00 0.  1.
         11    1    1    2    0    0  0.90787430115E+00 -0.23826170380E+02  0.41348172265E+02  0.47730304633E+02  0.00000000000E+00 0. -1.
</event>
<event>
 7    1  0.2899775E-009  0.2904550E+03  0.7561462E-02  0.1090112E+00
          1   -1    0    0  501    0  0.00000000000E+00  0.00000000000E+00  0.10605600845E+04  0.10605600845E+04  0.00000000000E+00 0. -1.
         -1   -1    0    0    0  501 -0.00000000000E+00 -0.00000000000E+00 -0.89720475274E+02  0.89720475274E+02  0.00000000000E+00 0.  1.
         25    2    1    2    0    0  0.10458591658E+03 -0.26774506981E+03  0.44643180031E+03  0.54550352469E+03  0.12508839581E+03 0.  0.
          5    1    3    3  502    0  0.38697838171E+02 -0.83630808210E+02  0.53639040517E+02  0.10670639076E+03  0.41800000000E+01 0.  1.
         -5    1    3    3    0  502  0.65888078405E+02 -0.18411426160E+03  0.39279275979E+03  0.43879713393E+03  0.41800000000E+01 0.  1.
        -11    1    1    2    0    0  0.63799643605E+01  0.30474234347E+02  0.21795966951E+02  0.38005882171E+02  0.00000000000E+00 0.  1.
         11    1    1    2    0    0 -0.11096588094E+03  0.23727083546E+03  0.50261184194E+03  0.56677115289E+03  0.00000000000E+00 0. -1.
</event>
<event>
 7    1  0.2899775E-009  0.1182801E+03  0.7561462E-02  0.1245962E+00
         -2   -1    0    0    0  501 -0.00000000000E+00  0.00000000000E+00  0.27518643596E+02  0.27518643596E+02  0.00000000000E+00 0.  1.
          2   -1    0    0  501    0  0.00000000000E+00 -0.00000000000E+00 -0.84233616217E+03  0.84233616217E+03  0.00000000000E+00 0. -1.
         25    2    1    2    0    0  0.88673613916E+02  0.49381011541E+02 -0.51359578058E+03  0.53826703175E+03  0.12509707245E+03 0.  0.
          5    1    3    3  502    0 -0.99450386040E+01 -0.35851076926E+01  0.11937907377E+01  0.11430412343E+02  0.41800000000E+01 0.  1.
         -5    1    3    3    0  502  0.98618652520E+02  0.52966119233E+02 -0.51478957131E+03  0.52683661940E+03  0.41800000000E+01 0.  1.
        -11    1    1    2    0    0 -0.71515357867E+02 -0.12642435459E+02 -0.85920499698E+02  0.11250159934E+03  0.00000000000E+00 0.  1.
         11    1    1    2    0    0 -0.17158256049E+02 -0.36738576082E+02 -0.21530123830E+03  0.21908617469E+03  0.00000000000E+00 0. -1.
</event>
<event>
 7    1  0.2899775E-009  0.1162173E+03  0.7561462E-02  0.1249471E+00
          2   -1    0    0  501    0  0.00000000000E+00  0.00000000000E+00  0.83229578224E+03  0.83229578224E+03  0.00000000000E+00 0. -1.
         -2   -1    0    0    0  501 -0.00000000000E+00 -0.00000000000E+00 -0.23116948263E+02  0.23116948263E+02  0.00000000000E+00 0.  1.
         25    2    1    2    0    0 -0.67451362816E+02  0.83347160668E+01  0.61109714605E+03  0.62745952868E+03  0.12508630770E+03 0.  0.
          5    1    3    3  502    0  0.28491391802E+02 -0.22216047964E+02  0.97361707117E+02  0.10393308716E+03  0.41800000000E+01 0.  1.
         -5    1    3    3    0  502 -0.95942754619E+02  0.30550764030E+02  0.51373543894E+03  0.52352644152E+03  0.41800000000E+01 0.  1.
        -11    1    1    2    0    0 -0.37911735476E+01  0.18706192518E+02  0.40733896757E+01  0.19516330055E+02  0.00000000000E+00 0.  1.
         11    1    1    2    0    0  0.71242536364E+02 -0.27040908585E+02  0.19400829825E+03  0.20843687177E+03  0.00000000000E+00 0. -1.
</event>
<event>
 7    1  0.2899775E-009  0.1345767E+03  0.7561462E-02  0.1220819E+00
          1   -1    0    0  501    0  0.00000000000E+00  0.00000000000E+00  0.81533362729E+02  0.81533362729E+02  0.00000000000E+00 0. -1.
         -1   -1    0    0    0  501 -0.00000000000E+00 -0.00000000000E+00 -0.27111704622E+03  0.27111704622E+03  0.00000000000E+00 0.  1.
         25    2    1    2    0    0  0.10093701544E+02 -0.91847520697E+02 -0.15608928614E+03  0.22033898701E+03  0.12509018379E+03 0.  0.
          5    1    3    3  502    0  0.48822828005E+02 -0.10244799772E+03 -0.10057196875E+03  0.15169526713E+03  0.41800000000E+01 0. -1.
         -5    1    3    3    0  502 -0.38729126461E+02  0.10600477020E+02 -0.55517317391E+02  0.68643719886E+02  0.41800000000E+01 0. -1.
        -11    1    1    2    0    0 -0.16012912095E+02 -0.60684539931E+01 -0.29530861122E+02  0.34136655463E+02  0.00000000000E+00 0.  1.
         11    1    1    2    0    0  0.59192105511E+01  0.97915974690E+02 -0.39635362321E+01  0.98174766476E+02  0.00000000000E+00 0. -1.
</event>
<event>
 7    1  0.2899775E-009  0.2465066E+03  0.7561462E-02  0.1115533E+00
         -2   -1    0    0    0  501 -0.00000000000E+00  0.00000000000E+00  0.34610136975E+02  0.34610136975E+02  0.00000000000E+00 0.  1.
          2   -1    0    0  501    0  0.00000000000E+00 -0.00000000000E+00 -0.20613719485E+04  0.20613719485E+04  0.00000000000E+00 0. -1.
         25    2    1    2    0    0  0.23259211861E+03 -0.13931805228E+02 -0.75744366051E+03  0.80228588452E+03  0.12509417579E+03 0.  0.
          5    1    3    3  502    0  0.17515416795E+03 -0.41693881446E+02 -0.39331052296E+03  0.43258294254E+03  0.41800000000E+01 0. -1.
         -5    1    3    3    0  502  0.57437950665E+02  0.27762076219E+02 -0.36413313755E+03  0.36970294198E+03  0.41800000000E+01 0. -1.
        -11    1    1    2    0    0 -0.18417589916E+03 -0.26287059906E+02 -0.89623201977E+03  0.91533797289E+03  0.00000000000E+00 0.  1.
         11    1    1    2    0    0 -0.48416219451E+02  0.40218865134E+02 -0.37308613125E+03  0.37835822807E+03  0.00000000000E+00 0. -1.
</event>
<event>
 7    1  0.2899775E-009  0.1406158E+03  0.7561462E-02  0.1212503E+00
          3   -1    0    0  501    0  0.00000000000E+00  0.00000000000E+00  0.32191008397E+03  0.32191008397E+03  0.00000000000E+00 0. -1.
         -3   -1    0    0    0  501 -0.00000000000E+00 -0.00000000000E+00 -0.19342153951E+03  0.19342153951E+03  0.00000000000E+00 0.  1.
         25    2    1    2    0    0 -0.95470147657E+02 -0.35796876877E+02  0.27281225539E+03  0.31696796856E+03  0.12508477490E+03 0.  0.
          5    1    3    3  502    0 -0.61684073901E+02  0.31872113330E+02  0.62802426584E+02  0.93714319962E+02  0.41800000000E+01 0. -1.
         -5    1    3    3    0  502 -0.33786073756E+02 -0.67668990208E+02  0.21000982881E+03  0.22325364860E+03  0.41800000000E+01 0. -1.
        -11    1    1    2    0    0  0.14705817098E+02  0.51577157956E+02 -0.52287894063E+02  0.74903191821E+02  0.00000000000E+00 0. -1.
         11    1    1    2    0    0  0.80764330559E+02 -0.15780281079E+02 -0.92035816869E+02  0.12346046310E+03  0.00000000000E+00 0.  1.
</event>
<event>
 7    1  0.2899775E-009  0.1421614E+03  0.7561462E-02  0.1210450E+00
         -1   -1    0    0    0  501 -0.00000000000E+00  0.00000000000E+00  0.22418874205E+03  0.22418874205E+03  0.00000000000E+00 0.  1.
          1   -1    0    0  501    0  0.00000000000E+00 -0.00000000000E+00 -0.13941326774E+03  0.13941326774E+03  0.00000000000E+00 0. -1.
         25    2    1    2    0    0 -0.64467073197E+02 -0.84290310489E+02  0.13708740981E+03  0.21379165651E+03  0.12511216766E+03 0.  0.
          5    1    3    3  502    0  0.25385186063E+02 -0.11176436483E+02  0.79611489028E+02  0.84408423686E+02  0.41800000000E+01 0. -1.
         -5    1    3    3    0  502 -0.89852259261E+02 -0.73113874006E+02  0.57475920779E+02  0.12938323282E+03  0.41800000000E+01 0. -1.
        -11    1    1    2    0    0  0.85663335862E+02  0.82751244147E+02 -0.45362608414E+02  0.12745093864E+03  0.00000000000E+00 0.  1.
         11    1    1    2    0    0 -0.21196262665E+02  0.15390663423E+01 -0.69493270796E+01  0.22359414639E+02  0.00000000000E+00 0. -1.
</event>
<event>
 7    1  0.2899775E-009  0.2395756E+03  0.7561462E-02  0.1120076E+00
         -1   -1    0    0    0  501 -0.00000000000E+00  0.00000000000E+00  0.73174604431E+02  0.73174604431E+02  0.00000000000E+00 0.  1.
          1   -1    0    0  501    0  0.00000000000E+00 -0.00000000000E+00 -0.18732387374E+04  0.18732387374E+04  0.00000000000E+00 0. -1.
         25    2    1    2    0    0 -0.16457199120E+03  0.16572208840E+03 -0.16101528041E+04  0.16318049269E+04  0.12509003164E+03 0.  0.
          5    1    3    3  502    0 -0.16006606355E+03  0.12314603738E+03 -0.15001728138E+04  0.15137113446E+04  0.41800000000E+01 0.  1.
         -5    1    3    3    0  502 -0.45059276466E+01  0.42576051018E+02 -0.10997999034E+03  0.11809358230E+03  0.41800000000E+01 0.  1.
        -11    1    1    2    0    0  0.94169059470E+02 -0.83168873800E+02 -0.15730043611E+03  0.20131641893E+03  0.00000000000E+00 0. -1.
         11    1    1    2    0    0  0.70402931726E+02 -0.82553214597E+02 -0.32610892779E+02  0.11329199603E+03  0.00000000000E+00 0.  1.
</event>
<event>
 7    1  0.2899775E-009  0.9557496E+02  0.7561462E-02  0.1289886E+00
          1   -1    0    0  501    0  0.00000000000E+00  0.00000000000E+00  0.28480114499E+04  0.28480114499E+04  0.00000000000E+00 0. -1.
         -1   -1    0    0    0  501 -0.00000000000E+00 -0.00000000000E+00 -0.84547231616E+01  0.84547231616E+01  0.00000000000E+00 0.  1.
         25    2    1    2    0    0 -0.28370130086E+02 -0.17381559696E+02  0.24909580193E+04  0.24943185591E+04  0.12508492094E+03 0.  0.
          5    1    3    3  502    0  0.30765455487E+02  0.24673600038E+01  0.18621267122E+04  0.18623871686E+04  0.41800000000E+01 0. -1.
         -5    1    3    3    0  502 -0.59135585573E+02 -0.19848919700E+02  0.62883130714E+03  0.63193139053E+03  0.41800000000E+01 0. -1.
        -11    1    1    2    0    0  0.28788397412E+02 -0.34878301323E+02  0.14120056941E+03  0.14826620833E+03  0.00000000000E+00 0.  1.
         11    1    1    2    0    0 -0.41826732643E+00  0.52259861019E+02  0.20739813803E+03  0.21388140564E+03  0.00000000000E+00 0. -1.
</event>
<event>
 7    1  0.2899775E-009  0.1150719E+03  0.7561462E-02  0.1251456E+00
         -1   -1    0    0    0  501 -0.00000000000E+00  0.00000000000E+00  0.72452317265E+02  0.72452317265E+02  0.00000000000E+00 0.  1.
          1   -1    0    0  501    0  0.00000000000E+00 -0.00000000000E+00 -0.27795491399E+03  0.27795491399E+03  0.00000000000E+00 0. -1.
         25    2    1    2    0    0  0.48681897746E+02  0.30072153325E+02 -0.23735374544E+02  0.13958705677E+03  0.12508763663E+03 0.  0.
          5    1    3    3  502    0  0.88708595116E+02  0.13488385640E+02 -0.31859198235E+02  0.95308091508E+02  0.41800000000E+01 0.  1.
         -5    1    3    3    0  502 -0.40026697370E+02  0.16583767685E+02  0.81238236903E+01  0.44278965258E+02  0.41800000000E+01 0.  1.
        -11    1    1    2    0    0 -0.44374984289E+02 -0.55467044286E+02 -0.85453445761E+02  0.11112166137E+03  0.00000000000E+00 0.  1.
         11    1    1    2    0    0 -0.43069134574E+01  0.25394890961E+02 -0.96313776419E+02  0.99698513122E+02  0.00000000000E+00 0. -1.
</event>
<event>
 7    1  0.2899775E-009  0.9872903E+02  0.7561462E-02  0.1282992E+00
          1   -1    0    0  501    0  0.00000000000E+00  0.00000000000E+00  0.44793689537E+03  0.44793689537E+03  0.00000000000E+00 0. -1.
         -1   -1    0    0    0  501 -0.00000000000E+00 -0.00000000000E+00 -0.25284078473E+02  0.25284078473E+02  0.00000000000E+00 0.  1.
         25    2    1    2    0    0 -0.14425733170E+02  0.31701316805E+01  0.27432687898E+03  0.30186266936E+03  0.12509069955E+03 0.  0.
          5    1    3    3  502    0  0.17953477136E+02 -0.55636405584E+02  0.12213487249E+03  0.13547005738E+03  0.41800000000E+01 0. -1.
         -5    1    3    3    0  502 -0.32379210306E+02  0.58806537265E+02  0.15219200649E+03  0.16639261199E+03  0.41800000000E+01 0. -1.
        -11    1    1    2    0    0  0.20840483882E+02 -0.34118428813E+02  0.12721707230E+03  0.13335132710E+03  0.00000000000E+00 0. -1.
         11    1    1    2    0    0 -0.64147507125E+01  0.30948297133E+02  0.21108865616E+02  0.38006977382E+02  0.00000000000E+00 0.  1.
</event>
<event>
 7    1  0.2899775E-009  0.9041258E+02  0.7561462E-02  0.1301856E+00
          1   -1    0    0  501    0  0.00000000000E+00  0.00000000000E+00  0.78525081167E+02  0.78525081167E+02  0.00000000000E+00 0. -1.
         -1   -1    0    0    0  501 -0.00000000000E+00 -0.00000000000E+00 -0.16868847774E+03  0.16868847774E+03  0.00000000000E+00 0.  1.
         25    2    1    2    0    0  0.39103857592E+02  0.34106928255E+01 -0.55676772210E+02  0.14243641602E+03  0.12508990823E+03 0.  0.
          5    1    3    3  502    0 -0.34914040791E+02  0.35049943957E+02 -0.13437672717E+02  0.51434737909E+02  0.41800000000E+01 0. -1.
         -5    1    3    3    0  502  0.74017898383E+02 -0.31639251131E+02 -0.42239099493E+02  0.91001678112E+02  0.41800000000E+01 0. -1.
        -11    1    1    2    0    0 -0.32114565162E+01 -0.13024151326E+02  0.28583815155E+02  0.31574934038E+02  0.00000000000E+00 0. -1.
         11    1    1    2    0    0 -0.35892401076E+02  0.96134585003E+01 -0.63070439517E+02  0.73202208848E+02  0.00000000000E+00 0.  1.
</event>
<event>
 7    1  0.2899775E-009  0.1419542E+03  0.7561462E-02  0.1210723E+00
          2   -1    0    0  501    0  0.00000000000E+00  0.00000000000E+00  0.48539582914E+03  0.48539582914E+03  0.00000000000E+00 0. -1.
         -2   -1    0    0    0  501 -0.00000000000E+00 -0.00000000000E+00 -0.56759519161E+02  0.56759519161E+02  0.00000000000E+00 0.  1.
         25    2    1    2    0    0 -0.10750968849E+03  0.59594299735E+02  0.26358915777E+03  0.31660666903E+03  0.12510285811E+03 0.  0.
          5    1    3    3  502    0 -0.18370231591E+02 -0.15969354650E+02  0.15524227724E+03  0.15719453788E+03  0.41800000000E+01 0.  1.
         -5    1    3    3    0  502 -0.89139456895E+02  0.75563654385E+02  0.10834688053E+03  0.15941213116E+03  0.41800000000E+01 0.  1.
        -11    1    1    2    0    0  0.57762599487E+02 -0.70710870821E+02  0.61354322202E+02  0.11000408176E+03  0.00000000000E+00 0.  1.
         11    1    1    2    0    0  0.49747088998E+02  0.11116571086E+02  0.10369283001E+03  0.11554459751E+03  0.00000000000E+00 0. -1.
</event>
<event>
 7    1  0.2899775E-009  0.1560799E+03  0.7561462E-02  0.1193195E+00
          1   -1    0    0  501    0  0.00000000000E+00  0.00000000000E+00  0.18438363138E+03  0.18438363138E+03  0.00000000000E+00 0. -1.
         -1   -1    0    0    0  501 -0.00000000000E+00 -0.00000000000E+00 -0.28367740182E+03  0.28367740182E+03  0.00000000000E+00 0.  1.
         25    2    1    2    0    0 -0.11672904166E+03 -0.42095452088E+02  0.11054033497E+03  0.20799927115E+03  0.12508730908E+03 0.  0.
          5    1    3    3  502    0  0.48675501516E+01  0.26083789720E+02  0.48312175902E+02  0.55277444505E+02  0.41800000000E+01 0. -1.
         -5    1    3    3    0  502 -0.12159659181E+03 -0.68179241808E+02  0.62228159063E+02  0.15272182665E+03  0.41800000000E+01 0. -1.
        -11    1    1    2    0    0  0.33173667040E+02 -0.22612724064E+02 -0.25438074545E+02  0.47528129681E+02  0.00000000000E+00 0.  1.
         11    1    1    2    0    0  0.83555374621E+02  0.64708176151E+02 -0.18439603086E+03  0.21253363237E+03  0.00000000000E+00 0. -1.
</event>
<event>
 7    1  0.2899775E-009  0.1141166E+03  0.7561462E-02  0.1253131E+00
          2   -1    0    0  501    0  0.00000000000E+00  0.00000000000E+00  0.10249641788E+04  0.10249641788E+04  0.00000000000E+00 0. -1.
         -2   -1    0    0    0  501 -0.00000000000E+00 -0.00000000000E+00 -0.21149701989E+02  0.21149701989E+02  0.00000000000E+00 0.  1.
         25    2    1    2    0    0 -0.79097616362E+02 -0.23839250593E+02  0.34818343091E+03  0.37908698208E+03  0.12510194098E+03 0.  0.
          5    1    3    3  502    0 -0.11399333234E+02  0.20956950500E+02  0.25197962924E+03  0.25314095782E+03  0.41800000000E+01 0. -1.
         -5    1    3    3    0  502 -0.67698283127E+02 -0.44796201093E+02  0.96203801667E+02  0.12594602426E+03  0.41800000000E+01 0. -1.
        -11    1    1    2    0    0 -0.10027656125E+02 -0.20768830767E+02  0.13025089689E+03  0.13227696080E+03  0.00000000000E+00 0.  1.
         11    1    1    2    0    0  0.89125272486E+02  0.44608081360E+02  0.52538014899E+03  0.53474993789E+03  0.00000000000E+00 0. -1.
</event>
<event>
 7    1  0.2899775E-009  0.1088503E+03  0.7561462E-02  0.1262714E+00
         -2   -1    0    0    0  501 -0.00000000000E+00  0.00000000000E+00  0.13553018202E+03  0.13553018202E+03  0.00000000000E+00 0.  1.
          2   -1    0    0  501    0  0.00000000000E+00 -0.00000000000E+00 -0.14456539347E+03  0.14456539347E+03  0.00000000000E+00 0. -1.
         25    2    1    2    0    0  0.36113083005E+01  0.64754153405E+02  0.30858788092E+02  0.14424291746E+03  0.12509041731E+03 0.  0.
          5    1    3    3  502    0 -0.49404563459E+02  0.58136748998E+02  0.45187630992E+02  0.88769853381E+02  0.41800000000E+01 0.  1.
         -5    1    3    3    0  502  0.53015871759E+02  0.66174044071E+01 -0.14328842900E+02  0.55473064079E+02  0.41800000000E+01 0.  1.
        -11    1    1    2    0    0  0.20116057553E+02 -0.60291540296E+02  0.23696991090E+02  0.67832683785E+02  0.00000000000E+00 0.  1.
         11    1    1    2    0    0 -0.23727365853E+02 -0.44626131093E+01 -0.63590990631E+02  0.68019974239E+02  0.00000000000E+00 0. -1.
</event>
<event>
 7    1  0.2899775E-009  0.1442420E+03  0.7561462E-02  0.1207732E+00
         -2   -1    0    0    0  501 -0.00000000000E+00  0.00000000000E+00  0.16693365267E+02  0.16693365267E+02  0.00000000000E+00 0.  1.
          2   -1    0    0  501    0  0.00000000000E+00 -0.00000000000E+00 -0.13119596686E+04  0.13119596686E+04  0.00000000000E+00 0. -1.
         25    2    1    2    0    0  0.26738871336E+02  0.94549351370E+02 -0.78976878877E+03  0.80562812848E+03  0.12508954637E+03 0.  0.
          5    1    3    3  502    0  0.45770907112E+02 -0.14398807760E+02 -0.22022697076E+03  0.22543223517E+03  0.41800000000E+01 0. -1.
         -5    1    3    3    0  502 -0.19032035775E+02  0.10894815913E+03 -0.56954181800E+03  0.58019589331E+03  0.41800000000E+01 0. -1.
        -11    1    1    2    0    0  0.19588503044E+02  0.46729742865E+01 -0.39539952469E+02  0.44372896924E+02  0.00000000000E+00 0.  1.
         11    1    1    2    0    0 -0.46327374380E+02 -0.99222325656E+02 -0.46595756212E+03  0.47865200848E+03  0.00000000000E+00 0. -1.
</event>
<event>
 7    1  0.2899775E-009  0.1016705E+03  0.7561462E-02  0.1276822E+00
          2   -1    0    0  501    0  0.00000000000E+00  0.00000000000E+00  0.40844315928E+02  0.40844315928E+02  0.00000000000E+00 0. -1.
         -2   -1    0    0    0  501 -0.00000000000E+00 -0.00000000000E+00 -0.29759913267E+03  0.29759913267E+03  0.00000000000E+00 0.  1.
         25    2    1    2    0    0  0.12221956495E+01  0.20798745990E+02 -0.16237145470E+03  0.20602571869E+03  0.12509206955E+03 0.  0.
          5    1    3    3  502    0  0.62888235379E+02  0.99384801358E+01 -0.88387283098E+02  0.10901141110E+03  0.41800000000E+01 0.  1.
         -5    1    3    3    0  502 -0.61666039730E+02  0.10860265854E+02 -0.73984171601E+02  0.97014307594E+02  0.41800000000E+01 0.  1.
        -11    1    1    2    0    0  0.35636435192E+02 -0.17705951547E+02 -0.85605746241E+02  0.94402330601E+02  0.00000000000E+00 0.  1.
         11    1    1    2    0    0 -0.36858630841E+02 -0.30927944426E+01 -0.87776158013E+01  0.38015399302E+02  0.00000000000E+00 0. -1.
</event>
<event>
 7    1  0.2899775E-009  0.7527857E+02  0.7561462E-02  0.1343011E+00
         -1   -1    0    0    0  501 -0.00000000000E+00  0.00000000000E+00  0.30754512143E+03  0.30754512143E+03  0.00000000000E+00 0.  1.
          1   -1    0    0  501    0  0.00000000000E+00 -0.00000000000E+00 -0.44659103014E+02  0.44659103014E+02  0.00000000000E+00 0. -1.
         25    2    1    2    0    0  0.25091172081E+02 -0.30055904738E+02  0.11121604503E+03  0.17189886988E+03  0.12508912211E+03 0.  0.
          5    1    3    3  502    0 -0.73430316747E+01  0.11256227171E+02 -0.23417942330E+02  0.27322064111E+02  0.41800000000E+01 0. -1.
         -5    1    3    3    0  502  0.32434203756E+02 -0.41312131909E+02  0.13463398736E+03  0.14457680577E+03  0.41800000000E+01 0. -1.
        -11    1    1    2    0    0 -0.33507944977E+02 -0.15888746712E+02  0.23533821752E+02  0.43921241045E+02  0.00000000000E+00 0. -1.
         11    1    1    2    0    0  0.84167728965E+01  0.45944651450E+02  0.12813615164E+03  0.13638411352E+03  0.00000000000E+00 0.  1.
</event>
<event>
 7    1  0.2899775E-009  0.1266955E+03  0.7561462E-02  0.1232443E+00
          1   -1    0    0  501    0  0.00000000000E+00  0.00000000000E+00  0.13065946570E+04  0.13065946570E+04  0.00000000000E+00 0. -1.
         -1   -1    0    0    0  501 -0.00000000000E+00 -0.00000000000E+00 -0.25571165570E+02  0.25571165570E+02  0.00000000000E+00 0.  1.
         25    2    1    2    0    0  0.98784645289E+02  0.67814080795E+02  0.97213624418E+03  0.98744814591E+03  0.12509119839E+03 0.  0.
          5    1    3    3  502    0  0.10341896554E+03  0.52036803251E+02  0.43858328203E+03  0.45362548319E+03  0.41800000000E+01 0. -1.
         -5    1    3    3    0  502 -0.46343202510E+01  0.15777277543E+02  0.53355296215E+03  0.53382266272E+03  0.41800000000E+01 0. -1.
        -11    1    1    2    0    0 -0.38024876331E+02 -0.34176200847E+02  0.34500256428E+02  0.61677967038E+02  0.00000000000E+00 0.  1.
         11    1    1    2    0    0 -0.60759768958E+02 -0.33637879947E+02  0.27438699084E+03  0.28303970964E+03  0.00000000000E+00 0. -1.
</event>
<event>
 7    1  0.2899775E-009  0.1541323E+03  0.7561462E-02  0.1195485E+00
          1   -1    0    0  501    0  0.00000000000E+00  0.00000000000E+00  0.96017982063E+02  0.96017982063E+02  0.00000000000E+00 0. -1.
         -1   -1    0    0    0  501 -0.00000000000E+00 -0.00000000000E+00 -0.28235868284E+03  0.28235868284E+03  0.00000000000E+00 0.  1.
         25    2    1    2    0    0  0.54554766130E+01 -0.11744568969E+03 -0.56507067905E+02  0.18073503556E+03  0.12509537204E+03 0.  0.
          5    1    3    3  502    0  0.55399320715E+02 -0.76701128972E+02  0.31342792962E+00  0.94708598123E+02  0.41800000000E+01 0. -1.
         -5    1    3    3    0  502 -0.49943844102E+02 -0.40744560721E+02 -0.56820495834E+02  0.86026437441E+02  0.41800000000E+01 0. -1.
        -11    1    1    2    0    0 -0.40552521430E+02  0.19649254370E+02 -0.41624099444E+02  0.61344648065E+02  0.00000000000E+00 0.  1.
         11    1    1    2    0    0  0.35097044817E+02  0.97796435322E+02 -0.88209533430E+02  0.13629698127E+03  0.00000000000E+00 0. -1.
</event>
<event>
 7    1  0.2899775E-009  0.8924561E+02  0.7561462E-02  0.1304689E+00
          2   -1    0    0  501    0  0.00000000000E+00  0.00000000000E+00  0.27522070336E+03  0.27522070336E+03  0.00000000000E+00 0. -1.
         -2   -1    0    0    0  501 -0.00000000000E+00 -0.00000000000E+00 -0.37390000842E+02  0.37390000842E+02  0.00000000000E+00 0.  1.
         25    2    1    2    0    0  0.48467596029E+02  0.65369247390E+01  0.17207053999E+03  0.21827805180E+03  0.12508076557E+03 0.  0.
          5    1    3    3  502    0  0.56748921332E+02  0.44447393908E+02  0.16290177900E+03  0.17818662379E+03  0.41800000000E+01 0.  1.
         -5    1    3    3    0  502 -0.82813253031E+01 -0.37910469169E+02  0.91687609889E+01  0.40091428005E+02  0.41800000000E+01 0.  1.
        -11    1    1    2    0    0 -0.39860028773E+02 -0.24885561427E+02  0.50358141897E+02  0.68877104444E+02  0.00000000000E+00 0.  1.
         11    1    1    2    0    0 -0.86075672566E+01  0.18348636688E+02  0.15402020638E+02  0.25455547964E+02  0.00000000000E+00 0. -1.
</event>
<event>
 7    1  0.2899775E-009  0.9336954E+02  0.7561462E-02  0.1294891E+00
          1   -1    0    0  501    0  0.00000000000E+00  0.00000000000E+00  0.92228497130E+02  0.92228497130E+02  0.00000000000E+00 0. -1.
         -1   -1    0    0    0  501 -0.00000000000E+00 -0.00000000000E+00 -0.18217381496E+03  0.18217381496E+03  0.00000000000E+00 0.  1.
         25    2    1    2    0    0 -0.18735867709E+02 -0.82433475354E+01  0.21202702143E+02  0.12851844305E+03  0.12509376526E+03 0.  0.
          5    1    3    3  502    0  0.46783937944E+02  0.24937584219E+02  0.99076365841E+01  0.54094857601E+02  0.41800000000E+01 0.  1.
         -5    1    3    3    0  502 -0.65519805653E+02 -0.33180931754E+02  0.11295065559E+02  0.74423585447E+02  0.41800000000E+01 0.  1.
        -11    1    1    2    0    0  0.17028941665E+02  0.31963277496E+02 -0.11607830373E+03  0.12159691015E+03  0.00000000000E+00 0.  1.
         11    1    1    2    0    0  0.17069260432E+01 -0.23719929960E+02  0.49302837593E+01  0.24286958883E+02  0.00000000000E+00 0. -1.
</event>
<event>
 7    1  0.2899775E-009  0.1241773E+03  0.7561462E-02  0.1236361E+00
         -2   -1    0    0    0  501 -0.00000000000E+00  0.00000000000E+00  0.10087563280E+03  0.10087563280E+03  0.00000000000E+00 0.  1.
          2   -1    0    0  501    0  0.00000000000E+00 -0.00000000000E+00 -0.19503885036E+03  0.19503885036E+03  0.00000000000E+00 0. -1.
         25    2    1    2    0    0  0.84340668327E+02 -0.22612904802E+02 -0.67882450736E+02  0.16697415803E+03  0.12509056932E+03 0.  0.
          5    1    3    3  502    0  0.11474696478E+03 -0.33900331498E+01 -0.61161986229E+02  0.13014076690E+03  0.41800000000E+01 0. -1.
         -5    1    3    3    0  502 -0.30406296451E+02 -0.19222871652E+02 -0.67204645071E+01  0.36833391123E+02  0.41800000000E+01 0. -1.
        -11    1    1    2    0    0 -0.48186018965E+02  0.34437840341E+02 -0.55350573430E+02  0.81065055666E+02  0.00000000000E+00 0. -1.
         11    1    1    2    0    0 -0.36154649363E+02 -0.11824935540E+02  0.29069806600E+02  0.47875269470E+02  0.00000000000E+00 0.  1.
</event>
<event>
 7    1  0.2899775E-009  0.1180377E+03  0.7561462E-02  0.1246370E+00
         -2   -1    0    0    0  501 -0.00000000000E+00  0.00000000000E+00  0.16879408278E+03  0.16879408278E+03  0.00000000000E+00 0.  1.
          2   -1    0    0  501    0  0.00000000000E+00 -0.00000000000E+00 -0.14694812396E+03  0.14694812396E+03  0.00000000000E+00 0. -1.
         25    2    1    2    0    0 -0.83808247706E+02  0.65940143291E+01  0.86185506403E+02  0.17361949564E+03  0.12509390211E+03 0.  0.
          5    1    3    3  502    0 -0.89273161100E+02 -0.21555635220E+02  0.10462071962E+03  0.13927422618E+03  0.41800000000E+01 0. -1.
         -5    1    3    3    0  502  0.54649133940E+01  0.28149649549E+02 -0.18435213220E+02  0.34345269465E+02  0.41800000000E+01 0. -1.
        -11    1    1    2    0    0  0.94864631592E+02 -0.20843627808E+02 -0.73585671263E+02  0.12185485695E+03  0.00000000000E+00 0. -1.
         11    1    1    2    0    0 -0.11056383886E+02  0.14249613479E+02  0.92461236742E+01  0.20267854152E+02  0.00000000000E+00 0.  1.
</event>
<event>
 7    1  0.2899775E-009  0.7083480E+02  0.7561462E-02  0.1357277E+00
         -1   -1    0    0    0  501 -0.00000000000E+00  0.00000000000E+00  0.86674128655E+02  0.86674128655E+02  0.00000000000E+00 0.  1.
          1   -1    0    0  501    0  0.00000000000E+00 -0.00000000000E+00 -0.20915639135E+03  0.20915639135E+03  0.00000000000E+00 0. -1.
         25    2    1    2    0    0  0.28113359713E+02  0.63045992778E+01 -0.14911033806E+03  0.19676788118E+03  0.12511433644E+03 0.  0.
          5    1    3    3  502    0  0.49604004173E+01  0.36358814929E+02 -0.15392833097E+03  0.15829710190E+03  0.41800000000E+01 0. -1.
         -5    1    3    3    0  502  0.23152959296E+02 -0.30054215652E+02  0.48179929141E+01  0.38470779278E+02  0.41800000000E+01 0. -1.
        -11    1    1    2    0    0 -0.77010209916E+00  0.24995514915E+02  0.46649888061E+02  0.52929962018E+02  0.00000000000E+00 0.  1.
         11    1    1    2    0    0 -0.27343257614E+02 -0.31300114193E+02 -0.20021812698E+02  0.46132676805E+02  0.00000000000E+00 0. -1.
</event>
<event>
 7    1  0.2899775E-009  0.1035946E+03  0.7561462E-02  0.1272914E+00
          3   -1    0    0  501    0  0.00000000000E+00  0.00000000000E+00  0.24759330354E+02  0.24759330354E+02  0.00000000000E+00 0. -1.
         -3   -1    0    0    0  501 -0.00000000000E+00 -0.00000000000E+00 -0.67328929149E+03  0.67328929149E+03  0.00000000000E+00 0.  1.
         25    2    1    2    0    0  0.82537245973E+01 -0.60669465284E+02 -0.27322893269E+03  0.30667354176E+03  0.12508278687E+03 0.  0.
          5    1    3    3  502    0  0.40630599776E+02 -0.20815615428E+02 -0.23175735180E+02  0.51368497982E+02  0.41800000000E+01 0.  1.
         -5    1    3    3    0  502 -0.32376875178E+02 -0.39853849855E+02 -0.25005319751E+03  0.25530504378E+03  0.41800000000E+01 0.  1.
        -11    1    1    2    0    0 -0.37619492291E+02  0.69615581148E+02 -0.24300269908E+03  0.25556186550E+03  0.00000000000E+00 0.  1.
         11    1    1    2    0    0  0.29365767694E+02 -0.89461158641E+01 -0.13229832937E+03  0.13581321458E+03  0.00000000000E+00 0. -1.
</event>
<event>
 7    1  0.2899775E-009  0.2228661E+03  0.7561462E-02  0.1131764E+00
         -1   -1    0    0    0  501 -0.00000000000E+00  0.00000000000E+00  0.53526061021E+03  0.53526061021E+03  0.00000000000E+00 0.  1.
          1   -1    0    0  501    0  0.00000000000E+00 -0.00000000000E+00 -0.10667451849E+03  0.10667451849E+03  0.00000000000E+00 0. -1.
         25    2    1    2    0    0  0.16308478696E+03  0.12232044966E+03  0.14008077783E+03  0.27718095545E+03  0.12509083740E+03 0.  0.
          5    1    3    3  502    0  0.12849617505E+03  0.14318696622E+03  0.89264569067E+02  0.21213064368E+03  0.41800000000E+01 0. -1.
         -5    1    3    3    0  502  0.34588611908E+02 -0.20866516563E+02  0.50816208767E+02  0.65050311764E+02  0.41800000000E+01 0. -1.
        -11    1    1    2    0    0 -0.17233232530E+02  0.61745320011E+01  0.69763932145E+02  0.72125691520E+02  0.00000000000E+00 0.  1.
         11    1    1    2    0    0 -0.14585155443E+03 -0.12849498166E+03  0.21874138173E+03  0.29262848174E+03  0.00000000000E+00 0. -1.
</event>
<event>
 7    1  0.2899775E-009  0.1371567E+03  0.7561462E-02  0.1217207E+00
          2   -1    0    0  501    0  0.00000000000E+00  0.00000000000E+00  0.54247802712E+03  0.54247802712E+03  0.00000000000E+00 0. -1.
         -2   -1    0    0    0  501 -0.00000000000E+00 -0.00000000000E+00 -0.40803210202E+02  0.40803210202E+02  0.00000000000E+00 0.  1.
         25    2    1    2    0    0 -0.80789045682E+02 -0.56468523713E+02  0.31347518356E+03  0.35161043148E+03  0.12509053020E+03 0.  0.
          5    1    3    3  502    0 -0.86784814031E+02  0.59058177458E+01  0.12050953152E+03  0.14868255518E+03  0.41800000000E+01 0.  1.
         -5    1    3    3    0  502  0.59957683496E+01 -0.62374341459E+02  0.19296565204E+03  0.20292787630E+03  0.41800000000E+01 0.  1.
        -11    1    1    2    0    0  0.23338648434E+02 -0.18637355898E+02  0.12982674498E+02  0.32566752720E+02  0.00000000000E+00 0.  1.
         11    1    1    2    0    0  0.57450397248E+02  0.75105879612E+02  0.17521695886E+03  0.19910405312E+03  0.00000000000E+00 0. -1.
</event>
<event>
 7    1  0.2899775E-009  0.8704400E+02  0.7561462E-02  0.1310172E+00
         -2   -1    0    0    0  501 -0.00000000000E+00  0.00000000000E+00  0.27373674757E+02  0.27373674757E+02  0.00000000000E+00 0.  1.
          2   -1    0    0  501    0  0.00000000000E+00 -0.00000000000E+00 -0.46939176234E+03  0.46939176234E+03  0.00000000000E+00 0. -1.
         25    2    1    2    0    0 -0.29311310102E+02  0.15607236244E+02 -0.23941393099E+03  0.27214772418E+03  0.12507043897E+03 0.  0.
          5    1    3    3  502    0 -0.33680623878E+02 -0.22532570346E+02 -0.13439424524E+02  0.42897455435E+02  0.41800000000E+01 0.  1.
         -5    1    3    3    0  502  0.43693137760E+01  0.38139806591E+02 -0.22597450647E+03  0.22925026875E+03  0.41800000000E+01 0.  1.
        -11    1    1    2    0    0 -0.91565365400E+00 -0.49392287109E+02 -0.81455102740E+02  0.95264737494E+02  0.00000000000E+00 0.  1.
         11    1    1    2    0    0  0.30226963756E+02  0.33785050865E+02 -0.12114905386E+03  0.12935297542E+03  0.00000000000E+00 0. -1.
</event>
<event>
 6    1  0.2899775E-009  0.1124000E+03  0.7561462E-02  0.1256189E+00
          1   -1    0    0  501    0  0.00000000000E+00  0.00000000000E+00  0.82773600229E+03  0.82773600229E+03  0.00000000000E+00 0. -1.
         -1   -1    0    0    0  501 -0.00000000000E+00 -0.00000000000E+00 -0.21601020425E+02  0.21601020425E+02  0.00000000000E+00 0.  1.
          5    1    1    2  502    0 -0.45213564801E+02  0.15195589965E+02  0.20169018787E+03  0.20729586749E+03  0.41800000000E+01 0. -1.
         -5    1    1    2    0  502  0.80700722693E+02 -0.11913725394E+02  0.44607548046E+03  0.45349239261E+03  0.41800000000E+01 0. -1.
        -11    1    1    2    0    0  0.29362425251E+02  0.52487205775E+01  0.85877659425E+02  0.90910249547E+02  0.00000000000E+00 0. -1.
         11    1    1    2    0    0 -0.64849583142E+02 -0.85305851484E+01  0.72491654117E+02  0.97638513064E+02  0.00000000000E+00 0.  1.
</event>
<event>
 7    1  0.2899775E-009  0.9933798E+02  0.7561462E-02  0.1281694E+00
         -2   -1    0    0    0  501 -0.00000000000E+00  0.00000000000E+00  0.62786757247E+02  0.62786757247E+02  0.00000000000E+00 0.  1.
          2   -1    0    0  501    0  0.00000000000E+00 -0.00000000000E+00 -0.22604267658E+03  0.22604267658E+03  0.00000000000E+00 0. -1.
         25    2    1    2    0    0 -0.40790057070E+02 -0.67442301390E+01 -0.12379836162E+03  0.18078497705E+03  0.12509140734E+03 0.  0.
          5    1    3    3  502    0 -0.69411260410E+02  0.32417747484E+02 -0.10150383537E+03  0.12723731535E+03  0.41800000000E+01 0. -1.
         -5    1    3    3    0  502  0.28621203340E+02 -0.39161977623E+02 -0.22294526251E+02  0.53547661692E+02  0.41800000000E+01 0. -1.
        -11    1    1    2    0    0  0.52431345659E+02 -0.94979796575E+01  0.10436743496E+02  0.54297175248E+02  0.00000000000E+00 0.  1.
         11    1    1    2    0    0 -0.11641288589E+02  0.16242209796E+02 -0.49894301209E+02  0.53747281533E+02  0.00000000000E+00 0. -1.
</event>
<event>
 7    1  0.2899775E-009  0.1411589E+03  0.7561462E-02  0.1211778E+00
         -1   -1    0    0    0  501 -0.00000000000E+00  0.00000000000E+00  0.27922381588E+03  0.27922381588E+03  0.00000000000E+00 0.  1.
          1   -1    0    0  501    0  0.00000000000E+00 -0.00000000000E+00 -0.19136991154E+03  0.19136991154E+03  0.00000000000E+00 0. -1.
         25    2    1    2    0    0 -0.32993559422E+02 -0.98310058962E+02 -0.13306097090E+03  0.21001357478E+03  0.12508811678E+03 0.  0.
          5    1    3    3  502    0 -0.70437797616E+02 -0.51874619703E+02 -0.12041191619E+03  0.14889244932E+03  0.41800000000E+01 0. -1.
         -5    1    3    3    0  502  0.37444238194E+02 -0.46435439259E+02 -0.12649054704E+02  0.61121125464E+02  0.41800000000E+01 0. -1.
        -11    1    1    2    0    0 -0.12746446949E+02  0.86859996747E+02  0.16904660065E+03  0.19048329096E+03  0.00000000000E+00 0.  1.
         11    1    1    2    0    0  0.45740006371E+02  0.11450062215E+02  0.51868274589E+02  0.70096861672E+02  0.00000000000E+00 0. -1.
</event>
<event>
 7    1  0.2899775E-009  0.2097895E+03  0.7561462E-02  0.1141733E+00
          1   -1    0    0  501    0  0.00000000000E+00  0.00000000000E+00  0.16037262141E+04  0.16037262141E+04  0.00000000000E+00 0. -1.
         -1   -1    0    0    0  501 -0.00000000000E+00 -0.00000000000E+00 -0.34082768908E+02  0.34082768908E+02  0.00000000000E+00 0.  1.
         25    2    1    2    0    0  0.19300986896E+03  0.72524075804E+02  0.88336134332E+03  0.91568950477E+03  0.12508978853E+03 0.  0.
          5    1    3    3  502    0  0.14878964944E+03  0.74985568959E+02  0.82830509427E+03  0.84490709366E+03  0.41800000000E+01 0. -1.
         -5    1    3    3    0  502  0.44220219521E+02 -0.24614931549E+01  0.55056249055E+02  0.70782411113E+02  0.41800000000E+01 0. -1.
        -11    1    1    2    0    0 -0.10736447482E+03 -0.24096133516E+02  0.49423734957E+03  0.50633813980E+03  0.00000000000E+00 0. -1.
         11    1    1    2    0    0 -0.85645394139E+02 -0.48427942289E+02  0.19204475231E+03  0.21578133845E+03  0.00000000000E+00 0.  1.
</event>
<event>
 7    1  0.2899775E-009  0.2179912E+03  0.7561462E-02  0.1135390E+00
         -1   -1    0    0    0  501 -0.00000000000E+00  0.00000000000E+00  0.70142463937E+03  0.70142463937E+03  0.00000000000E+00 0.  1.
          1   -1    0    0  501    0  0.00000000000E+00 -0.00000000000E+00 -0.97771151449E+02  0.97771151449E+02  0.00000000000E+00 0. -1.
         25    2    1    2    0    0 -0.12918818704E+03 -0.16597860771E+03  0.13950130973E+03  0.28168626439E+03  0.12509216699E+03 0.  0.
          5    1    3    3  502    0 -0.48704051890E+02 -0.81400924571E+02 -0.59371095466E+01  0.95136306746E+02  0.41800000000E+01 0. -1.
         -5    1    3    3    0  502 -0.80484135154E+02 -0.84577683140E+02  0.14543841927E+03  0.18654995765E+03  0.41800000000E+01 0. -1.
        -11    1    1    2    0    0  0.52710578436E+02  0.14745812109E+02  0.73150131447E+02  0.91360745315E+02  0.00000000000E+00 0. -1.
         11    1    1    2    0    0  0.76477608607E+02  0.15123279560E+03  0.39100204675E+03  0.42614878112E+03  0.00000000000E+00 0.  1.
</event>
<event>
 7    1  0.2899775E-009  0.7844117E+02  0.7561462E-02  0.1333534E+00
         -4   -1    0    0    0  501 -0.00000000000E+00  0.00000000000E+00  0.11077013707E+03  0.11077013707E+03  0.00000000000E+00 0.  1.
          4   -1    0    0  501    0  0.00000000000E+00 -0.00000000000E+00 -0.17108834084E+03  0.17108834084E+03  0.00000000000E+00 0. -1.
         25    2    1    2    0    0  0.68713694085E+01 -0.75740877334E+02 -0.67065356205E+02  0.16102605718E+03  0.12509089843E+03 0.  0.
          5    1    3    3  502    0  0.85675734928E+01 -0.51860393733E+02  0.30203575956E+02  0.60767031803E+02  0.41800000000E+01 0.  1.
         -5    1    3    3    0  502 -0.16962040843E+01 -0.23880483601E+02 -0.97268932160E+02  0.10025902537E+03  0.41800000000E+01 0.  1.
        -11    1    1    2    0    0 -0.15768997460E+02  0.39457394025E+02 -0.41779666617E+02  0.59591004076E+02  0.00000000000E+00 0. -1.
         11    1    1    2    0    0  0.88976280515E+01  0.36283483309E+02  0.48526819056E+02  0.61241416653E+02  0.00000000000E+00 0.  1.
</event>
<event>
 7    1  0.2899775E-009  0.1041109E+03  0.7561462E-02  0.1271881E+00
          1   -1    0    0  501    0  0.00000000000E+00  0.00000000000E+00  0.32112576068E+03  0.32112576068E+03  0.00000000000E+00 0. -1.
         -1   -1    0    0    0  501 -0.00000000000E+00 -0.00000000000E+00 -0.34327878551E+02  0.34327878551E+02  0.00000000000E+00 0.  1.
         25    2    1    2    0    0 -0.63787552459E+01 -0.19575082455E+02  0.17813930832E+03  0.21864393700E+03  0.12509070966E+03 0.  0.
          5    1    3    3  502    0  0.45839204178E+02 -0.48201876285E+02  0.10289803187E+03  0.12259743423E+03  0.41800000000E+01 0.  1.
         -5    1    3    3    0  502 -0.52217959424E+02  0.28626793829E+02  0.75241276454E+02  0.96046502767E+02  0.41800000000E+01 0.  1.
        -11    1    1    2    0    0  0.30612648681E+02  0.39869680832E+02  0.54814811623E+02  0.74373310281E+02  0.00000000000E+00 0.  1.
         11    1    1    2    0    0 -0.24233893435E+02 -0.20294598377E+02  0.53843762188E+02  0.62436391959E+02  0.00000000000E+00 0. -1.
</event>
<event>
 7    1  0.2899775E-009  0.8261487E+02  0.7561462E-02  0.1321790E+00
          1   -1    0    0  501    0  0.00000000000E+00  0.00000000000E+00  0.93043487228E+03  0.93043487228E+03  0.00000000000E+00 0. -1.
         -1   -1    0    0    0  501 -0.00000000000E+00 -0.00000000000E+00 -0.15280312220E+02  0.15280312220E+02  0.00000000000E+00 0.  1.
         25    2    1    2    0    0 -0.27280587405E+02  0.19349732350E+02  0.66257549582E+03  0.67510993793E+03  0.12509395685E+03 0.  0.
          5    1    3    3  502    0 -0.38237433377E+02 -0.77222067970E+01  0.59239089517E+02  0.71052627790E+02  0.41800000000E+01 0. -1.
         -5    1    3    3    0  502  0.10956845972E+02  0.27071939147E+02  0.60333640630E+03  0.60405731014E+03  0.41800000000E+01 0. -1.
        -11    1    1    2    0    0 -0.33085491122E+02  0.56393429838E-01  0.10159965383E+03  0.10685102976E+03  0.00000000000E+00 0. -1.
         11    1    1    2    0    0  0.60366078527E+02 -0.19406125780E+02  0.15097941041E+03  0.16375421681E+03  0.00000000000E+00 0.  1.
</event>
<event>
 7    1  0.2899775E-009  0.1458127E+03  0.7561462E-02  0.1205715E+00
         -2   -1    0    0    0  501 -0.00000000000E+00  0.00000000000E+00  0.39224064543E+02  0.39224064543E+02  0.00000000000E+00 0.  1.
          2   -1    0    0  501    0  0.00000000000E+00 -0.00000000000E+00 -0.62729231816E+03  0.62729231816E+03  0.00000000000E+00 0. -1.
         25    2    1    2    0    0 -0.10398907824E+03  0.40827710734E+02 -0.34344058717E+03  0.38220249781E+03  0.12508669818E+03 0.  0.
          5    1    3    3  502    0 -0.14473421803E+02 -0.41862216410E+02 -0.11398859969E+03  0.12236338652E+03  0.41800000000E+01 0.  1.
         -5    1    3    3    0  502 -0.89515656441E+02  0.82689927145E+02 -0.22945198748E+03  0.25983911129E+03  0.41800000000E+01 0.  1.
        -11    1    1    2    0    0  0.59011806614E+02 -0.52223311267E+02 -0.76221755391E+02  0.10963313165E+03  0.00000000000E+00 0.  1.
         11    1    1    2    0    0  0.44977271630E+02  0.11395600533E+02 -0.16840591106E+03  0.17468075325E+03  0.00000000000E+00 0. -1.
</event>
<event>
 7    1  0.2899775E-009  0.3989099E+03  0.7561462E-02  0.1044158E+00
         -1   -1    0    0    0  501 -0.00000000000E+00  0.00000000000E+00  0.22849580646E+03  0.22849580646E+03  0.00000000000E+00 0. -1.
          1   -1    0    0  501    0  0.00000000000E+00 -0.00000000000E+00 -0.79478046014E+03  0.79478046014E+03  0.00000000000E+00 0.  1.
         25    2    1    2    0    0  0.59736732101E+02  0.38523950990E+03 -0.12631202697E+03  0.42846304700E+03  0.12509155580E+03 0.  0.
          5    1    3    3  502    0 -0.29070151407E+02  0.20252199984E+03 -0.82191806359E+02  0.22052936211E+03  0.41800000000E+01 0. -1.
         -5    1    3    3    0  502  0.88806883508E+02  0.18271751007E+03 -0.44120220608E+02  0.20793368489E+03  0.41800000000E+01 0. -1.
        -11    1    1    2    0    0 -0.29184400686E+02 -0.22156122681E+03 -0.18412931164E+03  0.28955951007E+03  0.00000000000E+00 0. -1.
         11    1    1    2    0    0 -0.30552331416E+02 -0.16367828309E+03 -0.25584331507E+03  0.30525370953E+03  0.00000000000E+00 0.  1.
</event>
<event>
 7    1  0.2899775E-009  0.9426670E+02  0.7561462E-02  0.1292836E+00
          1   -1    0    0  501    0  0.00000000000E+00  0.00000000000E+00  0.20993322122E+03  0.20993322122E+03  0.00000000000E+00 0. -1.
         -1   -1    0    0    0  501 -0.00000000000E+00 -0.00000000000E+00 -0.10135306312E+03  0.10135306312E+03  0.00000000000E+00 0.  1.
         25    2    1    2    0    0  0.11275125671E+02  0.38673960083E+02  0.15525265764E+03  0.20340528686E+03  0.12509004506E+03 0.  0.
          5    1    3    3  502    0 -0.13595191973E+02 -0.42790236873E+02  0.41885319601E+02  0.61544179372E+02  0.41800000000E+01 0. -1.
         -5    1    3    3    0  502  0.24870317643E+02  0.81464196956E+02  0.11336733804E+03  0.14186110749E+03  0.41800000000E+01 0. -1.
        -11    1    1    2    0    0  0.15133885382E+02 -0.22751183255E+02  0.20372760897E+02  0.34083723577E+02  0.00000000000E+00 0. -1.
         11    1    1    2    0    0 -0.26409011052E+02 -0.15922776828E+02 -0.67045260437E+02  0.73797273891E+02  0.00000000000E+00 0.  1.
</event>
<event>
 7    1  0.2899775E-009  0.1648906E+03  0.7561462E-02  0.1183283E+00
          1   -1    0    0  501    0  0.00000000000E+00  0.00000000000E+00  0.73905816038E+03  0.73905816038E+03  0.00000000000E+00 0. -1.
         -1   -1    0    0    0  501 -0.00000000000E+00 -0.00000000000E+00 -0.38352092947E+02  0.38352092947E+02  0.00000000000E+00 0.  1.
         25    2    1    2    0    0  0.55075271303E+02  0.11284877420E+03  0.31612040464E+03  0.36241908569E+03  0.12508937642E+03 0.  0.
          5    1    3    3  502    0  0.95714405708E+02  0.78779053561E+02  0.21922035160E+03  0.25187779119E+03  0.41800000000E+01 0.  1.
         -5    1    3    3    0  502 -0.40639134405E+02  0.34069720639E+02  0.96900053041E+02  0.11054129450E+03  0.41800000000E+01 0.  1.
        -11    1    1    2    0    0 -0.65441178387E+01 -0.10277647562E+03  0.21642877234E+03  0.23968154480E+03  0.00000000000E+00 0.  1.
         11    1    1    2    0    0 -0.48531153464E+02 -0.10072298584E+02  0.16815689045E+03  0.17530962284E+03  0.00000000000E+00 0. -1.
</event>
<event>
 7    1  0.2899775E-009  0.2344453E+03  0.7561462E-02  0.1123550E+00
         -2   -1    0    0    0  501 -0.00000000000E+00  0.00000000000E+00  0.45790771027E+02  0.45790771027E+02  0.00000000000E+00 0.  1.
          2   -1    0    0  501    0  0.00000000000E+00 -0.00000000000E+00 -0.13587381577E+04  0.13587381577E+04  0.00000000000E+00 0. -1.
         25    2    1    2    0    0  0.11954716511E+03  0.17594863077E+03 -0.48441810286E+03  0.54364845825E+03  0.12507318828E+03 0.  0.
          5    1    3    3  502    0  0.17243482538E+02 -0.16415115126E+02 -0.88266878105E+02  0.91516708119E+02  0.41800000000E+01 0. -1.
         -5    1    3    3    0  502  0.10230368257E+03  0.19236374590E+03 -0.39615122475E+03  0.45213175013E+03  0.41800000000E+01 0. -1.
        -11    1    1    2    0    0  0.53635376353E+01 -0.46889711718E+02 -0.27266982046E+03  0.27672412904E+03  0.00000000000E+00 0. -1.
         11    1    1    2    0    0 -0.12491070274E+03 -0.12905891905E+03 -0.55585946340E+03  0.58415634148E+03  0.00000000000E+00 0.  1.
</event>
<event>
 7    1  0.2899775E-009  0.1546842E+03  0.7561462E-02  0.1194832E+00
          2   -1    0    0  501    0  0.00000000000E+00  0.00000000000E+00  0.57249986416E+03  0.57249986416E+03  0.00000000000E+00 0. -1.
         -2   -1    0    0    0  501 -0.00000000000E+00 -0.00000000000E+00 -0.18337576541E+03  0.18337576541E+03  0.00000000000E+00 0.  1.
         25    2    1    2    0    0  0.45059149457E+02 -0.12647148623E+03  0.51702563265E+03  0.54862363911E+03  0.12508808413E+03 0.  0.
          5    1    3    3  502    0 -0.36976521364E+02 -0.27918673780E+02  0.22340546345E+03  0.22819769713E+03  0.41800000000E+01 0. -1.
         -5    1    3    3    0  502  0.82035670821E+02 -0.98552812450E+02  0.29362016921E+03  0.32042594198E+03  0.41800000000E+01 0. -1.
        -11    1    1    2    0    0 -0.18704625470E+02  0.40091905866E+02 -0.10521179219E+03  0.11413476747E+03  0.00000000000E+00 0.  1.
         11    1    1    2    0    0 -0.26354523987E+02  0.86379580364E+02 -0.22689741716E+02  0.93117222991E+02  0.00000000000E+00 0. -1.
</event>
<event>
 7    1  0.2899775E-009  0.7106440E+02  0.7561462E-02  0.1356510E+00
         -3   -1    0    0    0  501 -0.00000000000E+00  0.00000000000E+00  0.67412634392E+02  0.67412634392E+02  0.00000000000E+00 0.  1.
          3   -1    0    0  501    0  0.00000000000E+00 -0.00000000000E+00 -0.27197602530E+03  0.27197602530E+03  0.00000000000E+00 0. -1.
         25    2    1    2    0    0  0.13572515447E+02 -0.31122702442E+02 -0.20466122338E+03  0.24225343144E+03  0.12509065876E+03 0.  0.
          5    1    3    3  502    0 -0.36464855613E+01 -0.42516413395E+02 -0.69659235905E+01  0.43438908324E+02  0.41800000000E+01 0.  1.
         -5    1    3    3    0  502  0.17219001009E+02  0.11393710952E+02 -0.19769529978E+03  0.19881452312E+03  0.41800000000E+01 0.  1.
        -11    1    1    2    0    0 -0.42538008634E+02  0.15485502749E+02  0.28639273215E+02  0.53567629631E+02  0.00000000000E+00 0.  1.
         11    1    1    2    0    0  0.28965493187E+02  0.15637199693E+02 -0.28541440752E+02  0.43567598626E+02  0.00000000000E+00 0. -1.
</event>
<event>
 7    1  0.2899775E-009  0.9124143E+02  0.7561462E-02  0.1299873E+00
         -2   -1    0    0    0  501 -0.00000000000E+00  0.00000000000E+00  0.39325107212E+02  0.39325107212E+02  0.00000000000E+00 0.  1.
          2   -1    0    0  501    0  0.00000000000E+00 -0.00000000000E+00 -0.35476045607E+03  0.35476045607E+03  0.00000000000E+00 0. -1.
         25    2    1    2    0    0 -0.47933395686E+01 -0.15969603852E+02 -0.25157740311E+03  0.28145085735E+03  0.12508153739E+03 0.  0.
          5    1    3    3  502    0 -0.46386570308E+02 -0.87394013624E+01 -0.30532907162E+02  0.56372172753E+02  0.41800000000E+01 0.  1.
         -5    1    3    3    0  502  0.41593230740E+02 -0.72302024899E+01 -0.22104449595E+03  0.22507868460E+03  0.41800000000E+01 0.  1.
        -11    1    1    2    0    0  0.25679340722E+02 -0.31600523010E+02 -0.25331232774E+02  0.47955113891E+02  0.00000000000E+00 0.  1.
         11    1    1    2    0    0 -0.20886001153E+02  0.47570126862E+02 -0.38526712971E+02  0.64679592038E+02  0.00000000000E+00 0. -1.
</event>
<event>
 7    1  0.2899775E-009  0.1369698E+03  0.7561462E-02  0.1217465E+00
         -2   -1    0    0    0  501 -0.00000000000E+00  0.00000000000E+00  0.46069157791E+02  0.46069157791E+02  0.00000000000E+00 0. -1.
          2   -1    0    0  501    0  0.00000000000E+00 -0.00000000000E+00 -0.16329272664E+04  0.16329272664E+04  0.00000000000E+00 0.  1.
         25    2    1    2    0    0  0.74409826385E+02  0.94472856515E+02 -0.14888107856E+04  0.14988888952E+04  0.12509365270E+03 0.  0.
          5    1    3    3  502    0  0.64179568223E+02  0.60527230453E+02 -0.40623068675E+03  0.41572034574E+03  0.41800000000E+01 0.  1.
         -5    1    3    3    0  502  0.10230258163E+02  0.33945626062E+02 -0.10825800988E+04  0.10831685495E+04  0.41800000000E+01 0.  1.
        -11    1    1    2    0    0 -0.56526335674E+02 -0.11163879599E+03 -0.73014097645E+02  0.14487755468E+03  0.00000000000E+00 0. -1.
         11    1    1    2    0    0 -0.17883490711E+02  0.17165939476E+02 -0.25033225370E+02  0.35229974319E+02  0.00000000000E+00 0.  1.
</event>
<event>
 7    1  0.2899775E-009  0.1269906E+03  0.7561462E-02  0.1231991E+00
          1   -1    0    0  501    0  0.00000000000E+00  0.00000000000E+00  0.19700475240E+03  0.19700475240E+03  0.00000000000E+00 0. -1.
         -1   -1    0    0    0  501 -0.00000000000E+00 -0.00000000000E+00 -0.91729914154E+02  0.91729914154E+02  0.00000000000E+00 0.  1.
         25    2    1    2    0    0 -0.54618490020E+02 -0.56183700799E+02  0.15157084600E+02  0.14837910167E+03  0.12508730116E+03 0.  0.
          5    1    3    3  502    0 -0.94688273152E+02 -0.44791406380E+02  0.33741598193E+01  0.10488563540E+03  0.41800000000E+01 0.  1.
         -5    1    3    3    0  502  0.40069783131E+02 -0.11392294419E+02  0.11782924780E+02  0.43493466276E+02  0.41800000000E+01 0.  1.
        -11    1    1    2    0    0  0.35845716559E+02  0.73479765093E+02  0.63920633869E+02  0.10377879701E+03  0.00000000000E+00 0. -1.
         11    1    1    2    0    0  0.18772773462E+02 -0.17296064294E+02  0.26197119773E+02  0.36576767872E+02  0.00000000000E+00 0.  1.
</event>
<event>
 7    1  0.2899775E-009  0.1292739E+03  0.7561462E-02  0.1228537E+00
         -3   -1    0    0    0  501 -0.00000000000E+00  0.00000000000E+00  0.43422794833E+03  0.43422794833E+03  0.00000000000E+00 0.  1.
          3   -1    0    0  501    0  0.00000000000E+00 -0.00000000000E+00 -0.45455306605E+02  0.45455306605E+02  0.00000000000E+00 0. -1.
         25    2    1    2    0    0 -0.28810958087E+02  0.81625353530E+02  0.24431334529E+03  0.28780085103E+03  0.12509016557E+03 0.  0.
          5    1    3    3  502    0  0.46647752396E+02  0.10980017827E+02  0.66352384712E+02  0.81955383911E+02  0.41800000000E+01 0.  1.
         -5    1    3    3    0  502 -0.75458710483E+02  0.70645335703E+02  0.17796096058E+03  0.20584546712E+03  0.41800000000E+01 0.  1.
        -11    1    1    2    0    0  0.41615969886E+02 -0.24168165478E+02  0.11781804612E+03  0.12726775383E+03  0.00000000000E+00 0.  1.
         11    1    1    2    0    0 -0.12805011799E+02 -0.57457188052E+02  0.26641250310E+02  0.64614650073E+02  0.00000000000E+00 0. -1.
</event>
<event>
 7    1  0.2899775E-009  0.1385991E+03  0.7561462E-02  0.1215227E+00
         -1   -1    0    0    0  501 -0.00000000000E+00  0.00000000000E+00  0.41462312715E+03  0.41462312715E+03  0.00000000000E+00 0.  1.
          1   -1    0    0  501    0  0.00000000000E+00 -0.00000000000E+00 -0.69068404586E+02  0.69068404586E+02  0.00000000000E+00 0. -1.
         25    2    1    2    0    0  0.44396502960E+02  0.10736551473E+03  0.10304351900E+03  0.19940821862E+03  0.12508903876E+03 0.  0.
          5    1    3    3  502    0  0.80291807399E+02  0.55270120174E+02  0.93787977832E+02  0.13533372715E+03  0.41800000000E+01 0. -1.
         -5    1    3    3    0  502 -0.35895304439E+02  0.52095394553E+02  0.92555411723E+01  0.64074491467E+02  0.41800000000E+01 0. -1.
        -11    1    1    2    0    0 -0.28322525461E+02 -0.64239527171E+02  0.22388221596E+03  0.23463190091E+03  0.00000000000E+00 0.  1.
         11    1    1    2    0    0 -0.16073977499E+02 -0.43125987556E+02  0.18628987598E+02  0.49651412208E+02  0.00000000000E+00 0. -1.
</event>
<event>
 7    1  0.2899775E-009  0.1539904E+03  0.7561462E-02  0.1195654E+00
         -4   -1    0    0    0  501 -0.00000000000E+00  0.00000000000E+00  0.85241803842E+02  0.85241803842E+02  0.00000000000E+00 0.  1.
          4   -1    0    0  501    0  0.00000000000E+00 -0.00000000000E+00 -0.37759860766E+03  0.37759860766E+03  0.00000000000E+00 0. -1.
         25    2    1    2    0    0 -0.34309504976E+02 -0.10891438539E+03 -0.46298571474E+02  0.17558824945E+03  0.12509272620E+03 0.  0.
          5    1    3    3  502    0 -0.64048881313E+02 -0.12080383401E+03 -0.33449180838E+02  0.14082665091E+03  0.41800000000E+01 0. -1.
         -5    1    3    3    0  502  0.29739376337E+02  0.11889448619E+02 -0.12849390637E+02  0.34761598541E+02  0.41800000000E+01 0. -1.
        -11    1    1    2    0    0 -0.25900767239E+02  0.35298490240E+02 -0.13017613783E+03  0.13734139950E+03  0.00000000000E+00 0. -1.
         11    1    1    2    0    0  0.60210272215E+02  0.73615895149E+02 -0.11588209451E+03  0.14991076255E+03  0.00000000000E+00 0.  1.
</event>
<event>
 7    1  0.2899775E-009  0.1232427E+03  0.7561462E-02  0.1237841E+00
          1   -1    0    0  501    0  0.00000000000E+00  0.00000000000E+00  0.42041215126E+02  0.42041215126E+02  0.00000000000E+00 0. -1.
         -1   -1    0    0    0  501 -0.00000000000E+00 -0.00000000000E+00 -0.83629233567E+03  0.83629233567E+03  0.00000000000E+00 0.  1.
         25    2    1    2    0    0  0.85944443079E+02  0.44375438625E+02 -0.69516641317E+03  0.71292260862E+03  0.12508667806E+03 0.  0.
          5    1    3    3  502    0  0.37765442053E+02 -0.15769676010E+02 -0.58050601931E+02  0.71149533235E+02  0.41800000000E+01 0. -1.
         -5    1    3    3    0  502  0.48179001026E+02  0.60145114635E+02 -0.63711581124E+03  0.64177307538E+03  0.41800000000E+01 0. -1.
        -11    1    1    2    0    0 -0.10218525702E+03 -0.30042651235E+02 -0.96266538076E+02  0.14356752418E+03  0.00000000000E+00 0.  1.
         11    1    1    2    0    0  0.16240813940E+02 -0.14332787390E+02 -0.28181692973E+01  0.21843418001E+02  0.00000000000E+00 0. -1.
</event>
<event>
 7    1  0.2899775E-009  0.1120558E+03  0.7561462E-02  0.1256809E+00
          1   -1    0    0  501    0  0.00000000000E+00  0.00000000000E+00  0.58331529946E+03  0.58331529946E+03  0.00000000000E+00 0. -1.
         -1   -1    0    0    0  501 -0.00000000000E+00 -0.00000000000E+00 -0.33012324300E+02  0.33012324300E+02  0.00000000000E+00 0.  1.
         25    2    1    2    0    0 -0.86860429781E+02  0.70884482007E+01  0.30281504060E+03  0.33902773457E+03  0.12509146909E+03 0.  0.
          5    1    3    3  502    0 -0.40499582517E+01 -0.15302995032E+02  0.21699970386E+03  0.21761646926E+03  0.41800000000E+01 0. -1.
         -5    1    3    3    0  502 -0.82810471529E+02  0.22391443233E+02  0.85815336738E+02  0.12141126531E+03  0.41800000000E+01 0. -1.
        -11    1    1    2    0    0  0.10306763396E+03  0.23566441715E+01  0.18191979441E+03  0.20910117776E+03  0.00000000000E+00 0.  1.
         11    1    1    2    0    0 -0.16207204181E+02 -0.94450923722E+01  0.65568140155E+02  0.68198711429E+02  0.00000000000E+00 0. -1.
</event>
<event>
 7    1  0.2899775E-009  0.9056702E+02  0.7561462E-02  0.1301484E+00
          2   -1    0    0  501    0  0.00000000000E+00  0.00000000000E+00  0.10950868975E+04  0.10950868975E+04  0.00000000000E+00 0. -1.
         -2   -1    0    0    0  501 -0.00000000000E+00 -0.00000000000E+00 -0.13903935589E+02  0.13903935589E+02  0.00000000000E+00 0.  1.
         25    2    1    2    0    0  0.20388354372E+02 -0.42174379552E+01  0.85084395519E+03  0.86024332073E+03  0.12509861310E+03 0.  0.
          5    1    3    3  502    0 -0.92446981917E+01  0.41521925761E+02  0.12049202202E+03  0.12784887381E+03  0.41800000000E+01 0.  1.
         -5    1    3    3    0  502  0.29633052564E+02 -0.45739363716E+02  0.73035193317E+03  0.73239444692E+03  0.41800000000E+01 0.  1.
        -11    1    1    2    0    0 -0.47035904850E+02 -0.16638567181E+02  0.77231816732E+02  0.91945482644E+02  0.00000000000E+00 0. -1.
         11    1    1    2    0    0  0.26647550478E+02  0.20856005136E+02  0.15310719003E+03  0.15680202976E+03  0.00000000000E+00 0.  1.
</event>
<event>
 7    1  0.2899775E-009  0.6689012E+02  0.7561462E-02  0.1370999E+00
          1   -1    0    0  501    0  0.00000000000E+00  0.00000000000E+00  0.16844536967E+03  0.16844536967E+03  0.00000000000E+00 0. -1.
         -1   -1    0    0    0  501 -0.00000000000E+00 -0.00000000000E+00 -0.75631696418E+02  0.75631696418E+02  0.00000000000E+00 0.  1.
         25    2    1    2    0    0  0.23524536565E+02 -0.16435757452E+02  0.17824401720E+02  0.12956998557E+03  0.12508850435E+03 0.  0.
          5    1    3    3  502    0  0.35494463346E+02 -0.54829940384E+01 -0.48876357376E+02  0.60797128733E+02  0.41800000000E+01 0. -1.
         -5    1    3    3    0  502 -0.11969926781E+02 -0.10952763414E+02  0.66700759095E+02  0.68772856836E+02  0.41800000000E+01 0. -1.
        -11    1    1    2    0    0  0.27824714784E+02  0.62526397143E+01  0.47437804802E+02  0.55350298830E+02  0.00000000000E+00 0. -1.
         11    1    1    2    0    0 -0.51349251349E+02  0.10183117738E+02  0.27551466735E+02  0.59156781693E+02  0.00000000000E+00 0.  1.
</event>
<event>
 7    1  0.2899775E-009  0.1154458E+03  0.7561462E-02  0.1250805E+00
          2   -1    0    0  501    0  0.00000000000E+00  0.00000000000E+00  0.10847653385E+03  0.10847653385E+03  0.00000000000E+00 0. -1.
         -2   -1    0    0    0  501 -0.00000000000E+00 -0.00000000000E+00 -0.14581690619E+03  0.14581690619E+03  0.00000000000E+00 0.  1.
         25    2    1    2    0    0 -0.59197467538E+02  0.15205064909E+02 -0.38601660277E+01  0.13926540110E+03  0.12507764348E+03 0.  0.
          5    1    3    3  502    0  0.37476428591E+02  0.11129884604E+02 -0.14339005450E+02  0.41850167365E+02  0.41800000000E+01 0. -1.
         -5    1    3    3    0  502 -0.96673896129E+02  0.40751803054E+01  0.10478839422E+02  0.97415233731E+02  0.41800000000E+01 0. -1.
        -11    1    1    2    0    0  0.41994367360E+02  0.26468535869E+02 -0.46586884142E+02  0.68076780586E+02  0.00000000000E+00 0.  1.
         11    1    1    2    0    0  0.17203100179E+02 -0.41673600778E+02  0.13106677827E+02  0.46951258356E+02  0.00000000000E+00 0. -1.
</event>
<event>
 7    1  0.2899775E-009  0.2271251E+03  0.7561462E-02  0.1128680E+00
          2   -1    0    0  501    0  0.00000000000E+00  0.00000000000E+00  0.37708355830E+03  0.37708355830E+03  0.00000000000E+00 0. -1.
         -2   -1    0    0    0  501 -0.00000000000E+00 -0.00000000000E+00 -0.17287606087E+03  0.17287606087E+03  0.00000000000E+00 0.  1.
         25    2    1    2    0    0 -0.19462938135E+03 -0.93123115540E+02  0.16745598469E+02  0.24996662611E+03  0.12510151226E+03 0.  0.
          5    1    3    3  502    0 -0.16389251285E+03 -0.10093753952E+03  0.54876061528E+02  0.20019489799E+03  0.41800000000E+01 0.  1.
         -5    1    3    3    0  502 -0.30736868499E+02  0.78144239760E+01 -0.38130463059E+02  0.49771728122E+02  0.41800000000E+01 0.  1.
        -11    1    1    2    0    0  0.15779546245E+03  0.10669283253E+03  0.13081386242E+03  0.23107365727E+03  0.00000000000E+00 0.  1.
         11    1    1    2    0    0  0.36833918896E+02 -0.13569716992E+02  0.56648036548E+02  0.68919335786E+02  0.00000000000E+00 0. -1.
</event>
<event>
 7    1  0.2899775E-009  0.1033781E+03  0.7561462E-02  0.1273348E+00
         -1   -1    0    0    0  501 -0.00000000000E+00  0.00000000000E+00  0.16550592800E+02  0.16550592800E+02  0.00000000000E+00 0.  1.
          1   -1    0    0  501    0  0.00000000000E+00 -0.00000000000E+00 -0.78881725915E+03  0.78881725915E+03  0.00000000000E+00 0. -1.
         25    2    1    2    0    0 -0.35248826864E+02 -0.12199721463E+02 -0.43153220712E+03  0.45084030081E+03  0.12508244502E+03 0.  0.
          5    1    3    3  502    0  0.30742551534E+02 -0.37091794958E+02 -0.27337469219E+03  0.27761862412E+03  0.41800000000E+01 0. -1.
         -5    1    3    3    0  502 -0.65991378398E+02  0.24892073495E+02 -0.15815751493E+03  0.17322167669E+03  0.41800000000E+01 0. -1.
        -11    1    1    2    0    0  0.58705915125E+02  0.21490411066E+02 -0.30126677980E+03  0.30768473288E+03  0.00000000000E+00 0. -1.
         11    1    1    2    0    0 -0.23457088260E+02 -0.92906896030E+01 -0.39467679433E+02  0.46842818262E+02  0.00000000000E+00 0.  1.
</event>
<event>
 7    1  0.2899775E-009  0.1173975E+03  0.7561462E-02  0.1247453E+00
         -1   -1    0    0    0  501 -0.00000000000E+00  0.00000000000E+00  0.16151396923E+03  0.16151396923E+03  0.00000000000E+00 0.  1.
          1   -1    0    0  501    0  0.00000000000E+00 -0.00000000000E+00 -0.12756383918E+03  0.12756383918E+03  0.00000000000E+00 0. -1.
         25    2    1    2    0    0  0.79905776269E+02  0.40038972732E+02  0.48206470085E+02  0.16111769754E+03  0.12508795420E+03 0.  0.
          5    1    3    3  502    0  0.79167944386E+02  0.60915028869E+02 -0.86982864073E+01  0.10035604988E+03  0.41800000000E+01 0.  1.
         -5    1    3    3    0  502  0.73783188260E+00 -0.20876056137E+02  0.56904756493E+02  0.60761647667E+02  0.41800000000E+01 0.  1.
        -11    1    1    2    0    0 -0.84287382975E+02 -0.12003668050E+02  0.15837204692E+02  0.86598314233E+02  0.00000000000E+00 0.  1.
         11    1    1    2    0    0  0.43816067066E+01 -0.28035304682E+02 -0.30093544727E+02  0.41361796626E+02  0.00000000000E+00 0. -1.
</event>
<event>
 7    1  0.2899775E-009  0.1142770E+03  0.7561462E-02  0.1252848E+00
          1   -1    0    0  501    0  0.00000000000E+00  0.00000000000E+00  0.72213524760E+03  0.72213524760E+03  0.00000000000E+00 0. -1.
         -1   -1    0    0    0  501 -0.00000000000E+00 -0.00000000000E+00 -0.23250326451E+02  0.23250326451E+02  0.00000000000E+00 0.  1.
         25    2    1    2    0    0  0.64279162070E+02  0.13188226243E+02  0.46677825856E+03  0.48768317376E+03  0.12508874978E+03 0.  0.
          5    1    3    3  502    0 -0.11957624922E+02  0.36139839418E+02  0.30428075758E+03  0.30668114487E+03  0.41800000000E+01 0. -1.
         -5    1    3    3    0  502  0.76236786992E+02 -0.22951613175E+02  0.16249750098E+03  0.18100202889E+03  0.41800000000E+01 0. -1.
        -11    1    1    2    0    0 -0.32441914639E+02  0.38177525059E+02  0.12596908246E+03  0.13556626048E+03  0.00000000000E+00 0. -1.
         11    1    1    2    0    0 -0.31837247432E+02 -0.51365751302E+02  0.10613758013E+03  0.12213613981E+03  0.00000000000E+00 0.  1.
</event>
<event>
 7    1  0.2899775E-009  0.1878684E+03  0.7561462E-02  0.1160398E+00
          2   -1    0    0  501    0  0.00000000000E+00  0.00000000000E+00  0.26423689730E+03  0.26423689730E+03  0.00000000000E+00 0. -1.
         -2   -1    0    0    0  501 -0.00000000000E+00 -0.00000000000E+00 -0.23225448884E+03  0.23225448884E+03  0.00000000000E+00 0.  1.
         25    2    1    2    0    0  0.99639572132E+02  0.14543879893E+03  0.15277646835E+03  0.26470104482E+03  0.12508199423E+03 0.  0.
          5    1    3    3  502    0  0.38162362700E+02  0.12562550835E+03  0.15073639809E+03  0.19994266274E+03  0.41800000000E+01 0.  1.
         -5    1    3    3    0  502  0.61477209432E+02  0.19813290576E+02  0.20400702631E+01  0.64758382081E+02  0.41800000000E+01 0.  1.
        -11    1    1    2    0    0 -0.36228642477E+02 -0.26577273946E+02 -0.78745065374E+02  0.90662292861E+02  0.00000000000E+00 0.  1.
         11    1    1    2    0    0 -0.63410929655E+02 -0.11886152498E+03 -0.42048994517E+02  0.14112804845E+03  0.00000000000E+00 0. -1.
</event>
<event>
 7    1  0.2899775E-009  0.1452531E+03  0.7561462E-02  0.1206430E+00
          1   -1    0    0  501    0  0.00000000000E+00  0.00000000000E+00  0.37099055892E+03  0.37099055892E+03  0.00000000000E+00 0. -1.
         -1   -1    0    0    0  501 -0.00000000000E+00 -0.00000000000E+00 -0.71107795812E+02  0.71107795812E+02  0.00000000000E+00 0.  1.
         25    2    1    2    0    0 -0.11272354414E+03 -0.25425737950E+02  0.21389764394E+03  0.27340819052E+03  0.12508705372E+03 0.  0.
          5    1    3    3  502    0 -0.12427374999E+03 -0.42901023144E+02  0.21497111989E+03  0.25202086721E+03  0.41800000000E+01 0.  1.
         -5    1    3    3    0  502  0.11550205845E+02  0.17475285195E+02 -0.10734759573E+01  0.21387323309E+02  0.41800000000E+01 0.  1.
        -11    1    1    2    0    0  0.11254583009E+03  0.36367469677E+00  0.46180636190E+02  0.12165256795E+03  0.00000000000E+00 0. -1.
         11    1    1    2    0    0  0.17771405716E+00  0.25062063253E+02  0.39804482977E+02  0.47037596259E+02  0.00000000000E+00 0.  1.
</event>
<event>
 7    1  0.2899775E-009  0.1410724E+03  0.7561462E-02  0.1211893E+00
         -2   -1    0    0    0  501 -0.00000000000E+00  0.00000000000E+00  0.79710276413E+02  0.79710276413E+02  0.00000000000E+00 0.  1.
          2   -1    0    0  501    0  0.00000000000E+00 -0.00000000000E+00 -0.26517997877E+03  0.26517997877E+03  0.00000000000E+00 0. -1.
         25    2    1    2    0    0 -0.47407274357E+02  0.79497655225E+02 -0.68880737609E+02  0.17015510317E+03  0.12506348897E+03 0.  0.
          5    1    3    3  502    0 -0.80570790967E+02  0.18951541435E+02 -0.55418237307E+02  0.99696874103E+02  0.41800000000E+01 0.  1.
         -5    1    3    3    0  502  0.33163516610E+02  0.60546113789E+02 -0.13462500302E+02  0.70458229068E+02  0.41800000000E+01 0.  1.
        -11    1    1    2    0    0  0.51809814908E+02 -0.98128229818E+02 -0.10097959880E+03  0.15003428202E+03  0.00000000000E+00 0. -1.
         11    1    1    2    0    0 -0.44025405517E+01  0.18630574593E+02 -0.15609365949E+02  0.24700869991E+02  0.00000000000E+00 0.  1.
</event>
<event>
 7    1  0.2899775E-009  0.1274349E+03  0.7561462E-02  0.1231312E+00
         -2   -1    0    0    0  501 -0.00000000000E+00  0.00000000000E+00  0.16519097606E+02  0.16519097606E+02  0.00000000000E+00 0.  1.
          2   -1    0    0  501    0  0.00000000000E+00 -0.00000000000E+00 -0.13262298241E+04  0.13262298241E+04  0.00000000000E+00 0. -1.
         25    2    1    2    0    0  0.13121598709E+02  0.96515907020E+02 -0.85375766784E+03  0.86835276863E+03  0.12508748427E+03 0.  0.
          5    1    3    3  502    0  0.40236046798E+02  0.12766063190E+02 -0.89644169745E+02  0.99173894754E+02  0.41800000000E+01 0.  1.
         -5    1    3    3    0  502 -0.27114448089E+02  0.83749843830E+02 -0.76411349810E+03  0.76917887387E+03  0.41800000000E+01 0.  1.
        -11    1    1    2    0    0 -0.15828582537E+02  0.93748364131E+01 -0.27807719340E+02  0.33342178061E+02  0.00000000000E+00 0.  1.
         11    1    1    2    0    0  0.27069838286E+01 -0.10589074343E+03 -0.42814533931E+03  0.44105397501E+03  0.00000000000E+00 0. -1.
</event>
<event>
 7    1  0.2899775E-009  0.1152439E+03  0.7561462E-02  0.1251156E+00
          2   -1    0    0  501    0  0.00000000000E+00  0.00000000000E+00  0.16353826864E+04  0.16353826864E+04  0.00000000000E+00 0.  1.
         -2   -1    0    0    0  501 -0.00000000000E+00 -0.00000000000E+00 -0.15007321090E+02  0.15007321090E+02  0.00000000000E+00 0. -1.
         25    2    1    2    0    0 -0.22056719475E+02 -0.47743276224E+02  0.13887995902E+04  0.13954134469E+04  0.12509383222E+03 0.  0.
          5    1    3    3  502    0 -0.68673314159E+02 -0.16482174403E+02  0.10076629737E+04  0.10101434686E+04  0.41800000000E+01 0.  1.
         -5    1    3    3    0  502  0.46616594684E+02 -0.31261101821E+02  0.38113661648E+03  0.38526997834E+03  0.41800000000E+01 0.  1.
        -11    1    1    2    0    0 -0.12924956454E+02  0.63707141088E+02  0.11349683461E+03  0.13079444098E+03  0.00000000000E+00 0. -1.
         11    1    1    2    0    0  0.34981675929E+02 -0.15963864864E+02  0.11807894055E+03  0.12418211962E+03  0.00000000000E+00 0.  1.
</event>
<event>
 7    1  0.2899775E-009  0.1451827E+03  0.7561462E-02  0.1206521E+00
          1   -1    0    0  501    0  0.00000000000E+00  0.00000000000E+00  0.87046366935E+03  0.87046366935E+03  0.00000000000E+00 0. -1.
         -1   -1    0    0    0  501 -0.00000000000E+00 -0.00000000000E+00 -0.39028009154E+02  0.39028009154E+02  0.00000000000E+00 0.  1.
         25    2    1    2    0    0 -0.84608712084E+02  0.99497757225E+02  0.49831746827E+03  0.53011858446E+03  0.12508787531E+03 0.  0.
          5    1    3    3  502    0 -0.44338816034E+02  0.92888496604E+02  0.46775289120E+03  0.47896183881E+03  0.41800000000E+01 0. -1.
         -5    1    3    3    0  502 -0.40269896051E+02  0.66092606205E+01  0.30564577070E+02  0.51156745649E+02  0.41800000000E+01 0. -1.
        -11    1    1    2    0    0  0.27355195156E+02 -0.82030607451E+02  0.29729146822E+03  0.30961192538E+03  0.00000000000E+00 0. -1.
         11    1    1    2    0    0  0.57253516928E+02 -0.17467149774E+02  0.35826723696E+02  0.69761168659E+02  0.00000000000E+00 0.  1.
</event>
<event>
 7    1  0.2899775E-009  0.2022559E+03  0.7561462E-02  0.1147850E+00
         -2   -1    0    0    0  501 -0.00000000000E+00  0.00000000000E+00  0.34871163565E+02  0.34871163565E+02  0.00000000000E+00 0.  1.
          2   -1    0    0  501    0  0.00000000000E+00 -0.00000000000E+00 -0.23955449874E+04  0.23955449874E+04  0.00000000000E+00 0. -1.
         25    2    1    2    0    0  0.19499295871E+02  0.19203804467E+03 -0.19866764007E+04  0.19999473875E+04  0.12509036035E+03 0.  0.
          5    1    3    3  502    0  0.35371489733E+01  0.17782252223E+03 -0.19431393610E+04  0.19512666167E+04  0.41800000000E+01 0.  1.
         -5    1    3    3    0  502  0.15962146898E+02  0.14215522441E+02 -0.43537039712E+02  0.48680770729E+02  0.41800000000E+01 0.  1.
        -11    1    1    2    0    0  0.25448053770E+02 -0.85155715013E+02 -0.22322650406E+03  0.24026895628E+03  0.00000000000E+00 0. -1.
         11    1    1    2    0    0 -0.44947349641E+02 -0.10688232966E+03 -0.15077091901E+03  0.19019980719E+03  0.00000000000E+00 0.  1.
</event>
<event>
 7    1  0.2899775E-009  0.2567668E+03  0.7561462E-02  0.1109101E+00
          1   -1    0    0  501    0  0.00000000000E+00  0.00000000000E+00  0.13767081299E+03  0.13767081299E+03  0.00000000000E+00 0. -1.
         -1   -1    0    0    0  501 -0.00000000000E+00 -0.00000000000E+00 -0.60209355256E+03  0.60209355256E+03  0.00000000000E+00 0.  1.
         25    2    1    2    0    0  0.94260697097E+02  0.21715370723E+03 -0.39416974279E+03  0.47650674523E+03  0.12509228810E+03 0.  0.
          5    1    3    3  502    0  0.66968088971E+02  0.33797622767E+02 -0.68091153893E+02  0.10139468370E+03  0.41800000000E+01 0. -1.
         -5    1    3    3    0  502  0.27292608126E+02  0.18335608446E+03 -0.32607858889E+03  0.37511206152E+03  0.41800000000E+01 0. -1.
        -11    1    1    2    0    0 -0.30270934687E+02 -0.41273707808E+01 -0.21088556022E+01  0.30623715456E+02  0.00000000000E+00 0. -1.
         11    1    1    2    0    0 -0.63989762410E+02 -0.21302633645E+03 -0.68144141186E+02  0.23263390486E+03  0.00000000000E+00 0.  1.
</event>
<event>
 7    1  0.2899775E-009  0.9461547E+02  0.7561462E-02  0.1292045E+00
          1   -1    0    0  501    0  0.00000000000E+00  0.00000000000E+00  0.62735313794E+03  0.62735313794E+03  0.00000000000E+00 0. -1.
         -1   -1    0    0    0  501 -0.00000000000E+00 -0.00000000000E+00 -0.27316270680E+02  0.27316270680E+02  0.00000000000E+00 0.  1.
         25    2    1    2    0    0 -0.37943919401E+02  0.10586781314E+02  0.19902463931E+03  0.23834780122E+03  0.12508815427E+03 0.  0.
          5    1    3    3  502    0 -0.56062761844E+01 -0.26988548552E+02 -0.50177868309E+01  0.28327772067E+02  0.41800000000E+01 0.  1.
         -5    1    3    3    0  502 -0.32337643217E+02  0.37575329866E+02  0.20404242614E+03  0.21002002916E+03  0.41800000000E+01 0.  1.
        -11    1    1    2    0    0  0.66222454909E+02 -0.34406327956E+02  0.28120411620E+03  0.29093807572E+03  0.00000000000E+00 0. -1.
         11    1    1    2    0    0 -0.28278535508E+02  0.23819546643E+02  0.11980811176E+03  0.12538353167E+03  0.00000000000E+00 0.  1.
</event>
<event>
 7    1  0.2899775E-009  0.1460905E+03  0.7561462E-02  0.1205361E+00
         -1   -1    0    0    0  501 -0.00000000000E+00  0.00000000000E+00  0.55096718118E+02  0.55096718118E+02  0.00000000000E+00 0.  1.
          1   -1    0    0  501    0  0.00000000000E+00 -0.00000000000E+00 -0.79644111203E+03  0.79644111203E+03  0.00000000000E+00 0. -1.
         25    2    1    2    0    0  0.93797283637E+02  0.68631189875E+02 -0.66315913370E+03  0.68478879798E+03  0.12508992999E+03 0.  0.
          5    1    3    3  502    0  0.88665704081E+02  0.85603239680E+01 -0.54314815047E+03  0.55042008683E+03  0.41800000000E+01 0.  1.
         -5    1    3    3    0  502  0.51315795560E+01  0.60070865907E+02 -0.12001098323E+03  0.13436871115E+03  0.41800000000E+01 0.  1.
        -11    1    1    2    0    0 -0.33399159050E+02 -0.74741188127E+02 -0.23824179401E+02  0.85260427820E+02  0.00000000000E+00 0. -1.
         11    1    1    2    0    0 -0.60398124588E+02  0.61099982522E+01 -0.54361080814E+02  0.81488604354E+02  0.00000000000E+00 0.  1.
</event>
<event>
 7    1  0.2899775E-009  0.1739826E+03  0.7561462E-02  0.1173757E+00
          1   -1    0    0  501    0  0.00000000000E+00  0.00000000000E+00  0.75749734551E+02  0.75749734551E+02  0.00000000000E+00 0. -1.
         -1   -1    0    0    0  501 -0.00000000000E+00 -0.00000000000E+00 -0.62465007479E+03  0.62465007479E+03  0.00000000000E+00 0.  1.
         25    2    1    2    0    0  0.14847967902E+03  0.68000306521E+02 -0.13235939144E+03  0.24461534973E+03  0.12508958411E+03 0.  0.
          5    1    3    3  502    0  0.68680014030E+02  0.61068226306E+02 -0.25615734220E+01  0.92034268888E+02  0.41800000000E+01 0. -1.
         -5    1    3    3    0  502  0.79799664988E+02  0.69320802150E+01 -0.12979781801E+03  0.15258108084E+03  0.41800000000E+01 0. -1.
        -11    1    1    2    0    0 -0.82027728694E+02 -0.72056345876E+02 -0.32312459199E+03  0.34107208506E+03  0.00000000000E+00 0.  1.
         11    1    1    2    0    0 -0.66451950324E+02  0.40560393551E+01 -0.93416356817E+02  0.11471237456E+03  0.00000000000E+00 0. -1.
</event>
<event>
 7    1  0.2899775E-009  0.1251775E+03  0.7561462E-02  0.1234792E+00
         -2   -1    0    0    0  501 -0.00000000000E+00  0.00000000000E+00  0.22391119434E+02  0.22391119434E+02  0.00000000000E+00 0.  1.
          2   -1    0    0  501    0  0.00000000000E+00 -0.00000000000E+00 -0.71562504211E+03  0.71562504211E+03  0.00000000000E+00 0. -1.
         25    2    1    2    0    0 -0.17106288258E+02 -0.57264176926E+02 -0.34545588512E+03  0.37223386421E+03  0.12508585070E+03 0.  0.
          5    1    3    3  502    0 -0.18768149159E+02  0.37555309538E+02 -0.13309549659E+03  0.13962280727E+03  0.41800000000E+01 0.  1.
         -5    1    3    3    0  502  0.16618609014E+01 -0.94819486464E+02 -0.21236038853E+03  0.23261105694E+03  0.41800000000E+01 0.  1.
        -11    1    1    2    0    0 -0.40280982077E+02  0.22417048393E+02 -0.14947443126E+03  0.15642150484E+03  0.00000000000E+00 0. -1.
         11    1    1    2    0    0  0.57387270334E+02  0.34847128533E+02 -0.19830360630E+03  0.20936079250E+03  0.00000000000E+00 0.  1.
</event>
<event>
 7    1  0.2899775E-009  0.1061077E+03  0.7561462E-02  0.1267952E+00
         -1   -1    0    0    0  501 -0.00000000000E+00  0.00000000000E+00  0.82057191454E+03  0.82057191454E+03  0.00000000000E+00 0.  1.
          1   -1    0    0  501    0  0.00000000000E+00 -0.00000000000E+00 -0.17347999659E+02  0.17347999659E+02  0.00000000000E+00 0. -1.
         25    2    1    2    0    0  0.30734233735E+02 -0.35576275825E+02  0.38217326687E+03  0.40486465085E+03  0.12509482433E+03 0.  0.
          5    1    3    3  502    0 -0.35216814106E+02 -0.27786745859E+02  0.27535325367E+03  0.27901471995E+03  0.41800000000E+01 0.  1.
         -5    1    3    3    0  502  0.65951047841E+02 -0.77895299658E+01  0.10682001320E+03  0.12584993090E+03  0.41800000000E+01 0.  1.
        -11    1    1    2    0    0  0.17289165880E+02 -0.20483264669E+02  0.91921554639E+02  0.95749943058E+02  0.00000000000E+00 0.  1.
         11    1    1    2    0    0 -0.48023399615E+02  0.56059540494E+02  0.32912909338E+03  0.33730532029E+03  0.00000000000E+00 0. -1.
</event>
<event>
 7    1  0.2899775E-009  0.9253643E+02  0.7561462E-02  0.1296823E+00
          2   -1    0    0  501    0  0.00000000000E+00  0.00000000000E+00  0.16363997075E+02  0.16363997075E+02  0.00000000000E+00 0. -1.
         -2   -1    0    0    0  501 -0.00000000000E+00 -0.00000000000E+00 -0.10752146957E+04  0.10752146957E+04  0.00000000000E+00 0.  1.
         25    2    1    2    0    0  0.17413424614E+02  0.65377175946E+02 -0.71372213396E+03  0.72775326881E+03  0.12509249888E+03 0.  0.
          5    1    3    3  502    0 -0.13025863945E+02  0.59134540524E+01 -0.55870116535E+03  0.55889990753E+03  0.41800000000E+01 0. -1.
         -5    1    3    3    0  502  0.30439288559E+02  0.59463721894E+02 -0.15502096860E+03  0.16885336128E+03  0.41800000000E+01 0. -1.
        -11    1    1    2    0    0 -0.38426640097E+02 -0.43245160768E+01 -0.21621894248E+03  0.21964958273E+03  0.00000000000E+00 0.  1.
         11    1    1    2    0    0  0.21013215483E+02 -0.61052659870E+02 -0.12890962222E+03  0.14417584126E+03  0.00000000000E+00 0. -1.
</event>
<event>
 7    1  0.2899775E-009  0.8262811E+02  0.7561462E-02  0.1321754E+00
          2   -1    0    0  501    0  0.00000000000E+00  0.00000000000E+00  0.10328183718E+04  0.10328183718E+04  0.00000000000E+00 0.  1.
         -2   -1    0    0    0  501 -0.00000000000E+00 -0.00000000000E+00 -0.15542148445E+02  0.15542148445E+02  0.00000000000E+00 0. -1.
         25    2    1    2    0    0  0.33072433172E+02 -0.20094867045E+02  0.77494814118E+03  0.78593226115E+03  0.12508920052E+03 0.  0.
          5    1    3    3  502    0  0.36183975424E+02  0.34140151094E+02  0.13970762507E+03  0.14835943818E+03  0.41800000000E+01 0. -1.
         -5    1    3    3    0  502 -0.31115422516E+01 -0.54235018139E+02  0.63524051610E+03  0.63757282297E+03  0.41800000000E+01 0. -1.
        -11    1    1    2    0    0  0.96150415653E+01  0.15056495916E+02  0.16486029616E+01  0.17940596013E+02  0.00000000000E+00 0. -1.
         11    1    1    2    0    0 -0.42687474737E+02  0.50383711289E+01  0.24067947919E+03  0.24448766306E+03  0.00000000000E+00 0.  1.
</event>
<event>
 7    1  0.2899775E-009  0.7055859E+02  0.7561462E-02  0.1358204E+00
          2   -1    0    0  501    0  0.00000000000E+00  0.00000000000E+00  0.67506517761E+02  0.67506517761E+02  0.00000000000E+00 0. -1.
         -2   -1    0    0    0  501 -0.00000000000E+00 -0.00000000000E+00 -0.19944080590E+03  0.19944080590E+03  0.00000000000E+00 0.  1.
         25    2    1    2    0    0  0.19577767136E+02  0.35443059051E+02 -0.11931672622E+03  0.17754333321E+03  0.12508259115E+03 0.  0.
          5    1    3    3  502    0  0.25377041023E+02  0.10680968526E+02 -0.14108500042E+03  0.14380725657E+03  0.41800000000E+01 0. -1.
         -5    1    3    3    0  502 -0.57992738868E+01  0.24762090526E+02  0.21768274202E+02  0.33736076633E+02  0.41800000000E+01 0. -1.
        -11    1    1    2    0    0 -0.49206637909E+02 -0.14800166821E+02 -0.73901621580E+00  0.51389534900E+02  0.00000000000E+00 0. -1.
         11    1    1    2    0    0  0.29628870773E+02 -0.20642892230E+02 -0.11878545702E+02  0.38014455552E+02  0.00000000000E+00 0.  1.
</event>
<event>
 6    1  0.2899775E-009  0.9831902E+02  0.7561462E-02  0.1283871E+00
          2   -1    0    0  501    0  0.00000000000E+00  0.00000000000E+00  0.11906948009E+03  0.11906948009E+03  0.00000000000E+00 0. -1.
         -2   -1    0    0    0  501 -0.00000000000E+00 -0.00000000000E+00 -0.11688036603E+03  0.11688036603E+03  0.00000000000E+00 0.  1.
          5    1    1    2  502    0 -0.53577881164E+00  0.66703871224E+02  0.45998254780E+02  0.81135721714E+02  0.41800000000E+01 0.  1.
         -5    1    1    2    0  502 -0.29540690166E+02 -0.31500372898E+02 -0.30901564728E+02  0.53266358716E+02  0.41800000000E+01 0.  1.
        -11    1    1    2    0    0  0.53932753672E+02 -0.17478580473E+02  0.17196253119E+02  0.59244863197E+02  0.00000000000E+00 0. -1.
         11    1    1    2    0    0 -0.23856284694E+02 -0.17724917852E+02 -0.30103829113E+02  0.42302902495E+02  0.00000000000E+00 0.  1.
</event>
<event>
 7    1  0.2899775E-009  0.2281477E+03  0.7561462E-02  0.1127950E+00
          2   -1    0    0  501    0  0.00000000000E+00  0.00000000000E+00  0.14382859752E+04  0.14382859752E+04  0.00000000000E+00 0. -1.
         -2   -1    0    0    0  501 -0.00000000000E+00 -0.00000000000E+00 -0.41818816357E+02  0.41818816357E+02  0.00000000000E+00 0.  1.
         25    2    1    2    0    0 -0.33832842951E+02  0.21680091372E+03  0.72022885706E+03  0.76323266591E+03  0.12508876171E+03 0.  0.
          5    1    3    3  502    0 -0.33672420510E+02  0.21245755303E+03  0.72454687797E+03  0.75581591311E+03  0.41800000000E+01 0.  1.
         -5    1    3    3    0  502 -0.16042244092E+00  0.43433606934E+01 -0.43180209042E+01  0.74167527937E+01  0.41800000000E+01 0.  1.
        -11    1    1    2    0    0 -0.27776678457E+02 -0.48483270903E+02  0.11792620747E+03  0.13049429808E+03  0.00000000000E+00 0.  1.
         11    1    1    2    0    0  0.61609521408E+02 -0.16831764282E+03  0.55831209434E+03  0.58637782760E+03  0.00000000000E+00 0. -1.
</event>
<event>
 7    1  0.2899775E-009  0.1197024E+03  0.7561462E-02  0.1243589E+00
         -1   -1    0    0    0  501 -0.00000000000E+00  0.00000000000E+00  0.33329037988E+02  0.33329037988E+02  0.00000000000E+00 0.  1.
          1   -1    0    0  501    0  0.00000000000E+00 -0.00000000000E+00 -0.71695393879E+03  0.71695393879E+03  0.00000000000E+00 0. -1.
         25    2    1    2    0    0  0.65114627020E+02 -0.48520881274E+02 -0.54217597284E+03  0.56231413610E+03  0.12509281181E+03 0.  0.
          5    1    3    3  502    0  0.24934838441E+02 -0.70515367738E+02 -0.15221360829E+03  0.16964851371E+03  0.41800000000E+01 0.  1.
         -5    1    3    3    0  502  0.40179788579E+02  0.21994486465E+02 -0.38996236454E+03  0.39266562239E+03  0.41800000000E+01 0.  1.
        -11    1    1    2    0    0 -0.24988802589E+02  0.69044835445E+02 -0.59764235095E+02  0.94675199250E+02  0.00000000000E+00 0.  1.
         11    1    1    2    0    0 -0.40125824432E+02 -0.20523954172E+02 -0.81684692866E+02  0.93293641422E+02  0.00000000000E+00 0. -1.
</event>
<event>
 7    1  0.2899775E-009  0.2197168E+03  0.7561462E-02  0.1134094E+00
         -1   -1    0    0    0  501 -0.00000000000E+00  0.00000000000E+00  0.34701445726E+02  0.34701445726E+02  0.00000000000E+00 0.  1.
          1   -1    0    0  501    0  0.00000000000E+00 -0.00000000000E+00 -0.17970252382E+04  0.17970252382E+04  0.00000000000E+00 0. -1.
         25    2    1    2    0    0  0.64561185968E+02  0.20337767876E+03 -0.64864212898E+03  0.69419964299E+03  0.12508359561E+03 0.  0.
          5    1    3    3  502    0  0.44826186796E+02  0.67390746909E+02 -0.10063646165E+03  0.12921327179E+03  0.41800000000E+01 0. -1.
         -5    1    3    3    0  502  0.19734999173E+02  0.13598693185E+03 -0.54800566733E+03  0.56498637121E+03  0.41800000000E+01 0. -1.
        -11    1    1    2    0    0 -0.50934471783E+02 -0.20065284520E+03 -0.10941163769E+04  0.11135288640E+04  0.00000000000E+00 0. -1.
         11    1    1    2    0    0 -0.13626714185E+02 -0.27248335613E+01 -0.19565286551E+02  0.23998176915E+02  0.00000000000E+00 0.  1.
</event>
<event>
 7    1  0.2899775E-009  0.1514202E+03  0.7561462E-02  0.1198739E+00
          2   -1    0    0  501    0  0.00000000000E+00  0.00000000000E+00  0.16453378172E+03  0.16453378172E+03  0.00000000000E+00 0. -1.
         -2   -1    0    0    0  501 -0.00000000000E+00 -0.00000000000E+00 -0.14983626895E+03  0.14983626895E+03  0.00000000000E+00 0.  1.
         25    2    1    2    0    0  0.29058131878E+01 -0.11389922852E+03  0.13395729922E+02  0.16973494668E+03  0.12509607722E+03 0.  0.
          5    1    3    3  502    0 -0.47513549996E+02 -0.19532747222E+02  0.32554079568E+02  0.60961513628E+02  0.41800000000E+01 0.  1.
         -5    1    3    3    0  502  0.50419363184E+02 -0.94366481294E+02 -0.19158349645E+02  0.10877343305E+03  0.41800000000E+01 0.  1.
        -11    1    1    2    0    0 -0.18984320264E+02  0.12386363995E+03  0.47845364141E+01  0.12540134572E+03  0.00000000000E+00 0. -1.
         11    1    1    2    0    0  0.16078507076E+02 -0.99644114370E+01 -0.34827535754E+01  0.19233758279E+02  0.00000000000E+00 0.  1.
</event>
<event>
 7    1  0.2899775E-009  0.1329703E+03  0.7561462E-02  0.1223114E+00
          1   -1    0    0  501    0  0.00000000000E+00  0.00000000000E+00  0.39346892969E+03  0.39346892969E+03  0.00000000000E+00 0. -1.
         -1   -1    0    0    0  501 -0.00000000000E+00 -0.00000000000E+00 -0.47632376686E+02  0.47632376686E+02  0.00000000000E+00 0.  1.
         25    2    1    2    0    0  0.50419361223E+02 -0.64969235490E+02  0.17685771133E+03  0.23170909346E+03  0.12508932964E+03 0.  0.
          5    1    3    3  502    0  0.91394545974E+02 -0.40519787713E+02  0.10236593442E+03  0.14314703336E+03  0.41800000000E+01 0. -1.
         -5    1    3    3    0  502 -0.40975184751E+02 -0.24449447777E+02  0.74491776912E+02  0.88562060101E+02  0.41800000000E+01 0. -1.
        -11    1    1    2    0    0 -0.30495589412E+02  0.84650244941E+02  0.15202259334E+03  0.17665365501E+03  0.00000000000E+00 0. -1.
         11    1    1    2    0    0 -0.19923771811E+02 -0.19681009451E+02  0.16956248332E+02  0.32738557905E+02  0.00000000000E+00 0.  1.
</event>
<event>
 7    1  0.2899775E-009  0.9968738E+02  0.7561462E-02  0.1280955E+00
         -3   -1    0    0    0  501 -0.00000000000E+00  0.00000000000E+00  0.15443858440E+03  0.15443858440E+03  0.00000000000E+00 0.  1.
          3   -1    0    0  501    0  0.00000000000E+00 -0.00000000000E+00 -0.11374677613E+03  0.11374677613E+03  0.00000000000E+00 0. -1.
         25    2    1    2    0    0  0.62375485753E+01  0.27178715840E+02  0.80531539362E+02  0.15135582376E+03  0.12508264047E+03 0.  0.
          5    1    3    3  502    0 -0.35026797944E+01  0.62057100526E+02 -0.72124420451E+00  0.62300442091E+02  0.41800000000E+01 0.  1.
         -5    1    3    3    0  502  0.97402283697E+01 -0.34878384687E+02  0.81252783567E+02  0.89055381670E+02  0.41800000000E+01 0.  1.
        -11    1    1    2    0    0  0.42438797808E+02 -0.29834695669E+02 -0.43835982852E+02  0.67917258614E+02  0.00000000000E+00 0.  1.
         11    1    1    2    0    0 -0.48676346383E+02  0.26559798289E+01  0.39962517613E+01  0.48912278154E+02  0.00000000000E+00 0. -1.
</event>
<event>
 7    1  0.2899775E-009  0.1655615E+03  0.7561462E-02  0.1182557E+00
          2   -1    0    0  501    0  0.00000000000E+00  0.00000000000E+00  0.56690894547E+03  0.56690894547E+03  0.00000000000E+00 0. -1.
         -2   -1    0    0    0  501 -0.00000000000E+00 -0.00000000000E+00 -0.52209184834E+02  0.52209184834E+02  0.00000000000E+00 0.  1.
         25    2    1    2    0    0 -0.63446980774E+02  0.89205210766E+02  0.31904175413E+03  0.35974569554E+03  0.12508491347E+03 0.  0.
          5    1    3    3  502    0 -0.11135204662E+01  0.98798711888E+02  0.15404193229E+03  0.18305413053E+03  0.41800000000E+01 0.  1.
         -5    1    3    3    0  502 -0.62333460308E+02 -0.95935011221E+01  0.16499982184E+03  0.17669156501E+03  0.41800000000E+01 0.  1.
        -11    1    1    2    0    0  0.97012084309E+02 -0.31019007187E+02  0.13294282670E+03  0.16747333663E+03  0.00000000000E+00 0.  1.
         11    1    1    2    0    0 -0.33565103534E+02 -0.58186203579E+02  0.62715179802E+02  0.91899098145E+02  0.00000000000E+00 0. -1.
</event>
<event>
 7    1  0.2899775E-009  0.1234622E+03  0.7561462E-02  0.1237492E+00
          4   -1    0    0  501    0  0.00000000000E+00  0.00000000000E+00  0.45224599005E+02  0.45224599005E+02  0.00000000000E+00 0. -1.
         -4   -1    0    0    0  501 -0.00000000000E+00 -0.00000000000E+00 -0.58739163085E+03  0.58739163085E+03  0.00000000000E+00 0.  1.
         25    2    1    2    0    0 -0.87961468785E+02  0.32714124252E+02 -0.42480683542E+03  0.45267566724E+03  0.12508788260E+03 0.  0.
          5    1    3    3  502    0 -0.23645020537E+02 -0.43718311429E+02 -0.20845857098E+03  0.21434277680E+03  0.41800000000E+01 0.  1.
         -5    1    3    3    0  502 -0.64316448248E+02  0.76432435681E+02 -0.21634826443E+03  0.23833289043E+03  0.41800000000E+01 0.  1.
        -11    1    1    2    0    0  0.30204959975E+02  0.94070072571E+00 -0.10835504487E+03  0.11249017857E+03  0.00000000000E+00 0.  1.
         11    1    1    2    0    0  0.57756508809E+02 -0.33654824978E+02 -0.90051515555E+01  0.67450384052E+02  0.00000000000E+00 0. -1.
</event>
<event>
 7    1  0.2899775E-009  0.1105264E+03  0.7561462E-02  0.1259598E+00
         -1   -1    0    0    0  501 -0.00000000000E+00  0.00000000000E+00  0.81807598440E+02  0.81807598440E+02  0.00000000000E+00 0.  1.
          1   -1    0    0  501    0  0.00000000000E+00 -0.00000000000E+00 -0.16911803896E+03  0.16911803896E+03  0.00000000000E+00 0. -1.
         25    2    1    2    0    0  0.19339605926E+02 -0.31064229729E+02 -0.19457865751E+02  0.13177410053E+03  0.12508716283E+03 0.  0.
          5    1    3    3  502    0 -0.42302402454E+02 -0.47019649153E+02 -0.24057365599E+02  0.67798008078E+02  0.41800000000E+01 0.  1.
         -5    1    3    3    0  502  0.61642008380E+02  0.15955419423E+02  0.45994998478E+01  0.63976092448E+02  0.41800000000E+01 0.  1.
        -11    1    1    2    0    0 -0.32038705390E+02 -0.22278123678E+02 -0.11869020959E+02  0.40788075417E+02  0.00000000000E+00 0.  1.
         11    1    1    2    0    0  0.12699099464E+02  0.53342353408E+02 -0.55983553810E+02  0.78363461457E+02  0.00000000000E+00 0. -1.
</event>
<event>
 7    1  0.2899775E-009  0.9115317E+02  0.7561462E-02  0.1300083E+00
         -1   -1    0    0    0  501 -0.00000000000E+00  0.00000000000E+00  0.33098300416E+03  0.33098300416E+03  0.00000000000E+00 0.  1.
          1   -1    0    0  501    0  0.00000000000E+00 -0.00000000000E+00 -0.49272630756E+02  0.49272630756E+02  0.00000000000E+00 0. -1.
         25    2    1    2    0    0 -0.52890919102E+02 -0.41320786139E+02  0.17224043805E+03  0.22320067515E+03  0.12508763407E+03 0.  0.
          5    1    3    3  502    0 -0.33021899306E+02 -0.15158944900E+02  0.18434740908E+03  0.18794062648E+03  0.41800000000E+01 0.  1.
         -5    1    3    3    0  502 -0.19869019796E+02 -0.26161841240E+02 -0.12106971037E+02  0.35260048673E+02  0.41800000000E+01 0.  1.
        -11    1    1    2    0    0  0.54772066347E+02 -0.14582711337E+02  0.54656210998E+02  0.78739673117E+02  0.00000000000E+00 0. -1.
         11    1    1    2    0    0 -0.18811472450E+01  0.55903497476E+02  0.54813724359E+02  0.78315286650E+02  0.00000000000E+00 0.  1.
</event>
<event>
 7    1  0.2899775E-009  0.1248973E+03  0.7561462E-02  0.1235230E+00
         -2   -1    0    0    0  501 -0.00000000000E+00  0.00000000000E+00  0.40750808792E+02  0.40750808792E+02  0.00000000000E+00 0.  1.
          2   -1    0    0  501    0  0.00000000000E+00 -0.00000000000E+00 -0.63528296459E+03  0.63528296459E+03  0.00000000000E+00 0. -1.
         25    2    1    2    0    0  0.10006037239E+03  0.38361284385E+02 -0.42094002436E+03  0.45202841038E+03  0.12512199416E+03 0.  0.
          5    1    3    3  502    0  0.21696280359E+02  0.19653079809E+02 -0.32643744371E+03  0.32777408254E+03  0.41800000000E+01 0. -1.
         -5    1    3    3    0  502  0.78364092032E+02  0.18708204576E+02 -0.94502580644E+02  0.12425432784E+03  0.41800000000E+01 0. -1.
        -11    1    1    2    0    0 -0.28028819828E+01 -0.42125578306E+02 -0.36091875250E+02  0.55543171985E+02  0.00000000000E+00 0.  1.
         11    1    1    2    0    0 -0.97257490408E+02  0.37642939211E+01 -0.13750025619E+03  0.16846219101E+03  0.00000000000E+00 0. -1.
</event>
<event>
 7    1  0.2899775E-009  0.1906707E+03  0.7561462E-02  0.1157858E+00
         -1   -1    0    0    0  501 -0.00000000000E+00  0.00000000000E+00  0.25813076700E+02  0.25813076700E+02  0.00000000000E+00 0.  1.
          1   -1    0    0  501    0  0.00000000000E+00 -0.00000000000E+00 -0.15144487559E+04  0.15144487559E+04  0.00000000000E+00 0. -1.
         25    2    1    2    0    0  0.15322583084E+03  0.60531165191E+02 -0.81359176894E+03  0.83947695181E+03  0.12509120250E+03 0.  0.
          5    1    3    3  502    0  0.14088246289E+03 -0.37259130289E+01 -0.57590301747E+03  0.59291104620E+03  0.41800000000E+01 0. -1.
         -5    1    3    3    0  502  0.12343367944E+02  0.64257078220E+02 -0.23768875147E+03  0.24656590561E+03  0.41800000000E+01 0. -1.
        -11    1    1    2    0    0 -0.89305032557E+02 -0.65377948547E+02 -0.54094660367E+03  0.55215296161E+03  0.00000000000E+00 0.  1.
         11    1    1    2    0    0 -0.63920798280E+02  0.48467833558E+01 -0.13409730655E+03  0.14863191913E+03  0.00000000000E+00 0. -1.
</event>
<event>
 7    1  0.2899775E-009  0.1131522E+03  0.7561462E-02  0.1254841E+00
         -3   -1    0    0    0  501 -0.00000000000E+00  0.00000000000E+00  0.53371712629E+02  0.53371712629E+02  0.00000000000E+00 0.  1.
          3   -1    0    0  501    0  0.00000000000E+00 -0.00000000000E+00 -0.27883286695E+03  0.27883286695E+03  0.00000000000E+00 0. -1.
         25    2    1    2    0    0  0.99418384956E+01  0.34571511752E+02 -0.18175355641E+03  0.22355597376E+03  0.12509551774E+03 0.  0.
          5    1    3    3  502    0  0.57370462285E+02  0.52595753129E+02 -0.12504424948E+03  0.14734727659E+03  0.41800000000E+01 0.  1.
         -5    1    3    3    0  502 -0.47428623789E+02 -0.18024241377E+02 -0.56709306933E+02  0.76208697172E+02  0.41800000000E+01 0.  1.
        -11    1    1    2    0    0 -0.49798212128E+02 -0.10510821372E+02 -0.11910648719E+02  0.52270477805E+02  0.00000000000E+00 0.  1.
         11    1    1    2    0    0  0.39856373632E+02 -0.24060690380E+02 -0.31796949188E+02  0.56378128013E+02  0.00000000000E+00 0. -1.
</event>
<event>
 7    1  0.2899775E-009  0.1006026E+03  0.7561462E-02  0.1279034E+00
          1   -1    0    0  501    0  0.00000000000E+00  0.00000000000E+00  0.15968022183E+03  0.15968022183E+03  0.00000000000E+00 0. -1.
         -1   -1    0    0    0  501 -0.00000000000E+00 -0.00000000000E+00 -0.12778735365E+03  0.12778735365E+03  0.00000000000E+00 0.  1.
         25    2    1    2    0    0 -0.14822879514E+02  0.64258404064E+02 -0.48116182986E+02  0.14937113302E+03  0.12509079928E+03 0.  0.
          5    1    3    3  502    0  0.14909846669E+02 -0.28849718875E+02  0.11622378406E+02  0.34744235301E+02  0.41800000000E+01 0. -1.
         -5    1    3    3    0  502 -0.29732726182E+02  0.93108122940E+02 -0.59738561392E+02  0.11462689772E+03  0.41800000000E+01 0. -1.
        -11    1    1    2    0    0 -0.46280903382E+01 -0.36183788094E+02  0.94271937935E+02  0.10108354972E+03  0.00000000000E+00 0. -1.
         11    1    1    2    0    0  0.19450969852E+02 -0.28074615970E+02 -0.14262886772E+02  0.37012892742E+02  0.00000000000E+00 0.  1.
</event>
<event>
 7    1  0.2899775E-009  0.8062902E+02  0.7561462E-02  0.1327276E+00
          2   -1    0    0  501    0  0.00000000000E+00  0.00000000000E+00  0.25574960452E+03  0.25574960452E+03  0.00000000000E+00 0. -1.
         -2   -1    0    0    0  501 -0.00000000000E+00 -0.00000000000E+00 -0.79656354963E+02  0.79656354963E+02  0.00000000000E+00 0.  1.
         25    2    1    2    0    0 -0.21667939733E+02  0.24634462144E+02  0.19682082842E+03  0.23551717774E+03  0.12511413258E+03 0.  0.
          5    1    3    3  502    0 -0.33304995040E+02 -0.37432520787E+01  0.20141181690E+03  0.20422396288E+03  0.41800000000E+01 0.  1.
         -5    1    3    3    0  502  0.11637055307E+02  0.28377714223E+02 -0.45909884734E+01  0.31293214854E+02  0.41800000000E+01 0.  1.
        -11    1    1    2    0    0  0.13173229765E+02 -0.59347415034E+02 -0.54919888974E+01  0.61039426567E+02  0.00000000000E+00 0. -1.
         11    1    1    2    0    0  0.84947099685E+01  0.34712952889E+02 -0.15235589970E+02  0.38849355175E+02  0.00000000000E+00 0.  1.
</event>
<event>
 7    1  0.2899775E-009  0.1343433E+03  0.7561462E-02  0.1221150E+00
          1   -1    0    0  501    0  0.00000000000E+00  0.00000000000E+00  0.10296246923E+04  0.10296246923E+04  0.00000000000E+00 0. -1.
         -1   -1    0    0    0  501 -0.00000000000E+00 -0.00000000000E+00 -0.36227400067E+02  0.36227400067E+02  0.00000000000E+00 0.  1.
         25    2    1    2    0    0 -0.53008901172E+02  0.74659804315E+02  0.88062384519E+03  0.89416459582E+03  0.12509171721E+03 0.  0.
          5    1    3    3  502    0 -0.78162906637E+02  0.69998012979E+01  0.35525052556E+03  0.36383903791E+03  0.41800000000E+01 0.  1.
         -5    1    3    3    0  502  0.25154005465E+02  0.67660003017E+02  0.52537331963E+03  0.53032555791E+03  0.41800000000E+01 0.  1.
        -11    1    1    2    0    0  0.72017035857E+02 -0.56937212862E+02  0.51811002062E+02  0.10541669506E+03  0.00000000000E+00 0.  1.
         11    1    1    2    0    0 -0.19008134685E+02 -0.17722591453E+02  0.60962444984E+02  0.66270801492E+02  0.00000000000E+00 0. -1.
</event>
<event>
 7    1  0.2899775E-009  0.7818509E+02  0.7561462E-02  0.1334282E+00
          1   -1    0    0  501    0  0.00000000000E+00  0.00000000000E+00  0.29224746722E+03  0.29224746722E+03  0.00000000000E+00 0. -1.
         -1   -1    0    0    0  501 -0.00000000000E+00 -0.00000000000E+00 -0.54248573938E+02  0.54248573938E+02  0.00000000000E+00 0.  1.
         25    2    1    2    0    0  0.50856353181E+02  0.54944398559E+01  0.77505835001E+02  0.15579217772E+03  0.12508993026E+03 0.  0.
          5    1    3    3  502    0  0.41508799989E+02 -0.46991476921E+01  0.11134537105E+03  0.11899717022E+03  0.41800000000E+01 0.  1.
         -5    1    3    3    0  502  0.93475531917E+01  0.10193587548E+02 -0.33839536046E+02  0.36795007509E+02  0.41800000000E+01 0.  1.
        -11    1    1    2    0    0 -0.34343150726E+02  0.39303844831E+02  0.10667719201E+03  0.11876138899E+03  0.00000000000E+00 0. -1.
         11    1    1    2    0    0 -0.16513202455E+02 -0.44798284687E+02  0.53815866267E+02  0.71942474438E+02  0.00000000000E+00 0.  1.
</event>
<event>
 7    1  0.2899775E-009  0.7401533E+02  0.7561462E-02  0.1346948E+00
         -1   -1    0    0    0  501 -0.00000000000E+00  0.00000000000E+00  0.46696163434E+02  0.46696163434E+02  0.00000000000E+00 0.  1.
          1   -1    0    0  501    0  0.00000000000E+00 -0.00000000000E+00 -0.31491352976E+03  0.31491352976E+03  0.00000000000E+00 0. -1.
         25    2    1    2    0    0  0.54925176843E+02  0.52779243186E+01 -0.12585621453E+03  0.18582928093E+03  0.12509237937E+03 0.  0.
          5    1    3    3  502    0  0.70583720107E+02 -0.89141339678E+01 -0.14201915240E+03  0.15889756253E+03  0.41800000000E+01 0.  1.
         -5    1    3    3    0  502 -0.15658543264E+02  0.14192058286E+02  0.16162937868E+02  0.26931718402E+02  0.41800000000E+01 0.  1.
        -11    1    1    2    0    0 -0.27396292745E+02 -0.15385818498E+01 -0.14527745531E+03  0.14784607912E+03  0.00000000000E+00 0. -1.
         11    1    1    2    0    0 -0.27528884098E+02 -0.37393424688E+01  0.29163035191E+01  0.27934333140E+02  0.00000000000E+00 0.  1.
</event>
<event>
 7    1  0.2899775E-009  0.1465045E+03  0.7561462E-02  0.1204835E+00
         -3   -1    0    0    0  501 -0.00000000000E+00  0.00000000000E+00  0.48404024566E+03  0.48404024566E+03  0.00000000000E+00 0.  1.
          3   -1    0    0  501    0  0.00000000000E+00 -0.00000000000E+00 -0.47894188768E+02  0.47894188768E+02  0.00000000000E+00 0. -1.
         25    2    1    2    0    0  0.10485534156E+03 -0.21226060530E+02  0.23953631206E+03  0.29063757139E+03  0.12508942724E+03 0.  0.
          5    1    3    3  502    0  0.11302607558E+03 -0.53267112393E+02  0.21689123785E+03  0.25034288582E+03  0.41800000000E+01 0.  1.
         -5    1    3    3    0  502 -0.81707340210E+01  0.32041051863E+02  0.22645074206E+02  0.40294685564E+02  0.41800000000E+01 0.  1.
        -11    1    1    2    0    0 -0.36075357988E+02  0.48691366818E+02  0.12172235875E+03  0.13597284022E+03  0.00000000000E+00 0. -1.
         11    1    1    2    0    0 -0.68779983574E+02 -0.27465306288E+02  0.74887386086E+02  0.10532402283E+03  0.00000000000E+00 0.  1.
</event>
<event>
 7    1  0.2899775E-009  0.8712415E+02  0.7561462E-02  0.1309969E+00
          1   -1    0    0  501    0  0.00000000000E+00  0.00000000000E+00  0.30325086513E+03  0.30325086513E+03  0.00000000000E+00 0. -1.
         -1   -1    0    0    0  501 -0.00000000000E+00 -0.00000000000E+00 -0.47899892959E+02  0.47899892959E+02  0.00000000000E+00 0.  1.
         25    2    1    2    0    0 -0.10390444209E+02  0.18917644788E+02  0.21104875427E+03  0.24628172349E+03  0.12508905640E+03 0.  0.
          5    1    3    3  502    0 -0.41098856331E+02  0.38583843231E+02  0.20017053904E+03  0.20799890877E+03  0.41800000000E+01 0. -1.
         -5    1    3    3    0  502  0.30708412123E+02 -0.19666198443E+02  0.10878215228E+02  0.38282814720E+02  0.41800000000E+01 0. -1.
        -11    1    1    2    0    0 -0.19877402825E+02  0.22303895903E+02 -0.88001389170E+01  0.31145101709E+02  0.00000000000E+00 0.  1.
         11    1    1    2    0    0  0.30267847034E+02 -0.41221540691E+02  0.53102356819E+02  0.73723932890E+02  0.00000000000E+00 0. -1.
</event>
<event>
 7    1  0.2899775E-009  0.1053097E+03  0.7561462E-02  0.1269511E+00
          1   -1    0    0  501    0  0.00000000000E+00  0.00000000000E+00  0.16852205565E+03  0.16852205565E+03  0.00000000000E+00 0. -1.
         -1   -1    0    0    0  501 -0.00000000000E+00 -0.00000000000E+00 -0.29578849152E+03  0.29578849152E+03  0.00000000000E+00 0.  1.
         25    2    1    2    0    0  0.89109170802E+02 -0.47250058725E+02 -0.24704730512E+03  0.29470845206E+03  0.12509072060E+03 0.  0.
          5    1    3    3  502    0  0.28737006763E+02 -0.99977288197E+01 -0.21425301396E+03  0.21644305609E+03  0.41800000000E+01 0. -1.
         -5    1    3    3    0  502  0.60372164038E+02 -0.37252329905E+02 -0.32794291162E+02  0.78265395973E+02  0.41800000000E+01 0. -1.
        -11    1    1    2    0    0 -0.81962245854E+02  0.25328553296E+02  0.57721403571E+02  0.10339780359E+03  0.00000000000E+00 0.  1.
         11    1    1    2    0    0 -0.71469249476E+01  0.21921505429E+02  0.62059465668E+02  0.66204291518E+02  0.00000000000E+00 0. -1.
</event>
<event>
 7    1  0.2899775E-009  0.1128141E+03  0.7561462E-02  0.1255446E+00
         -2   -1    0    0    0  501 -0.00000000000E+00  0.00000000000E+00  0.27317085527E+02  0.27317085527E+02  0.00000000000E+00 0.  1.
          2   -1    0    0  501    0  0.00000000000E+00 -0.00000000000E+00 -0.57103593530E+03  0.57103593530E+03  0.00000000000E+00 0. -1.
         25    2    1    2    0    0 -0.81319681749E+01  0.53415244834E+02 -0.22537280300E+03  0.26336233605E+03  0.12508997734E+03 0.  0.
          5    1    3    3  502    0 -0.34393834398E+02 -0.23962662240E+02 -0.13515722503E+03  0.14157009891E+03  0.41800000000E+01 0. -1.
         -5    1    3    3    0  502  0.26261866223E+02  0.77377907074E+02 -0.90215577968E+02  0.12179223714E+03  0.41800000000E+01 0. -1.
        -11    1    1    2    0    0 -0.17554339354E+02  0.18388499626E+02 -0.11595600761E+03  0.11871009835E+03  0.00000000000E+00 0.  1.
         11    1    1    2    0    0  0.25686307529E+02 -0.71803744460E+02 -0.20239003916E+03  0.21628058643E+03  0.00000000000E+00 0. -1.
</event>
<event>
 7    1  0.2899775E-009  0.9056249E+02  0.7561462E-02  0.1301495E+00
          1   -1    0    0  501    0  0.00000000000E+00  0.00000000000E+00  0.12349324934E+03  0.12349324934E+03  0.00000000000E+00 0. -1.
         -1   -1    0    0    0  501 -0.00000000000E+00 -0.00000000000E+00 -0.15282550346E+03  0.15282550346E+03  0.00000000000E+00 0.  1.
         25    2    1    2    0    0  0.57498639124E+02  0.22639019112E+02 -0.73192642044E+02  0.15755636434E+03  0.12509287113E+03 0.  0.
          5    1    3    3  502    0  0.47484264909E+01  0.21967903737E+02 -0.96906344499E+02  0.99566301292E+02  0.41800000000E+01 0. -1.
         -5    1    3    3    0  502  0.52750212633E+02  0.67111537480E+00  0.23713702455E+02  0.57990063052E+02  0.41800000000E+01 0. -1.
        -11    1    1    2    0    0  0.45384502237E+01  0.26075018603E+02 -0.35946364981E+01  0.26710026903E+02  0.00000000000E+00 0.  1.
         11    1    1    2    0    0 -0.62037089348E+02 -0.48714037715E+02  0.47455024418E+02  0.92052361554E+02  0.00000000000E+00 0. -1.
</event>
<event>
 7    1  0.2899775E-009  0.1491369E+03  0.7561462E-02  0.1201538E+00
         -1   -1    0    0    0  501 -0.00000000000E+00  0.00000000000E+00  0.53508478177E+02  0.53508478177E+02  0.00000000000E+00 0.  1.
          1   -1    0    0  501    0  0.00000000000E+00 -0.00000000000E+00 -0.71148452580E+03  0.71148452580E+03  0.00000000000E+00 0. -1.
         25    2    1    2    0    0 -0.36624662018E+02 -0.12559450962E+03 -0.53348763161E+03  0.56335754942E+03  0.12508928292E+03 0.  0.
          5    1    3    3  502    0 -0.25627043780E+02 -0.12637782743E+03 -0.26627638355E+03  0.29588627118E+03  0.41800000000E+01 0.  1.
         -5    1    3    3    0  502 -0.10997618237E+02  0.78331781757E+00 -0.26721124806E+03  0.26747127824E+03  0.41800000000E+01 0.  1.
        -11    1    1    2    0    0 -0.25621289662E+02  0.12813845562E+02 -0.13814255824E+02  0.31803754275E+02  0.00000000000E+00 0. -1.
         11    1    1    2    0    0  0.62245951679E+02  0.11278066406E+03 -0.11067416019E+03  0.16983170028E+03  0.00000000000E+00 0.  1.
</event>
<event>
 7    1  0.2899775E-009  0.1188943E+03  0.7561462E-02  0.1244932E+00
          1   -1    0    0  501    0  0.00000000000E+00  0.00000000000E+00  0.10137478884E+04  0.10137478884E+04  0.00000000000E+00 0. -1.
         -1   -1    0    0    0  501 -0.00000000000E+00 -0.00000000000E+00 -0.14621020423E+02  0.14621020423E+02  0.00000000000E+00 0.  1.
         25    2    1    2    0    0 -0.49926536636E+02  0.53850387014E+01  0.66607573831E+03  0.67957811175E+03  0.12509141899E+03 0.  0.
          5    1    3    3  502    0  0.14926190934E+02  0.51991483673E+02  0.23913298726E+03  0.24521003965E+03  0.41800000000E+01 0. -1.
         -5    1    3    3    0  502 -0.64852727569E+02 -0.46606444972E+02  0.42694275105E+03  0.43436807210E+03  0.41800000000E+01 0. -1.
        -11    1    1    2    0    0  0.34769504676E+02  0.41586951461E+02  0.17860510876E+03  0.18664988043E+03  0.00000000000E+00 0.  1.
         11    1    1    2    0    0  0.15157031959E+02 -0.46971990162E+02  0.15444602094E+03  0.16214091668E+03  0.00000000000E+00 0. -1.
</event>
<event>
 7    1  0.2899775E-009  0.1331926E+03  0.7561462E-02  0.1222794E+00
          1   -1    0    0  501    0  0.00000000000E+00  0.00000000000E+00  0.37678472206E+03  0.37678472206E+03  0.00000000000E+00 0. -1.
         -1   -1    0    0    0  501 -0.00000000000E+00 -0.00000000000E+00 -0.59399018694E+02  0.59399018694E+02  0.00000000000E+00 0.  1.
         25    2    1    2    0    0  0.68824813898E+02 -0.57394767235E+02  0.97697431379E+02  0.18227607488E+03  0.12509502413E+03 0.  0.
          5    1    3    3  502    0  0.17229705057E+01  0.37238988473E+02  0.28720875229E+02  0.47244808855E+02  0.41800000000E+01 0. -1.
         -5    1    3    3    0  502  0.67101843392E+02 -0.94633755708E+02  0.68976556150E+02  0.13503126603E+03  0.41800000000E+01 0. -1.
        -11    1    1    2    0    0 -0.38466741025E+02 -0.92423192767E+01  0.27332005574E+02  0.48084812149E+02  0.00000000000E+00 0.  1.
         11    1    1    2    0    0 -0.30358072873E+02  0.66637086512E+02  0.19235626641E+03  0.20582285372E+03  0.00000000000E+00 0. -1.
</event>
<event>
 7    1  0.2899775E-009  0.2264879E+03  0.7561462E-02  0.1129136E+00
          2   -1    0    0  501    0  0.00000000000E+00  0.00000000000E+00  0.20267423029E+03  0.20267423029E+03  0.00000000000E+00 0. -1.
         -2   -1    0    0    0  501 -0.00000000000E+00 -0.00000000000E+00 -0.29919377393E+03  0.29919377393E+03  0.00000000000E+00 0.  1.
         25    2    1    2    0    0 -0.18478120587E+03 -0.10253739543E+03  0.15954918682E+02  0.24608871972E+03  0.12508831695E+03 0.  0.
          5    1    3    3  502    0 -0.46888583470E+02  0.23758934353E+02 -0.18546208236E+02  0.55896873449E+02  0.41800000000E+01 0.  1.
         -5    1    3    3    0  502 -0.13789262240E+03 -0.12629632978E+03  0.34501126918E+02  0.19019184627E+03  0.41800000000E+01 0.  1.
        -11    1    1    2    0    0  0.44254372228E+02  0.38996052663E+02  0.87299495815E+01  0.59626785963E+02  0.00000000000E+00 0. -1.
         11    1    1    2    0    0  0.14052683364E+03  0.63541342769E+02 -0.12120441190E+03  0.19615249853E+03  0.00000000000E+00 0.  1.
</event>
<event>
 7    1  0.2899775E-009  0.4036208E+03  0.7561462E-02  0.1042533E+00
          2   -1    0    0  501    0  0.00000000000E+00  0.00000000000E+00  0.18184131613E+03  0.18184131613E+03  0.00000000000E+00 0. -1.
         -2   -1    0    0    0  501 -0.00000000000E+00 -0.00000000000E+00 -0.11828318070E+04  0.11828318070E+04  0.00000000000E+00 0.  1.
         25    2    1    2    0    0  0.14216705180E+03 -0.36910248704E+03 -0.18656405769E+03  0.45486432973E+03  0.12508914535E+03 0.  0.
          5    1    3    3  502    0  0.70391899060E+02 -0.31000495259E+03 -0.16935864567E+03  0.36021925732E+03  0.41800000000E+01 0. -1.
         -5    1    3    3    0  502  0.71775152738E+02 -0.59097534450E+02 -0.17205412021E+02  0.94645072410E+02  0.41800000000E+01 0. -1.
        -11    1    1    2    0    0 -0.42206333921E+02  0.14157193314E+03 -0.40209307951E+03  0.42837230474E+03  0.00000000000E+00 0. -1.
         11    1    1    2    0    0 -0.99960717877E+02  0.22753055390E+03 -0.41233335368E+03  0.48143648868E+03  0.00000000000E+00 0.  1.
</event>
<event>
 7    1  0.2899775E-009  0.1470459E+03  0.7561462E-02  0.1204151E+00
          1   -1    0    0  501    0  0.00000000000E+00  0.00000000000E+00  0.37395488516E+02  0.37395488516E+02  0.00000000000E+00 0. -1.
         -1   -1    0    0    0  501 -0.00000000000E+00 -0.00000000000E+00 -0.74966822638E+03  0.74966822638E+03  0.00000000000E+00 0.  1.
         25    2    1    2    0    0  0.12237484295E+03  0.13273508288E+02 -0.44397006550E+03  0.47739719143E+03  0.12508745385E+03 0.  0.
          5    1    3    3  502    0  0.66082029199E+02 -0.36044948250E+02 -0.34557646492E+03  0.35370416790E+03  0.41800000000E+01 0.  1.
         -5    1    3    3    0  502  0.56292813755E+02  0.49318456539E+02 -0.98393600576E+02  0.12369302353E+03  0.41800000000E+01 0.  1.
        -11    1    1    2    0    0  0.28146576408E+01 -0.18240908298E+02 -0.89215330813E+02  0.91104491026E+02  0.00000000000E+00 0.  1.
         11    1    1    2    0    0 -0.12518950059E+03  0.49674000097E+01 -0.17908734155E+03  0.21856203244E+03  0.00000000000E+00 0. -1.
</event>
<event>
 7    1  0.2899775E-009  0.2523646E+03  0.7561462E-02  0.1111819E+00
          2   -1    0    0  501    0  0.00000000000E+00  0.00000000000E+00  0.12802553634E+04  0.12802553634E+04  0.00000000000E+00 0. -1.
         -2   -1    0    0    0  501 -0.00000000000E+00 -0.00000000000E+00 -0.68660645121E+02  0.68660645121E+02  0.00000000000E+00 0.  1.
         25    2    1    2    0    0 -0.10877325056E+02 -0.23190023464E+03  0.28148354171E+03  0.38571565572E+03  0.12509015861E+03 0.  0.
          5    1    3    3  502    0  0.46572528894E+02 -0.11572311478E+03  0.18879422972E+03  0.22632183571E+03  0.41800000000E+01 0.  1.
         -5    1    3    3    0  502 -0.57449853950E+02 -0.11617711987E+03  0.92689311991E+02  0.15939382001E+03  0.41800000000E+01 0.  1.
        -11    1    1    2    0    0 -0.37430602268E+02  0.15478429224E+03  0.60135885882E+03  0.62208657290E+03  0.00000000000E+00 0. -1.
         11    1    1    2    0    0  0.48307927324E+02  0.77115942399E+02  0.32875231776E+03  0.34111377991E+03  0.00000000000E+00 0.  1.
</event>
<event>
 7    1  0.2899775E-009  0.8534059E+02  0.7561462E-02  0.1314544E+00
         -1   -1    0    0    0  501 -0.00000000000E+00  0.00000000000E+00  0.32896079005E+02  0.32896079005E+02  0.00000000000E+00 0. -1.
          1   -1    0    0  501    0  0.00000000000E+00 -0.00000000000E+00 -0.38702506541E+03  0.38702506541E+03  0.00000000000E+00 0.  1.
         25    2    1    2    0    0  0.15561683446E+02  0.27684950053E+01 -0.26126487036E+03  0.29009841577E+03  0.12509167755E+03 0.  0.
          5    1    3    3  502    0 -0.21104834957E+02  0.28694765504E+02 -0.13593913051E+02  0.38354536862E+02  0.41800000000E+01 0. -1.
         -5    1    3    3    0  502  0.36666518403E+02 -0.25926270498E+02 -0.24767095731E+03  0.25174387891E+03  0.41800000000E+01 0. -1.
        -11    1    1    2    0    0 -0.23214959097E+02  0.40010418217E+02 -0.38219905342E+02  0.60004408640E+02  0.00000000000E+00 0. -1.
         11    1    1    2    0    0  0.76532756508E+01 -0.42778913223E+02 -0.54644210698E+02  0.69818319999E+02  0.00000000000E+00 0.  1.
</event>
<event>
 7    1  0.2899775E-009  0.8382667E+02  0.7561462E-02  0.1318530E+00
         -1   -1    0    0    0  501 -0.00000000000E+00  0.00000000000E+00  0.68118752484E+03  0.68118752484E+03  0.00000000000E+00 0. -1.
          1   -1    0    0  501    0  0.00000000000E+00 -0.00000000000E+00 -0.30274009696E+02  0.30274009696E+02  0.00000000000E+00 0.  1.
         25    2    1    2    0    0  0.50857780349E+02 -0.16133370675E+02  0.16517902773E+03  0.21395811247E+03  0.12508862147E+03 0.  0.
          5    1    3    3  502    0  0.10534492604E+02  0.72565518143E+01  0.16659105684E+03  0.16713373597E+03  0.41800000000E+01 0.  1.
         -5    1    3    3    0  502  0.40323287746E+02 -0.23389922489E+02 -0.14120291174E+01  0.46824376503E+02  0.41800000000E+01 0.  1.
        -11    1    1    2    0    0 -0.13683121460E+02  0.53178892562E+02  0.26268153723E+03  0.26835948359E+03  0.00000000000E+00 0. -1.
         11    1    1    2    0    0 -0.37174658889E+02 -0.37045521887E+02  0.22305295018E+03  0.22914393848E+03  0.00000000000E+00 0.  1.
</event>
<event>
 7    1  0.2899775E-009  0.1232807E+03  0.7561462E-02  0.1237781E+00
          1   -1    0    0  501    0  0.00000000000E+00  0.00000000000E+00  0.12619530077E+03  0.12619530077E+03  0.00000000000E+00 0. -1.
         -1   -1    0    0    0  501 -0.00000000000E+00 -0.00000000000E+00 -0.20198776864E+03  0.20198776864E+03  0.00000000000E+00 0.  1.
         25    2    1    2    0    0  0.98935377566E+02  0.40140253643E+02 -0.90668409762E+02  0.18779632500E+03  0.12508896936E+03 0.  0.
          5    1    3    3  502    0  0.39678894990E+02 -0.27547880398E+02 -0.84631517157E+02  0.97535975509E+02  0.41800000000E+01 0.  1.
         -5    1    3    3    0  502  0.59256482575E+02  0.67688134041E+02 -0.60368926054E+01  0.90260349487E+02  0.41800000000E+01 0.  1.
        -11    1    1    2    0    0 -0.72400432884E+02 -0.21277930765E+02 -0.33104092425E+02  0.82404210783E+02  0.00000000000E+00 0.  1.
         11    1    1    2    0    0 -0.26534944681E+02 -0.18862322878E+02  0.47980034311E+02  0.57982533630E+02  0.00000000000E+00 0. -1.
</event>
<event>
 7    1  0.2899775E-009  0.9375410E+02  0.7561462E-02  0.1294007E+00
          1   -1    0    0  501    0  0.00000000000E+00  0.00000000000E+00  0.23430224980E+03  0.23430224980E+03  0.00000000000E+00 0. -1.
         -1   -1    0    0    0  501 -0.00000000000E+00 -0.00000000000E+00 -0.17880738650E+03  0.17880738650E+03  0.00000000000E+00 0.  1.
         25    2    1    2    0    0 -0.22208303182E+02  0.50469900258E+02  0.19443578648E+03  0.23768357747E+03  0.12509112027E+03 0.  0.
          5    1    3    3  502    0  0.24079131721E+02  0.23711753500E+00  0.15852684101E+03  0.16039978968E+03  0.41800000000E+01 0. -1.
         -5    1    3    3    0  502 -0.46287434902E+02  0.50232782723E+02  0.35908945471E+02  0.77283787787E+02  0.41800000000E+01 0. -1.
        -11    1    1    2    0    0 -0.21028700119E+02  0.74898184118E+01 -0.77138409134E+02  0.80303410714E+02  0.00000000000E+00 0.  1.
         11    1    1    2    0    0  0.43237003301E+02 -0.57959718670E+02 -0.61802514040E+02  0.95122648115E+02  0.00000000000E+00 0. -1.
</event>
<event>
 7    1  0.2899775E-009  0.9916452E+02  0.7561462E-02  0.1282063E+00
          1   -1    0    0  501    0  0.00000000000E+00  0.00000000000E+00  0.28119559317E+03  0.28119559317E+03  0.00000000000E+00 0. -1.
         -1   -1    0    0    0  501 -0.00000000000E+00 -0.00000000000E+00 -0.43808484756E+02  0.43808484756E+02  0.00000000000E+00 0.  1.
         25    2    1    2    0    0 -0.26557975811E+01 -0.12734410381E+02  0.11207424904E+03  0.16845563933E+03  0.12508975440E+03 0.  0.
          5    1    3    3  502    0 -0.45110468612E+02 -0.35947383663E+02  0.14746429631E+02  0.59683317246E+02  0.41800000000E+01 0.  1.
         -5    1    3    3    0  502  0.42454671031E+02  0.23212973282E+02  0.97327819411E+02  0.10877232209E+03  0.41800000000E+01 0.  1.
        -11    1    1    2    0    0 -0.21933112863E+02 -0.33221660864E+02  0.70140580661E+02  0.80650116218E+02  0.00000000000E+00 0.  1.
         11    1    1    2    0    0  0.24588910444E+02  0.45956071246E+02  0.55172278712E+02  0.75898322376E+02  0.00000000000E+00 0. -1.
</event>
<event>
 7    1  0.2899775E-009  0.1100110E+03  0.7561462E-02  0.1260550E+00
          1   -1    0    0  501    0  0.00000000000E+00  0.00000000000E+00  0.26791249272E+02  0.26791249272E+02  0.00000000000E+00 0. -1.
         -1   -1    0    0    0  501 -0.00000000000E+00 -0.00000000000E+00 -0.75819123971E+03  0.75819123971E+03  0.00000000000E+00 0.  1.
         25    2    1    2    0    0 -0.21134863198E+02 -0.90023260162E+02 -0.42956658289E+03  0.45686616290E+03  0.12509345249E+03 0.  0.
          5    1    3    3  502    0 -0.17649497089E+02 -0.34082418265E+02 -0.20037410085E+02  0.43498117031E+02  0.41800000000E+01 0.  1.
         -5    1    3    3    0  502 -0.34853661092E+01 -0.55940841896E+02 -0.40952917280E+03  0.41336804587E+03  0.41800000000E+01 0.  1.
        -11    1    1    2    0    0 -0.23953906773E+02  0.73306654054E+02 -0.22089147449E+03  0.23396730259E+03  0.00000000000E+00 0. -1.
         11    1    1    2    0    0  0.45088769972E+02  0.16716606108E+02 -0.80941933060E+02  0.94149023494E+02  0.00000000000E+00 0.  1.
</event>
<event>
 7    1  0.2899775E-009  0.9371130E+02  0.7561462E-02  0.1294105E+00
         -1   -1    0    0    0  501 -0.00000000000E+00  0.00000000000E+00  0.13861043130E+02  0.13861043130E+02  0.00000000000E+00 0.  1.
          1   -1    0    0  501    0  0.00000000000E+00 -0.00000000000E+00 -0.86268976511E+03  0.86268976511E+03  0.00000000000E+00 0. -1.
         25    2    1    2    0    0  0.46405214943E+01 -0.73377154604E+01 -0.54909595277E+03  0.56322769829E+03  0.12507477070E+03 0.  0.
          5    1    3    3  502    0 -0.17464896202E+02  0.40042768537E+02 -0.43994841866E+03  0.44213180093E+03  0.41800000000E+01 0.  1.
         -5    1    3    3    0  502  0.22105417696E+02 -0.47380483997E+02 -0.10914753411E+03  0.12109589736E+03  0.41800000000E+01 0.  1.
        -11    1    1    2    0    0  0.35983006240E+02 -0.20901000532E+02 -0.14707175425E+03  0.15284544305E+03  0.00000000000E+00 0. -1.
         11    1    1    2    0    0 -0.40623527735E+02  0.28238715993E+02 -0.15266101495E+03  0.16047766690E+03  0.00000000000E+00 0.  1.
</event>
<event>
 7    1  0.2899775E-009  0.1063133E+03  0.7561462E-02  0.1267553E+00
         -2   -1    0    0    0  501 -0.00000000000E+00  0.00000000000E+00  0.18829979643E+03  0.18829979643E+03  0.00000000000E+00 0. -1.
          2   -1    0    0  501    0  0.00000000000E+00 -0.00000000000E+00 -0.74318771893E+02  0.74318771893E+02  0.00000000000E+00 0.  1.
         25    2    1    2    0    0 -0.43278740205E+02 -0.16985997824E+02  0.60975538754E+02  0.14672076960E+03  0.12508954564E+03 0.  0.
          5    1    3    3  502    0  0.37791478453E+01 -0.65193925994E+02  0.23576699698E+02  0.69554749037E+02  0.41800000000E+01 0.  1.
         -5    1    3    3    0  502 -0.47057888050E+02  0.48207928171E+02  0.37398839056E+02  0.77166020560E+02  0.41800000000E+01 0.  1.
        -11    1    1    2    0    0 -0.17270032199E+02  0.48622288531E+01  0.51055749863E+02  0.54116401171E+02  0.00000000000E+00 0. -1.
         11    1    1    2    0    0  0.60548772405E+02  0.12123768971E+02  0.19497359201E+01  0.61781397556E+02  0.00000000000E+00 0.  1.
</event>
<event>
 7    1  0.2899775E-009  0.1091389E+03  0.7561462E-02  0.1262173E+00
          1   -1    0    0  501    0  0.00000000000E+00  0.00000000000E+00  0.45568525781E+03  0.45568525781E+03  0.00000000000E+00 0. -1.
         -1   -1    0    0    0  501 -0.00000000000E+00 -0.00000000000E+00 -0.32729606273E+02  0.32729606273E+02  0.00000000000E+00 0.  1.
         25    2    1    2    0    0 -0.55953275201E+02  0.27288723005E+01  0.22430252196E+03  0.26286026933E+03  0.12508270897E+03 0.  0.
          5    1    3    3  502    0 -0.47860821056E+02  0.57332202231E+02  0.16800973878E+03  0.18390863038E+03  0.41800000000E+01 0.  1.
         -5    1    3    3    0  502 -0.80924541451E+01 -0.54603329931E+02  0.56292783180E+02  0.78951638943E+02  0.41800000000E+01 0.  1.
        -11    1    1    2    0    0  0.13578996516E+02 -0.33238011203E+02  0.23812092243E+02  0.43083294583E+02  0.00000000000E+00 0.  1.
         11    1    1    2    0    0  0.42374278685E+02  0.30509138903E+02  0.17484103734E+03  0.18247130018E+03  0.00000000000E+00 0. -1.
</event>
<event>
 7    1  0.2899775E-009  0.1383338E+03  0.7561462E-02  0.1215589E+00
         -2   -1    0    0    0  501 -0.00000000000E+00  0.00000000000E+00  0.27887710921E+02  0.27887710921E+02  0.00000000000E+00 0.  1.
          2   -1    0    0  501    0  0.00000000000E+00 -0.00000000000E+00 -0.99703638723E+03  0.99703638723E+03  0.00000000000E+00 0. -1.
         25    2    1    2    0    0  0.62293330009E+02  0.72176916537E+02 -0.26247147026E+03  0.30598809964E+03  0.12508988038E+03 0.  0.
          5    1    3    3  502    0  0.59078480221E+02 -0.13578124120E+02 -0.16617062061E+03  0.17693156822E+03  0.41800000000E+01 0.  1.
         -5    1    3    3    0  502  0.32148497879E+01  0.85755040657E+02 -0.96300849648E+02  0.12905653141E+03  0.41800000000E+01 0.  1.
        -11    1    1    2    0    0 -0.31062629407E+02 -0.89175541714E+02 -0.56667105513E+03  0.57448520338E+03  0.00000000000E+00 0.  1.
         11    1    1    2    0    0 -0.31230700602E+02  0.16998625177E+02 -0.14000615092E+03  0.14445079513E+03  0.00000000000E+00 0. -1.
</event>
<event>
 7    1  0.2899775E-009  0.9477010E+02  0.7561462E-02  0.1291695E+00
         -2   -1    0    0    0  501 -0.00000000000E+00  0.00000000000E+00  0.24840909520E+02  0.24840909520E+02  0.00000000000E+00 0.  1.
          2   -1    0    0  501    0  0.00000000000E+00 -0.00000000000E+00 -0.83423422287E+03  0.83423422287E+03  0.00000000000E+00 0. -1.
         25    2    1    2    0    0 -0.44127831788E+02 -0.53547945022E+02 -0.63772816248E+03  0.65357412089E+03  0.12508906557E+03 0.  0.
          5    1    3    3  502    0 -0.47317205396E+02 -0.17613311833E+02 -0.59643431219E+03  0.59858208112E+03  0.41800000000E+01 0.  1.
         -5    1    3    3    0  502  0.31893736085E+01 -0.35934633188E+02 -0.41293850286E+02  0.54992039768E+02  0.41800000000E+01 0.  1.
        -11    1    1    2    0    0  0.66473607052E+01  0.63447965550E+02 -0.61092109373E+02  0.88329369772E+02  0.00000000000E+00 0.  1.
         11    1    1    2    0    0  0.37480471082E+02 -0.99000205279E+01 -0.11057304150E+03  0.11717164173E+03  0.00000000000E+00 0. -1.
</event>
<event>
 7    1  0.2899775E-009  0.1231339E+03  0.7561462E-02  0.1238015E+00
         -2   -1    0    0    0  501 -0.00000000000E+00  0.00000000000E+00  0.79216032144E+02  0.79216032144E+02  0.00000000000E+00 0.  1.
          2   -1    0    0  501    0  0.00000000000E+00 -0.00000000000E+00 -0.25856068693E+03  0.25856068693E+03  0.00000000000E+00 0. -1.
         25    2    1    2    0    0  0.22539227816E+02 -0.55236873983E+02 -0.17677881962E+03  0.22462527023E+03  0.12508649777E+03 0.  0.
          5    1    3    3  502    0 -0.42059698421E+02  0.95038376310E+01 -0.34251303396E+02  0.55226491336E+02  0.41800000000E+01 0. -1.
         -5    1    3    3    0  502  0.64598926236E+02 -0.64740711614E+02 -0.14252751622E+03  0.16939877890E+03  0.41800000000E+01 0. -1.
        -11    1    1    2    0    0 -0.41508759756E+02 -0.10630665482E+02  0.86008389686E+01  0.43703119065E+02  0.00000000000E+00 0.  1.
         11    1    1    2    0    0  0.18969531940E+02  0.65867539465E+02 -0.11166674133E+02  0.69448329774E+02  0.00000000000E+00 0. -1.
</event>
<event>
 7    1  0.2899775E-009  0.1049232E+03  0.7561462E-02  0.1270271E+00
         -1   -1    0    0    0  501 -0.00000000000E+00  0.00000000000E+00  0.40070714098E+02  0.40070714098E+02  0.00000000000E+00 0.  1.
          1   -1    0    0  501    0  0.00000000000E+00 -0.00000000000E+00 -0.36790825575E+03  0.36790825575E+03  0.00000000000E+00 0. -1.
         25    2    1    2    0    0 -0.19482265402E+02 -0.50166444583E+01 -0.28198166554E+03  0.30913877929E+03  0.12509356408E+03 0.  0.
          5    1    3    3  502    0 -0.69024098953E+02  0.11199220657E+02 -0.19984599856E+03  0.21176790200E+03  0.41800000000E+01 0.  1.
         -5    1    3    3    0  502  0.49541833551E+02 -0.16215865115E+02 -0.82135666985E+02  0.97370877289E+02  0.41800000000E+01 0.  1.
        -11    1    1    2    0    0  0.44777116086E+02  0.28423094644E+02 -0.26001736604E+02  0.59067357657E+02  0.00000000000E+00 0. -1.
         11    1    1    2    0    0 -0.25294850684E+02 -0.23406450186E+02 -0.19854139510E+02  0.39772832903E+02  0.00000000000E+00 0.  1.
</event>
<event>
 7    1  0.2899775E-009  0.1659214E+03  0.7561462E-02  0.1182169E+00
          1   -1    0    0  501    0  0.00000000000E+00  0.00000000000E+00  0.11783240025E+03  0.11783240025E+03  0.00000000000E+00 0. -1.
         -1   -1    0    0    0  501 -0.00000000000E+00 -0.00000000000E+00 -0.25085263441E+03  0.25085263441E+03  0.00000000000E+00 0.  1.
         25    2    1    2    0    0 -0.12410207267E+03 -0.34619800707E+02 -0.94032863462E+02  0.20270479483E+03  0.12508876606E+03 0.  0.
          5    1    3    3  502    0 -0.12508812175E+03  0.11329514336E+02 -0.40519881536E+02  0.13204063503E+03  0.41800000000E+01 0. -1.
         -5    1    3    3    0  502  0.98604908432E+00 -0.45949315042E+02 -0.53512981927E+02  0.70664159801E+02  0.41800000000E+01 0. -1.
        -11    1    1    2    0    0  0.13630640514E+03  0.15287163200E+02 -0.40648398493E+02  0.14305742113E+03  0.00000000000E+00 0.  1.
         11    1    1    2    0    0 -0.12204332471E+02  0.19332637507E+02  0.16610278045E+01  0.22922818705E+02  0.00000000000E+00 0. -1.
</event>
<event>
 7    1  0.4086862E-009  0.1576832E+03  0.7561462E-02  0.1191337E+00
          2   -1    0    0  501    0  0.00000000000E+00  0.00000000000E+00  0.67341561185E+03  0.67341561185E+03  0.00000000000E+00 0. -1.
         -2   -1    0    0    0  501 -0.00000000000E+00 -0.00000000000E+00 -0.53647378229E+02  0.53647378229E+02  0.00000000000E+00 0.  1.
         25    2    1    2    0    0 -0.12551280372E+03  0.36860609857E+02  0.16436564471E+03  0.24448985081E+03  0.12508818302E+03 0.  0.
          5    1    3    3  502    0 -0.25257409161E+02 -0.44047569711E+02  0.59429435025E+02  0.78278063736E+02  0.41800000000E+01 0. -1.
         -5    1    3    3    0  502 -0.10025539456E+03  0.80908179567E+02  0.10493620968E+03  0.16621178707E+03  0.41800000000E+01 0. -1.
        -11    1    1    2    0    0  0.39297483489E+02 -0.29215262174E+02  0.58247497254E+02  0.76095957112E+02  0.00000000000E+00 0.  1.
         11    1    1    2    0    0  0.86215320232E+02 -0.76453476832E+01  0.39715509166E+03  0.40647718216E+03  0.00000000000E+00 0. -1.
</event>
<event>
 7    1  0.2899775E-009  0.3594540E+03  0.7561462E-02  0.1058800E+00
          2   -1    0    0  501    0  0.00000000000E+00  0.00000000000E+00  0.20791869733E+04  0.20791869733E+04  0.00000000000E+00 0.  1.
         -2   -1    0    0    0  501 -0.00000000000E+00 -0.00000000000E+00 -0.75736734922E+02  0.75736734922E+02  0.00000000000E+00 0. -1.
         25    2    1    2    0    0  0.26032659521E+02 -0.34767047062E+03  0.14320325133E+04  0.14791610016E+04  0.12509074410E+03 0.  0.
          5    1    3    3  502    0  0.31625934520E+02 -0.35627204477E+03  0.14075328187E+04  0.14522727285E+04  0.41800000000E+01 0.  1.
         -5    1    3    3    0  502 -0.55932749986E+01  0.86015741513E+01  0.24499694531E+02  0.26888273191E+02  0.41800000000E+01 0.  1.
        -11    1    1    2    0    0 -0.31742994653E+02  0.33082669408E+03  0.56733817923E+03  0.65751542099E+03  0.00000000000E+00 0.  1.
         11    1    1    2    0    0  0.57103351319E+01  0.16843776538E+02  0.40795458500E+01  0.18247285544E+02  0.00000000000E+00 0. -1.
</event>
<event>
 7    1  0.2899775E-009  0.2146491E+03  0.7561462E-02  0.1137936E+00
          2   -1    0    0  501    0  0.00000000000E+00  0.00000000000E+00  0.94944485765E+03  0.94944485765E+03  0.00000000000E+00 0. -1.
         -2   -1    0    0    0  501 -0.00000000000E+00 -0.00000000000E+00 -0.59967567332E+02  0.59967567332E+02  0.00000000000E+00 0.  1.
         25    2    1    2    0    0 -0.15189804250E+03  0.10701549984E+03  0.67435443327E+03  0.71058140194E+03  0.12508674825E+03 0.  0.
          5    1    3    3  502    0 -0.12589885138E+03  0.15649256199E+02  0.33817119074E+03  0.36120997584E+03  0.41800000000E+01 0.  1.
         -5    1    3    3    0  502 -0.25999191116E+02  0.91366243646E+02  0.33618324254E+03  0.34937142611E+03  0.41800000000E+01 0.  1.
        -11    1    1    2    0    0  0.16306058385E+03 -0.10872378230E+03  0.20578412310E+03  0.28417726891E+03  0.00000000000E+00 0. -1.
         11    1    1    2    0    0 -0.11162541356E+02  0.17082824573E+01  0.93387339494E+01  0.14653754135E+02  0.00000000000E+00 0.  1.
</event>
<event>
 7    1  0.2899775E-009  0.1378361E+03  0.7561462E-02  0.1216271E+00
          1   -1    0    0  501    0  0.00000000000E+00  0.00000000000E+00  0.18653593793E+03  0.18653593793E+03  0.00000000000E+00 0.  1.
         -1   -1    0    0    0  501 -0.00000000000E+00 -0.00000000000E+00 -0.13390651451E+03  0.13390651451E+03  0.00000000000E+00 0. -1.
         25    2    1    2    0    0 -0.31189301337E+02  0.10583635210E+03  0.51768345054E+02  0.17464206065E+03  0.12508309979E+03 0.  0.
          5    1    3    3  502    0 -0.46704846489E+02 -0.90611728813E+01  0.39464341316E+00  0.47760608067E+02  0.41800000000E+01 0.  1.
         -5    1    3    3    0  502  0.15515545152E+02  0.11489752499E+03  0.51373701640E+02  0.12688145258E+03  0.41800000000E+01 0.  1.
        -11    1    1    2    0    0  0.31273581258E+01 -0.42597144193E+02 -0.45586530016E+02  0.62469422769E+02  0.00000000000E+00 0. -1.
         11    1    1    2    0    0  0.28061943211E+02 -0.63239207911E+02  0.46447608377E+02  0.83330969021E+02  0.00000000000E+00 0.  1.
</event>
<event>
 7    1  0.2899775E-009  0.1234263E+03  0.7561462E-02  0.1237549E+00
         -2   -1    0    0    0  501 -0.00000000000E+00  0.00000000000E+00  0.22832420885E+02  0.22832420885E+02  0.00000000000E+00 0.  1.
          2   -1    0    0  501    0  0.00000000000E+00 -0.00000000000E+00 -0.70457725047E+03  0.70457725047E+03  0.00000000000E+00 0. -1.
         25    2    1    2    0    0  0.46432402599E+02  0.46095361881E+02 -0.44466279182E+03  0.46653005250E+03  0.12507813983E+03 0.  0.
          5    1    3    3  502    0  0.33585652722E+02  0.89420443581E+02 -0.31183717297E+03  0.32616545900E+03  0.41800000000E+01 0. -1.
         -5    1    3    3    0  502  0.12846749878E+02 -0.43325081699E+02 -0.13282561885E+03  0.14036459350E+03  0.41800000000E+01 0. -1.
        -11    1    1    2    0    0 -0.11795501247E+02 -0.65230146646E+02 -0.11735077399E+03  0.13477874475E+03  0.00000000000E+00 0.  1.
         11    1    1    2    0    0 -0.34636901352E+02  0.19134784765E+02 -0.11973126378E+03  0.12610087411E+03  0.00000000000E+00 0. -1.
</event>
<event>
 7    1  0.2899775E-009  0.1726182E+03  0.7561462E-02  0.1175145E+00
         -1   -1    0    0    0  501 -0.00000000000E+00  0.00000000000E+00  0.14294502714E+03  0.14294502714E+03  0.00000000000E+00 0. -1.
          1   -1    0    0  501    0  0.00000000000E+00 -0.00000000000E+00 -0.27183919081E+03  0.27183919081E+03  0.00000000000E+00 0.  1.
         25    2    1    2    0    0 -0.92489301629E+02 -0.10390209026E+03 -0.15866775626E+03  0.24530867836E+03  0.12510385896E+03 0.  0.
          5    1    3    3  502    0 -0.54070316431E+02  0.19593232954E+02 -0.50648167689E+02  0.76747659162E+02  0.41800000000E+01 0. -1.
         -5    1    3    3    0  502 -0.38418985198E+02 -0.12349532321E+03 -0.10801958857E+03  0.16856101920E+03  0.41800000000E+01 0. -1.
        -11    1    1    2    0    0  0.87388722402E+02  0.43610501562E+02  0.44309028274E+02  0.10724716610E+03  0.00000000000E+00 0. -1.
         11    1    1    2    0    0  0.51005792261E+01  0.60291588696E+02 -0.14535435688E+02  0.62228373485E+02  0.00000000000E+00 0.  1.
</event>
<event>
 7    1  0.2899775E-009  0.2366997E+03  0.7561462E-02  0.1122011E+00
          2   -1    0    0  501    0  0.00000000000E+00  0.00000000000E+00  0.58570132282E+03  0.58570132282E+03  0.00000000000E+00 0.  1.
         -2   -1    0    0    0  501 -0.00000000000E+00 -0.00000000000E+00 -0.96736667905E+02  0.96736667905E+02  0.00000000000E+00 0. -1.
         25    2    1    2    0    0 -0.19099617546E+03  0.88071766490E+02  0.26375212929E+03  0.35979150065E+03  0.12509421706E+03 0.  0.
          5    1    3    3  502    0 -0.22132054361E+02 -0.29689616746E+02  0.26989253704E+02  0.46012969783E+02  0.41800000000E+01 0. -1.
         -5    1    3    3    0  502 -0.16886412109E+03  0.11776138324E+03  0.23676287559E+03  0.31377853086E+03  0.41800000000E+01 0. -1.
        -11    1    1    2    0    0  0.23684633448E+02 -0.54707048912E+02  0.46781929899E+02  0.75778440385E+02  0.00000000000E+00 0.  1.
         11    1    1    2    0    0  0.16731154201E+03 -0.33364717578E+02  0.17843059572E+03  0.24686804969E+03  0.00000000000E+00 0. -1.
</event>
<event>
 7    1  0.2899775E-009  0.1084440E+03  0.7561462E-02  0.1263479E+00
          4   -1    0    0  501    0  0.00000000000E+00  0.00000000000E+00  0.16403112452E+03  0.16403112452E+03  0.00000000000E+00 0. -1.
         -4   -1    0    0    0  501 -0.00000000000E+00 -0.00000000000E+00 -0.73902053850E+02  0.73902053850E+02  0.00000000000E+00 0.  1.
         25    2    1    2    0    0 -0.14096756639E+02  0.66585375912E+01  0.38118613513E+02  0.13169654739E+03  0.12509155538E+03 0.  0.
          5    1    3    3  502    0 -0.66890936915E+02 -0.15258468211E+02  0.20068201779E+02  0.71606029189E+02  0.41800000000E+01 0. -1.
         -5    1    3    3    0  502  0.52794180276E+02  0.21917005802E+02  0.18050411734E+02  0.60090518205E+02  0.41800000000E+01 0. -1.
        -11    1    1    2    0    0  0.32224697282E+02  0.33679134211E+02  0.16250976182E+02  0.49364049905E+02  0.00000000000E+00 0.  1.
         11    1    1    2    0    0 -0.18127940643E+02 -0.40337671802E+02  0.35759480977E+02  0.56872581075E+02  0.00000000000E+00 0. -1.
</event>
<event>
 7    1  0.2899775E-009  0.6824111E+02  0.7561462E-02  0.1366178E+00
         -3   -1    0    0    0  501 -0.00000000000E+00  0.00000000000E+00  0.30773947905E+02  0.30773947905E+02  0.00000000000E+00 0.  1.
          3   -1    0    0  501    0  0.00000000000E+00 -0.00000000000E+00 -0.41274785053E+03  0.41274785053E+03  0.00000000000E+00 0. -1.
         25    2    1    2    0    0  0.30283264570E+02 -0.39620648992E+01 -0.17899750553E+03  0.22049988642E+03  0.12508924355E+03 0.  0.
          5    1    3    3  502    0 -0.50840940982E+01  0.14718608184E+02  0.15214163111E+02  0.22168188894E+02  0.41800000000E+01 0.  1.
         -5    1    3    3    0  502  0.35367358668E+02 -0.18680673083E+02 -0.19421166865E+03  0.19833169753E+03  0.41800000000E+01 0.  1.
        -11    1    1    2    0    0  0.15446576289E+02  0.25329530048E+02 -0.13575738717E+03  0.13896132549E+03  0.00000000000E+00 0. -1.
         11    1    1    2    0    0 -0.45729840859E+02 -0.21367465149E+02 -0.67219009926E+02  0.84060586527E+02  0.00000000000E+00 0.  1.
</event>
<event>
 7    1  0.2899775E-009  0.9247402E+02  0.7561462E-02  0.1296969E+00
          2   -1    0    0  501    0  0.00000000000E+00  0.00000000000E+00  0.16736767519E+03  0.16736767519E+03  0.00000000000E+00 0. -1.
         -2   -1    0    0    0  501 -0.00000000000E+00 -0.00000000000E+00 -0.86526979483E+02  0.86526979483E+02  0.00000000000E+00 0.  1.
         25    2    1    2    0    0  0.15260093673E+02  0.94779276166E+01  0.99029400760E+02  0.16056517006E+03  0.12510655478E+03 0.  0.
          5    1    3    3  502    0  0.44643777064E+02  0.36298436972E+02  0.44348340929E+01  0.57860033793E+02  0.41800000000E+01 0. -1.
         -5    1    3    3    0  502 -0.29383683392E+02 -0.26820509355E+02  0.94594566668E+02  0.10270513626E+03  0.41800000000E+01 0. -1.
        -11    1    1    2    0    0 -0.35694371329E+02  0.27464918126E+02 -0.23463881244E+02  0.50783497273E+02  0.00000000000E+00 0.  1.
         11    1    1    2    0    0  0.20434277657E+02 -0.36942845743E+02  0.52751761868E+01  0.42545987340E+02  0.00000000000E+00 0. -1.
</event>
<event>
 7    1  0.2899775E-009  0.1940240E+03  0.7561462E-02  0.1154881E+00
         -1   -1    0    0    0  501 -0.00000000000E+00  0.00000000000E+00  0.18433473545E+03  0.18433473545E+03  0.00000000000E+00 0.  1.
          1   -1    0    0  501    0  0.00000000000E+00 -0.00000000000E+00 -0.21854732183E+03  0.21854732183E+03  0.00000000000E+00 0. -1.
         25    2    1    2    0    0  0.55408842289E+02 -0.15839287646E+03 -0.18751407713E+02  0.21013704340E+03  0.12509004196E+03 0.  0.
          5    1    3    3  502    0  0.19335009483E+01 -0.14077892114E+03 -0.45012407803E+02  0.14787167518E+03  0.41800000000E+01 0. -1.
         -5    1    3    3    0  502  0.53475341341E+02 -0.17613955319E+02  0.26261000090E+02  0.62265368218E+02  0.41800000000E+01 0. -1.
        -11    1    1    2    0    0  0.21239320276E+02  0.72829053039E+02 -0.17489362818E+02  0.77852793810E+02  0.00000000000E+00 0.  1.
         11    1    1    2    0    0 -0.76648162565E+02  0.85563823422E+02  0.20281841513E+01  0.11489222008E+03  0.00000000000E+00 0. -1.
</event>
<event>
 7    1  0.2899775E-009  0.1029349E+03  0.7561462E-02  0.1274243E+00
          1   -1    0    0  501    0  0.00000000000E+00  0.00000000000E+00  0.32834416558E+03  0.32834416558E+03  0.00000000000E+00 0. -1.
         -1   -1    0    0    0  501 -0.00000000000E+00 -0.00000000000E+00 -0.37966367434E+02  0.37966367434E+02  0.00000000000E+00 0.  1.
         25    2    1    2    0    0  0.14538263793E+02 -0.12514110809E+02  0.13512018511E+03  0.18511988890E+03  0.12507575607E+03 0.  0.
          5    1    3    3  502    0 -0.54332221157E+02  0.20617853588E+01  0.73156063163E+02  0.91244304985E+02  0.41800000000E+01 0. -1.
         -5    1    3    3    0  502  0.68870484949E+02 -0.14575896167E+02  0.61964121949E+02  0.93875583914E+02  0.41800000000E+01 0. -1.
        -11    1    1    2    0    0 -0.38521824550E+02 -0.17573529596E+02  0.12579353290E+03  0.13272819153E+03  0.00000000000E+00 0. -1.
         11    1    1    2    0    0  0.23983560758E+02  0.30087640405E+02  0.29464080132E+02  0.48462452577E+02  0.00000000000E+00 0.  1.
</event>
<event>
 7    1  0.2899775E-009  0.1165438E+03  0.7561462E-02  0.1248910E+00
          1   -1    0    0  501    0  0.00000000000E+00  0.00000000000E+00  0.39949767890E+03  0.39949767890E+03  0.00000000000E+00 0. -1.
         -1   -1    0    0    0  501 -0.00000000000E+00 -0.00000000000E+00 -0.44077021173E+02  0.44077021173E+02  0.00000000000E+00 0.  1.
         25    2    1    2    0    0 -0.37421644569E+01  0.75737843998E+02  0.17299113284E+03  0.22653198824E+03  0.12506232385E+03 0.  0.
          5    1    3    3  502    0 -0.48863744951E+02  0.56420809524E+02  0.40158640967E+02  0.84859661573E+02  0.41800000000E+01 0.  1.
         -5    1    3    3    0  502  0.45121580494E+02  0.19317034474E+02  0.13283249187E+03  0.14167232667E+03  0.41800000000E+01 0.  1.
        -11    1    1    2    0    0 -0.36074829643E+02 -0.22228790275E+02  0.34040828341E+02  0.54353384853E+02  0.00000000000E+00 0.  1.
         11    1    1    2    0    0  0.39816994100E+02 -0.53509053723E+02  0.14838869655E+03  0.16268932698E+03  0.00000000000E+00 0. -1.
</event>
<event>
 7    1  0.2899775E-009  0.9888388E+02  0.7561462E-02  0.1282661E+00
          2   -1    0    0  501    0  0.00000000000E+00  0.00000000000E+00  0.14841897961E+03  0.14841897961E+03  0.00000000000E+00 0. -1.
         -2   -1    0    0    0  501 -0.00000000000E+00 -0.00000000000E+00 -0.87137045808E+02  0.87137045808E+02  0.00000000000E+00 0.  1.
         25    2    1    2    0    0 -0.14072228155E+02 -0.31253989511E+02  0.49661573773E+02  0.13888440116E+03  0.12509102890E+03 0.  0.
          5    1    3    3  502    0  0.96073071392E+01 -0.73645900290E+02  0.80898810443E+01  0.74826048641E+02  0.41800000000E+01 0.  1.
         -5    1    3    3    0  502 -0.23679535294E+02  0.42391910778E+02  0.41571692729E+02  0.64058352520E+02  0.41800000000E+01 0.  1.
        -11    1    1    2    0    0 -0.24038946246E+02  0.27226621668E+02  0.36090348005E+02  0.51202276152E+02  0.00000000000E+00 0. -1.
         11    1    1    2    0    0  0.38111174401E+02  0.40273678434E+01 -0.24469987973E+02  0.45469348108E+02  0.00000000000E+00 0.  1.
</event>
<event>
 7    1  0.2899775E-009  0.1273479E+03  0.7561462E-02  0.1231445E+00
          2   -1    0    0  501    0  0.00000000000E+00  0.00000000000E+00  0.26295810643E+03  0.26295810643E+03  0.00000000000E+00 0. -1.
         -2   -1    0    0    0  501 -0.00000000000E+00 -0.00000000000E+00 -0.13486552925E+03  0.13486552925E+03  0.00000000000E+00 0.  1.
         25    2    1    2    0    0 -0.11398354887E+03 -0.88049062535E+01  0.17729688618E+03  0.24525827683E+03  0.12509061003E+03 0.  0.
          5    1    3    3  502    0 -0.62930376244E+02  0.34990155602E+02  0.16026364625E+03  0.17574541801E+03  0.41800000000E+01 0.  1.
         -5    1    3    3    0  502 -0.51053172628E+02 -0.43795061856E+02  0.17033239929E+02  0.69512858816E+02  0.41800000000E+01 0.  1.
        -11    1    1    2    0    0  0.51522170768E+02  0.10974700624E+02 -0.69178626811E+02  0.86952058871E+02  0.00000000000E+00 0.  1.
         11    1    1    2    0    0  0.62461378104E+02 -0.21697943701E+01  0.19974317820E+02  0.65613299983E+02  0.00000000000E+00 0. -1.
</event>
<event>
 7    1  0.2899775E-009  0.2605739E+03  0.7561462E-02  0.1106799E+00
          2   -1    0    0  501    0  0.00000000000E+00  0.00000000000E+00  0.28993530406E+03  0.28993530406E+03  0.00000000000E+00 0. -1.
         -2   -1    0    0    0  501 -0.00000000000E+00 -0.00000000000E+00 -0.25017982973E+03  0.25017982973E+03  0.00000000000E+00 0.  1.
         25    2    1    2    0    0  0.16712304374E+03  0.18018710077E+03 -0.11786654386E+01  0.27576412217E+03  0.12508780434E+03 0.  0.
          5    1    3    3  502    0  0.75594849843E+02  0.19136644714E+02  0.37267458472E+02  0.86528193988E+02  0.41800000000E+01 0. -1.
         -5    1    3    3    0  502  0.91528193894E+02  0.16105045605E+03 -0.38446123911E+02  0.18923592819E+03  0.41800000000E+01 0. -1.
        -11    1    1    2    0    0 -0.28559013820E+02  0.22810423301E+01 -0.86554482838E+01  0.29928869165E+02  0.00000000000E+00 0.  1.
         11    1    1    2    0    0 -0.13856402992E+03 -0.18246814310E+03  0.49589588054E+02  0.23442214246E+03  0.00000000000E+00 0. -1.
</event>
<event>
 7    1  0.2899775E-009  0.8399603E+02  0.7561462E-02  0.1318079E+00
          1   -1    0    0  501    0  0.00000000000E+00  0.00000000000E+00  0.66553359371E+02  0.66553359371E+02  0.00000000000E+00 0. -1.
         -1   -1    0    0    0  501 -0.00000000000E+00 -0.00000000000E+00 -0.31400595005E+03  0.31400595005E+03  0.00000000000E+00 0.  1.
         25    2    1    2    0    0 -0.56657840213E+02  0.95301021667E+01 -0.35136168930E+02  0.14209318513E+03  0.12511989924E+03 0.  0.
          5    1    3    3  502    0 -0.65146085324E+02  0.13645299887E+02  0.32139259058E+02  0.74031148950E+02  0.41800000000E+01 0. -1.
         -5    1    3    3    0  502  0.84882451111E+01 -0.41151977206E+01 -0.67275427988E+02  0.68062036175E+02  0.41800000000E+01 0. -1.
        -11    1    1    2    0    0  0.36280901688E+02 -0.40206441345E+02 -0.18458435732E+03  0.19236487912E+03  0.00000000000E+00 0.  1.
         11    1    1    2    0    0  0.20376938525E+02  0.30676339178E+02 -0.27732064434E+02  0.46101245176E+02  0.00000000000E+00 0. -1.
</event>
<event>
 7    1  0.2899775E-009  0.1067854E+03  0.7561462E-02  0.1266641E+00
          1   -1    0    0  501    0  0.00000000000E+00  0.00000000000E+00  0.21688905978E+03  0.21688905978E+03  0.00000000000E+00 0. -1.
         -1   -1    0    0    0  501 -0.00000000000E+00 -0.00000000000E+00 -0.95900321958E+02  0.95900321958E+02  0.00000000000E+00 0.  1.
         25    2    1    2    0    0  0.29599090605E+02  0.66259566669E+01 -0.31218329207E+02  0.13243652077E+03  0.12507932878E+03 0.  0.
          5    1    3    3  502    0 -0.48762525162E+02 -0.40177874811E+01 -0.17087735400E+02  0.51994130222E+02  0.41800000000E+01 0.  1.
         -5    1    3    3    0  502  0.78361615767E+02  0.10643744148E+02 -0.14130593808E+02  0.80442390544E+02  0.41800000000E+01 0.  1.
        -11    1    1    2    0    0 -0.31595226546E+02  0.32947943076E+02  0.12279546449E+03  0.13100592121E+03  0.00000000000E+00 0. -1.
         11    1    1    2    0    0  0.19961359413E+01 -0.39573899743E+02  0.29411602537E+02  0.49346939757E+02  0.00000000000E+00 0.  1.
</event>
<event>
 7    1  0.2899775E-009  0.1122469E+03  0.7561462E-02  0.1256465E+00
          3   -1    0    0  501    0  0.00000000000E+00  0.00000000000E+00  0.26225569410E+03  0.26225569410E+03  0.00000000000E+00 0. -1.
         -3   -1    0    0    0  501 -0.00000000000E+00 -0.00000000000E+00 -0.56400423668E+02  0.56400423668E+02  0.00000000000E+00 0.  1.
         25    2    1    2    0    0  0.40676191765E+02 -0.43615126522E+01  0.65236428330E+02  0.14687969893E+03  0.12507709226E+03 0.  0.
          5    1    3    3  502    0 -0.23295276296E+02 -0.46816185117E+02  0.39946556947E+02  0.65936521735E+02  0.41800000000E+01 0.  1.
         -5    1    3    3    0  502  0.63971468061E+02  0.42454672465E+02  0.25289871383E+02  0.80943177196E+02  0.41800000000E+01 0.  1.
        -11    1    1    2    0    0 -0.66903181229E+02  0.11680435677E+02  0.11896903227E+03  0.13698941154E+03  0.00000000000E+00 0. -1.
         11    1    1    2    0    0  0.26226989464E+02 -0.73189230246E+01  0.21649809834E+02  0.34787007294E+02  0.00000000000E+00 0.  1.
</event>
<event>
 7    1  0.2899775E-009  0.1558077E+03  0.7561462E-02  0.1193513E+00
         -1   -1    0    0    0  501 -0.00000000000E+00  0.00000000000E+00  0.19415231255E+03  0.19415231255E+03  0.00000000000E+00 0.  1.
          1   -1    0    0  501    0  0.00000000000E+00 -0.00000000000E+00 -0.17485037219E+03  0.17485037219E+03  0.00000000000E+00 0. -1.
         25    2    1    2    0    0  0.22488913239E+02 -0.12005708644E+03 -0.74372342229E+02  0.18999413005E+03  0.12508824462E+03 0.  0.
          5    1    3    3  502    0  0.59526386385E+02 -0.10379895129E+03 -0.18897125218E+02  0.12121133076E+03  0.41800000000E+01 0. -1.
         -5    1    3    3    0  502 -0.37037473146E+02 -0.16258135157E+02 -0.55475217011E+02  0.68782799291E+02  0.41800000000E+01 0. -1.
        -11    1    1    2    0    0  0.28691010284E+02  0.83596471107E+02  0.66197003948E+02  0.11042457781E+03  0.00000000000E+00 0. -1.
         11    1    1    2    0    0 -0.51179923524E+02  0.36460615336E+02  0.27477278642E+02  0.68583976876E+02  0.00000000000E+00 0.  1.
</event>
<event>
 7    1  0.2899775E-009  0.1685675E+03  0.7561462E-02  0.1179350E+00
         -2   -1    0    0    0  501 -0.00000000000E+00  0.00000000000E+00  0.29674830949E+02  0.29674830949E+02  0.00000000000E+00 0. -1.
          2   -1    0    0  501    0  0.00000000000E+00 -0.00000000000E+00 -0.11834603577E+04  0.11834603577E+04  0.00000000000E+00 0.  1.
         25    2    1    2    0    0  0.11678174233E+03  0.88223231411E+02 -0.73782996158E+03  0.76253605625E+03  0.12508745327E+03 0.  0.
          5    1    3    3  502    0 -0.99198876909E+01 -0.10102290598E+02 -0.11539847458E+02  0.18737687330E+02  0.41800000000E+01 0. -1.
         -5    1    3    3    0  502  0.12670163002E+03  0.98325522009E+02 -0.72629011413E+03  0.74379836892E+03  0.41800000000E+01 0. -1.
        -11    1    1    2    0    0 -0.32622462905E+02  0.85163811279E+01 -0.34801219246E+02  0.48454914039E+02  0.00000000000E+00 0. -1.
         11    1    1    2    0    0 -0.84159279421E+02 -0.96739612539E+02 -0.38115434589E+03  0.40214421833E+03  0.00000000000E+00 0.  1.
</event>
<event>
 7    1  0.2899775E-009  0.1419200E+03  0.7561462E-02  0.1210769E+00
          2   -1    0    0  501    0  0.00000000000E+00  0.00000000000E+00  0.21475623381E+03  0.21475623381E+03  0.00000000000E+00 0. -1.
         -2   -1    0    0    0  501 -0.00000000000E+00 -0.00000000000E+00 -0.13883176648E+03  0.13883176648E+03  0.00000000000E+00 0.  1.
         25    2    1    2    0    0  0.78992978639E+02  0.75075679147E+02 -0.38725645605E+02  0.17036465414E+03  0.12509273152E+03 0.  0.
          5    1    3    3  502    0 -0.69308849102E+01  0.67011146587E+02 -0.48921413774E+02  0.83362509908E+02  0.41800000000E+01 0.  1.
         -5    1    3    3    0  502  0.85923863549E+02  0.80645325600E+01  0.10195768169E+02  0.87002144233E+02  0.41800000000E+01 0.  1.
        -11    1    1    2    0    0  0.99803772272E+01  0.41462324654E+01 -0.70629066073E+01  0.12910608932E+02  0.00000000000E+00 0.  1.
         11    1    1    2    0    0 -0.88973355866E+02 -0.79221911612E+02  0.12171301954E+03  0.17031273722E+03  0.00000000000E+00 0. -1.
</event>
<event>
 7    1  0.2899775E-009  0.1208300E+03  0.7561462E-02  0.1241734E+00
          2   -1    0    0  501    0  0.00000000000E+00  0.00000000000E+00  0.12900427377E+04  0.12900427377E+04  0.00000000000E+00 0. -1.
         -2   -1    0    0    0  501 -0.00000000000E+00 -0.00000000000E+00 -0.15912619301E+02  0.15912619301E+02  0.00000000000E+00 0.  1.
         25    2    1    2    0    0 -0.50859423145E+02  0.21537309126E+02  0.10042249742E+04  0.10134921054E+04  0.12509161610E+03 0.  0.
          5    1    3    3  502    0 -0.79253616358E+02 -0.23265082786E+02  0.55526270129E+03  0.56138804728E+03  0.41800000000E+01 0. -1.
         -5    1    3    3    0  502  0.28394193213E+02  0.44802391912E+02  0.44896227289E+03  0.45210405816E+03  0.41800000000E+01 0. -1.
        -11    1    1    2    0    0  0.73868096124E+02  0.52898860586E+00  0.13548554669E+03  0.15431496627E+03  0.00000000000E+00 0.  1.
         11    1    1    2    0    0 -0.23008672979E+02 -0.22066297732E+02  0.13441959753E+03  0.13814828529E+03  0.00000000000E+00 0. -1.
</event>
<event>
 7    1  0.2899775E-009  0.1065356E+03  0.7561462E-02  0.1267123E+00
          1   -1    0    0  501    0  0.00000000000E+00  0.00000000000E+00  0.51483533061E+03  0.51483533061E+03  0.00000000000E+00 0. -1.
         -1   -1    0    0    0  501 -0.00000000000E+00 -0.00000000000E+00 -0.28151815381E+02  0.28151815381E+02  0.00000000000E+00 0.  1.
         25    2    1    2    0    0  0.29765613310E+02  0.46475216547E+01  0.36903013675E+03  0.39081676244E+03  0.12508760441E+03 0.  0.
          5    1    3    3  502    0  0.26795816852E+02 -0.58909662797E+02  0.18072868614E+03  0.19201222505E+03  0.41800000000E+01 0.  1.
         -5    1    3    3    0  502  0.29697964581E+01  0.63557184452E+02  0.18830145061E+03  0.19880453739E+03  0.41800000000E+01 0.  1.
        -11    1    1    2    0    0 -0.56933303738E+02 -0.24975774533E+00  0.10958249458E+03  0.12349002621E+03  0.00000000000E+00 0. -1.
         11    1    1    2    0    0  0.27167690429E+02 -0.43977639094E+01  0.80708838920E+01  0.28680357345E+02  0.00000000000E+00 0.  1.
</event>
<event>
 7    1  0.2899775E-009  0.1195868E+03  0.7561462E-02  0.1243780E+00
         -1   -1    0    0    0  501 -0.00000000000E+00  0.00000000000E+00  0.15305041738E+02  0.15305041738E+02  0.00000000000E+00 0.  1.
          1   -1    0    0  501    0  0.00000000000E+00 -0.00000000000E+00 -0.11271692600E+04  0.11271692600E+04  0.00000000000E+00 0. -1.
         25    2    1    2    0    0  0.24383687314E+02  0.53810317638E+02 -0.72375574552E+03  0.73685738829E+03  0.12508523901E+03 0.  0.
          5    1    3    3  502    0  0.51854847324E+02  0.78392765224E+02 -0.60977589188E+03  0.61699145986E+03  0.41800000000E+01 0. -1.
         -5    1    3    3    0  502 -0.27471160011E+02 -0.24582447586E+02 -0.11397985364E+03  0.11986592843E+03  0.41800000000E+01 0. -1.
        -11    1    1    2    0    0 -0.58587705432E+02 -0.40799565815E+02 -0.16881690039E+03  0.18329285217E+03  0.00000000000E+00 0. -1.
         11    1    1    2    0    0  0.34204018118E+02 -0.13010751823E+02 -0.21929157239E+03  0.22232406131E+03  0.00000000000E+00 0.  1.
</event>
<event>
 7    1  0.2899775E-009  0.1301155E+03  0.7561462E-02  0.1227284E+00
          2   -1    0    0  501    0  0.00000000000E+00  0.00000000000E+00  0.15132845356E+03  0.15132845356E+03  0.00000000000E+00 0. -1.
         -2   -1    0    0    0  501 -0.00000000000E+00 -0.00000000000E+00 -0.19655509663E+03  0.19655509663E+03  0.00000000000E+00 0.  1.
         25    2    1    2    0    0  0.82122549383E+02  0.66586478726E+01 -0.13004746361E+03  0.19835738299E+03  0.12507940632E+03 0.  0.
          5    1    3    3  502    0 -0.26451592124E+02 -0.20011999814E+02 -0.52460214488E+02  0.62207020235E+02  0.41800000000E+01 0. -1.
         -5    1    3    3    0  502  0.10857414151E+03  0.26670647687E+02 -0.77587249125E+02  0.13615036276E+03  0.41800000000E+01 0. -1.
        -11    1    1    2    0    0 -0.56437275746E+02  0.34687627762E+02  0.74640931378E+02  0.99798127490E+02  0.00000000000E+00 0. -1.
         11    1    1    2    0    0 -0.25685273637E+02 -0.41346275635E+02  0.10179889163E+02  0.49728039717E+02  0.00000000000E+00 0.  1.
</event>
<event>
 7    1  0.2899775E-009  0.1177797E+03  0.7561462E-02  0.1246806E+00
         -1   -1    0    0    0  501 -0.00000000000E+00  0.00000000000E+00  0.98438434731E+02  0.98438434731E+02  0.00000000000E+00 0.  1.
          1   -1    0    0  501    0  0.00000000000E+00 -0.00000000000E+00 -0.23482893378E+03  0.23482893378E+03  0.00000000000E+00 0. -1.
         25    2    1    2    0    0 -0.81270432800E+02 -0.22265752951E+02 -0.32975130905E+02  0.15438163816E+03  0.12508270840E+03 0.  0.
          5    1    3    3  502    0 -0.29411231119E+02  0.31586533709E+02  0.33073601900E+02  0.54534990330E+02  0.41800000000E+01 0.  1.
         -5    1    3    3    0  502 -0.51859201681E+02 -0.53852286660E+02 -0.66048732804E+02  0.99846647828E+02  0.41800000000E+01 0.  1.
        -11    1    1    2    0    0  0.31827065706E+02 -0.31148590198E+02 -0.95872200738E+02  0.10571033846E+03  0.00000000000E+00 0. -1.
         11    1    1    2    0    0  0.49443367094E+02  0.53414343149E+02 -0.75431674020E+01  0.73175391889E+02  0.00000000000E+00 0.  1.
</event>
<event>
 7    1  0.2899775E-009  0.1666320E+03  0.7561462E-02  0.1181406E+00
          2   -1    0    0  501    0  0.00000000000E+00  0.00000000000E+00  0.80943718932E+03  0.80943718932E+03  0.00000000000E+00 0. -1.
         -2   -1    0    0    0  501 -0.00000000000E+00 -0.00000000000E+00 -0.40179428929E+02  0.40179428929E+02  0.00000000000E+00 0.  1.
         25    2    1    2    0    0 -0.50032396253E+02 -0.13466168599E+03  0.41775858221E+03  0.45913645938E+03  0.12508814881E+03 0.  0.
          5    1    3    3  502    0 -0.83406007813E+02 -0.10334293959E+03  0.36871802035E+03  0.39192700370E+03  0.41800000000E+01 0.  1.
         -5    1    3    3    0  502  0.33373611560E+02 -0.31318746400E+02  0.49040561862E+02  0.67209455676E+02  0.41800000000E+01 0.  1.
        -11    1    1    2    0    0 -0.11649232822E+02  0.38243673826E+02  0.32353151515E+02  0.51429657067E+02  0.00000000000E+00 0.  1.
         11    1    1    2    0    0  0.61681629074E+02  0.96418012167E+02  0.31914602667E+03  0.33905050180E+03  0.00000000000E+00 0. -1.
</event>
<event>
 7    1  0.2899775E-009  0.1568071E+03  0.7561462E-02  0.1192349E+00
         -2   -1    0    0    0  501 -0.00000000000E+00  0.00000000000E+00  0.20519863225E+02  0.20519863225E+02  0.00000000000E+00 0.  1.
          2   -1    0    0  501    0  0.00000000000E+00 -0.00000000000E+00 -0.18248003013E+04  0.18248003013E+04  0.00000000000E+00 0. -1.
         25    2    1    2    0    0  0.14472461437E+03  0.50728406347E+02 -0.11490864671E+04  0.11660042747E+04  0.12509066520E+03 0.  0.
          5    1    3    3  502    0  0.90234413718E+02  0.20895067141E+02 -0.28552983540E+03  0.30020595023E+03  0.41800000000E+01 0. -1.
         -5    1    3    3    0  502  0.54490200656E+02  0.29833339206E+02 -0.86355663167E+03  0.86579832443E+03  0.41800000000E+01 0. -1.
        -11    1    1    2    0    0 -0.21210043042E+02 -0.24428096340E+02 -0.40757458086E+02  0.52036220138E+02  0.00000000000E+00 0.  1.
         11    1    1    2    0    0 -0.12351457133E+03 -0.26300310007E+02 -0.61443651295E+03  0.62727966975E+03  0.00000000000E+00 0. -1.
</event>
<event>
 7    1  0.2899775E-009  0.1034335E+03  0.7561462E-02  0.1273237E+00
         -1   -1    0    0    0  501 -0.00000000000E+00  0.00000000000E+00  0.29538591984E+03  0.29538591984E+03  0.00000000000E+00 0.  1.
          1   -1    0    0  501    0  0.00000000000E+00 -0.00000000000E+00 -0.62095904428E+02  0.62095904428E+02  0.00000000000E+00 0. -1.
         25    2    1    2    0    0  0.40446370534E+02  0.70586772450E+02  0.11897633475E+03  0.19084401714E+03  0.12509064439E+03 0.  0.
          5    1    3    3  502    0  0.60499214727E+02  0.41653278568E+02  0.76001349393E+01  0.73962051413E+02  0.41800000000E+01 0.  1.
         -5    1    3    3    0  502 -0.20052844194E+02  0.28933493882E+02  0.11137619981E+03  0.11688196573E+03  0.41800000000E+01 0.  1.
        -11    1    1    2    0    0 -0.42976372626E+02 -0.20359458242E+02  0.10530695609E+03  0.11554666220E+03  0.00000000000E+00 0.  1.
         11    1    1    2    0    0  0.25300020925E+01 -0.50227314208E+02  0.90067245783E+01  0.51091144935E+02  0.00000000000E+00 0. -1.
</event>
<event>
 7    1  0.2899775E-009  0.1747631E+03  0.7561462E-02  0.1172970E+00
         -1   -1    0    0    0  501 -0.00000000000E+00  0.00000000000E+00  0.16225859777E+03  0.16225859777E+03  0.00000000000E+00 0.  1.
          1   -1    0    0  501    0  0.00000000000E+00 -0.00000000000E+00 -0.19065100969E+03  0.19065100969E+03  0.00000000000E+00 0. -1.
         25    2    1    2    0    0 -0.63440072806E+02 -0.12204671238E+03 -0.40987346899E+01  0.18596835663E+03  0.12508951676E+03 0.  0.
          5    1    3    3  502    0  0.14847349942E+02 -0.10246631727E+03 -0.13979205571E+02  0.10455945947E+03  0.41800000000E+01 0.  1.
         -5    1    3    3    0  502 -0.78287422748E+02 -0.19580395105E+02  0.98804708810E+01  0.81408897166E+02  0.41800000000E+01 0.  1.
        -11    1    1    2    0    0  0.51764675746E+02  0.13681044917E+03 -0.23013950070E+02  0.14807539483E+03  0.00000000000E+00 0.  1.
         11    1    1    2    0    0  0.11675397060E+02 -0.14763736793E+02 -0.12797271664E+01  0.18865855990E+02  0.00000000000E+00 0. -1.
</event>
<event>
 7    1  0.2899775E-009  0.5791294E+02  0.7561462E-02  0.1406805E+00
         -2   -1    0    0    0  501 -0.00000000000E+00  0.00000000000E+00  0.54979506092E+03  0.54979506092E+03  0.00000000000E+00 0.  1.
          2   -1    0    0  501    0  0.00000000000E+00 -0.00000000000E+00 -0.22203182596E+02  0.22203182596E+02  0.00000000000E+00 0. -1.
         25    2    1    2    0    0 -0.15990682967E+02  0.13515481573E+02  0.35251708910E+03  0.37463793373E+03  0.12508762167E+03 0.  0.
          5    1    3    3  502    0 -0.18680233044E+01 -0.10894497937E+02  0.34493559345E+03  0.34513796607E+03  0.41800000000E+01 0.  1.
         -5    1    3    3    0  502 -0.14122659662E+02  0.24409979510E+02  0.75814956579E+01  0.29499967661E+02  0.41800000000E+01 0.  1.
        -11    1    1    2    0    0 -0.12773684085E+02 -0.36505859928E+02  0.14422952031E+03  0.14932514639E+03  0.00000000000E+00 0.  1.
         11    1    1    2    0    0  0.28764367051E+02  0.22990378355E+02  0.30845268913E+02  0.48035163403E+02  0.00000000000E+00 0. -1.
</event>
<event>
 7    1  0.2899775E-009  0.2106223E+03  0.7561462E-02  0.1141074E+00
         -2   -1    0    0    0  501 -0.00000000000E+00  0.00000000000E+00  0.10485845621E+03  0.10485845621E+03  0.00000000000E+00 0. -1.
          2   -1    0    0  501    0  0.00000000000E+00 -0.00000000000E+00 -0.51418132392E+03  0.51418132392E+03  0.00000000000E+00 0.  1.
         25    2    1    2    0    0  0.42859954917E+02  0.20056429835E+03 -0.19293828355E+03  0.30811753544E+03  0.12509284902E+03 0.  0.
          5    1    3    3  502    0  0.13134271490E+02  0.36090353977E+01  0.14620172086E+02  0.20414603986E+02  0.41800000000E+01 0.  1.
         -5    1    3    3    0  502  0.29725683427E+02  0.19695526295E+03 -0.20755845564E+03  0.28770293145E+03  0.41800000000E+01 0.  1.
        -11    1    1    2    0    0 -0.24049349796E+02 -0.44585998591E+02 -0.11022741556E+03  0.12131102850E+03  0.00000000000E+00 0.  1.
         11    1    1    2    0    0 -0.18810605121E+02 -0.15597829976E+03 -0.10615716859E+03  0.18961121619E+03  0.00000000000E+00 0. -1.
</event>
<event>
 7    1  0.2899775E-009  0.9778758E+02  0.7561462E-02  0.1285018E+00
          2   -1    0    0  501    0  0.00000000000E+00  0.00000000000E+00  0.17074461669E+03  0.17074461669E+03  0.00000000000E+00 0. -1.
         -2   -1    0    0    0  501 -0.00000000000E+00 -0.00000000000E+00 -0.10072550267E+03  0.10072550267E+03  0.00000000000E+00 0.  1.
         25    2    1    2    0    0  0.68286573902E+02 -0.17548464584E+02  0.28444330550E+02  0.14638369017E+03  0.12509236597E+03 0.  0.
          5    1    3    3  502    0 -0.33773272365E+01 -0.92996245200E+01  0.64668312662E+02  0.65554194511E+02  0.41800000000E+01 0. -1.
         -5    1    3    3    0  502  0.71663901138E+02 -0.82488400638E+01 -0.36223982112E+02  0.80829495661E+02  0.41800000000E+01 0. -1.
        -11    1    1    2    0    0  0.75228907067E+01  0.34151391513E+02  0.31057973649E+02  0.46770815195E+02  0.00000000000E+00 0. -1.
         11    1    1    2    0    0 -0.75809464608E+02 -0.16602926929E+02  0.10516809817E+02  0.78315613996E+02  0.00000000000E+00 0.  1.
</event>
<event>
 7    1  0.2899775E-009  0.1075489E+03  0.7561462E-02  0.1265177E+00
         -2   -1    0    0    0  501 -0.00000000000E+00  0.00000000000E+00  0.18497787038E+02  0.18497787038E+02  0.00000000000E+00 0.  1.
          2   -1    0    0  501    0  0.00000000000E+00 -0.00000000000E+00 -0.71143712019E+03  0.71143712019E+03  0.00000000000E+00 0. -1.
         25    2    1    2    0    0  0.28140225783E+02 -0.11354293541E+02 -0.47278329504E+03  0.48999179972E+03  0.12508847839E+03 0.  0.
          5    1    3    3  502    0 -0.41050165665E+02 -0.33432771359E+02 -0.25189525883E+03  0.25743263220E+03  0.41800000000E+01 0.  1.
         -5    1    3    3    0  502  0.69190391448E+02  0.22078477818E+02 -0.22088803622E+03  0.23255916752E+03  0.41800000000E+01 0.  1.
        -11    1    1    2    0    0  0.67740695040E+01 -0.32493968096E+02 -0.44201716535E+02  0.55276918555E+02  0.00000000000E+00 0.  1.
         11    1    1    2    0    0 -0.34914295287E+02  0.43848261637E+02 -0.17595432157E+03  0.18466618896E+03  0.00000000000E+00 0. -1.
</event>
<event>
 7    1  0.2899775E-009  0.1367924E+03  0.7561462E-02  0.1217711E+00
          2   -1    0    0  501    0  0.00000000000E+00  0.00000000000E+00  0.16558585994E+04  0.16558585994E+04  0.00000000000E+00 0. -1.
         -2   -1    0    0    0  501 -0.00000000000E+00 -0.00000000000E+00 -0.16731317008E+02  0.16731317008E+02  0.00000000000E+00 0.  1.
         25    2    1    2    0    0  0.11567160586E+03 -0.14393647648E+02  0.11215772607E+04  0.11345357398E+04  0.12509474664E+03 0.  0.
          5    1    3    3  502    0  0.45170663376E+02  0.22364919969E+02  0.12588534328E+03  0.13566565714E+03  0.41800000000E+01 0. -1.
         -5    1    3    3    0  502  0.70500942480E+02 -0.36758567617E+02  0.99569191740E+03  0.99887008263E+03  0.41800000000E+01 0. -1.
        -11    1    1    2    0    0 -0.65249923059E+02  0.49541594307E+02  0.35346870813E+03  0.36283887561E+03  0.00000000000E+00 0. -1.
         11    1    1    2    0    0 -0.50421682797E+02 -0.35147946659E+02  0.16408131362E+03  0.17521530107E+03  0.00000000000E+00 0.  1.
</event>
<event>
 7    1  0.2899775E-009  0.1961561E+03  0.7561462E-02  0.1153023E+00
          1   -1    0    0  501    0  0.00000000000E+00  0.00000000000E+00  0.89556286434E+03  0.89556286434E+03  0.00000000000E+00 0.  1.
         -1   -1    0    0    0  501 -0.00000000000E+00 -0.00000000000E+00 -0.49175874987E+02  0.49175874987E+02  0.00000000000E+00 0. -1.
         25    2    1    2    0    0  0.14715893788E+03 -0.95494033608E+02  0.60074159422E+03  0.63820729924E+03  0.12507290005E+03 0.  0.
          5    1    3    3  502    0 -0.78411748162E+01 -0.54127283373E+02  0.16235879187E+03  0.17137414194E+03  0.41800000000E+01 0. -1.
         -5    1    3    3    0  502  0.15500011270E+03 -0.41366750235E+02  0.43838280235E+03  0.46683315730E+03  0.41800000000E+01 0. -1.
        -11    1    1    2    0    0 -0.11255882201E+03  0.60577365309E+02  0.13749431494E+03  0.18773330083E+03  0.00000000000E+00 0. -1.
         11    1    1    2    0    0 -0.34600115877E+02  0.34916668299E+02  0.10815108020E+03  0.11879813926E+03  0.00000000000E+00 0.  1.
</event>
<event>
 7    1  0.2899775E-009  0.8676255E+02  0.7561462E-02  0.1310887E+00
         -2   -1    0    0    0  501 -0.00000000000E+00  0.00000000000E+00  0.55661913119E+02  0.55661913119E+02  0.00000000000E+00 0.  1.
          2   -1    0    0  501    0  0.00000000000E+00 -0.00000000000E+00 -0.27760030722E+03  0.27760030722E+03  0.00000000000E+00 0. -1.
         25    2    1    2    0    0 -0.32240251817E+02 -0.52967215731E+02 -0.12262432292E+03  0.18582011714E+03  0.12508969416E+03 0.  0.
          5    1    3    3  502    0 -0.13382224640E+02  0.74559494507E+01 -0.12133697749E+03  0.12237160465E+03  0.41800000000E+01 0.  1.
         -5    1    3    3    0  502 -0.18858027176E+02 -0.60423165182E+02 -0.12873454346E+01  0.63448512495E+02  0.41800000000E+01 0.  1.
        -11    1    1    2    0    0  0.54746869379E+02  0.31791772037E+02 -0.27044494151E+02  0.68842872833E+02  0.00000000000E+00 0. -1.
         11    1    1    2    0    0 -0.22506617562E+02  0.21175443694E+02 -0.72269577026E+02  0.78599230360E+02  0.00000000000E+00 0.  1.
</event>
<event>
 7    1  0.2899775E-009  0.1157496E+03  0.7561462E-02  0.1250278E+00
         -2   -1    0    0    0  501 -0.00000000000E+00  0.00000000000E+00  0.17396559860E+03  0.17396559860E+03  0.00000000000E+00 0.  1.
          2   -1    0    0  501    0  0.00000000000E+00 -0.00000000000E+00 -0.94951068603E+02  0.94951068603E+02  0.00000000000E+00 0. -1.
         25    2    1    2    0    0  0.54915120061E+02  0.39930494313E+02  0.35197418431E+02  0.14661338785E+03  0.12508602019E+03 0.  0.
          5    1    3    3  502    0 -0.34792790058E+02  0.37207119500E+02  0.22611107142E+02  0.55889556696E+02  0.41800000000E+01 0.  1.
         -5    1    3    3    0  502  0.89707910119E+02  0.27233748138E+01  0.12586311289E+02  0.90723831158E+02  0.41800000000E+01 0.  1.
        -11    1    1    2    0    0  0.96431878122E+01 -0.21248104419E+02 -0.19166167938E+02  0.30196274705E+02  0.00000000000E+00 0. -1.
         11    1    1    2    0    0 -0.64558307873E+02 -0.18682389894E+02  0.62983279506E+02  0.92107004646E+02  0.00000000000E+00 0.  1.
</event>
<event>
 7    1  0.2899775E-009  0.1373315E+03  0.7561462E-02  0.1216965E+00
          2   -1    0    0  501    0  0.00000000000E+00  0.00000000000E+00  0.81268920264E+03  0.81268920264E+03  0.00000000000E+00 0.  1.
         -2   -1    0    0    0  501 -0.00000000000E+00 -0.00000000000E+00 -0.27449828568E+02  0.27449828568E+02  0.00000000000E+00 0. -1.
         25    2    1    2    0    0 -0.57857123836E+02 -0.81002868459E+02  0.50576126868E+03  0.53042528376E+03  0.12509040441E+03 0.  0.
          5    1    3    3  502    0  0.24077266443E+02 -0.61823767419E+02  0.31417989537E+03  0.32113606467E+03  0.41800000000E+01 0. -1.
         -5    1    3    3    0  502 -0.81934390279E+02 -0.19179101040E+02  0.19158137332E+03  0.20928921909E+03  0.41800000000E+01 0. -1.
        -11    1    1    2    0    0 -0.14217466309E+02  0.36631769141E+02  0.14973252585E+03  0.15480262322E+03  0.00000000000E+00 0.  1.
         11    1    1    2    0    0  0.72074590145E+02  0.44371099318E+02  0.12974557953E+03  0.15491112422E+03  0.00000000000E+00 0. -1.
</event>
<event>
 7    1  0.2899775E-009  0.9467174E+02  0.7561462E-02  0.1291917E+00
          1   -1    0    0  501    0  0.00000000000E+00  0.00000000000E+00  0.15451633879E+03  0.15451633879E+03  0.00000000000E+00 0. -1.
         -1   -1    0    0    0  501 -0.00000000000E+00 -0.00000000000E+00 -0.10583523494E+03  0.10583523494E+03  0.00000000000E+00 0.  1.
         25    2    1    2    0    0  0.28525479757E+02 -0.41232926260E+02  0.71512079373E+02  0.15256108405E+03  0.12508816757E+03 0.  0.
          5    1    3    3  502    0 -0.20159548553E+02  0.15633790860E+01 -0.27350362436E+02  0.34269027961E+02  0.41800000000E+01 0. -1.
         -5    1    3    3    0  502  0.48685028310E+02 -0.42796305346E+02  0.98862441809E+02  0.11829205609E+03  0.41800000000E+01 0. -1.
        -11    1    1    2    0    0  0.24559969188E+02  0.44207364344E+02 -0.17703708363E+01  0.50602543036E+02  0.00000000000E+00 0. -1.
         11    1    1    2    0    0 -0.53085448945E+02 -0.29744380839E+01 -0.21060604693E+02  0.57187946646E+02  0.00000000000E+00 0.  1.
</event>
<event>
 7    1  0.2899775E-009  0.1353842E+03  0.7561462E-02  0.1219678E+00
          2   -1    0    0  501    0  0.00000000000E+00  0.00000000000E+00  0.22392794261E+03  0.22392794261E+03  0.00000000000E+00 0. -1.
         -2   -1    0    0    0  501 -0.00000000000E+00 -0.00000000000E+00 -0.13871945050E+03  0.13871945050E+03  0.00000000000E+00 0.  1.
         25    2    1    2    0    0 -0.89650139797E+02 -0.50270210310E+02 -0.51263449896E+02  0.16982127260E+03  0.12508829570E+03 0.  0.
          5    1    3    3  502    0 -0.58487819998E+02 -0.78713793860E+02 -0.72859194020E+02  0.12224001385E+03  0.41800000000E+01 0. -1.
         -5    1    3    3    0  502 -0.31162319799E+02  0.28443583550E+02  0.21595744123E+02  0.47581258754E+02  0.41800000000E+01 0. -1.
        -11    1    1    2    0    0  0.99411898466E+01 -0.21036457811E+02  0.50513697180E+02  0.55614687049E+02  0.00000000000E+00 0. -1.
         11    1    1    2    0    0  0.79708949950E+02  0.71306668121E+02  0.85958244827E+02  0.13721143347E+03  0.00000000000E+00 0.  1.
</event>
<event>
 7    1  0.2899775E-009  0.1613134E+03  0.7561462E-02  0.1187222E+00
         -2   -1    0    0    0  501 -0.00000000000E+00  0.00000000000E+00  0.48600401910E+02  0.48600401910E+02  0.00000000000E+00 0.  1.
          2   -1    0    0  501    0  0.00000000000E+00 -0.00000000000E+00 -0.61547995765E+03  0.61547995765E+03  0.00000000000E+00 0. -1.
         25    2    1    2    0    0  0.13450087259E+03  0.13527732087E+02 -0.36460281974E+03  0.40849026257E+03  0.12512231690E+03 0.  0.
          5    1    3    3  502    0  0.15773989705E+03  0.15979836403E+02 -0.29472475098E+03  0.33468997824E+03  0.41800000000E+01 0. -1.
         -5    1    3    3    0  502 -0.23239024459E+02 -0.24521043156E+01 -0.69878068762E+02  0.73800284331E+02  0.41800000000E+01 0. -1.
        -11    1    1    2    0    0 -0.73189493301E+02 -0.26089714438E+02 -0.53931296279E+02  0.94583084362E+02  0.00000000000E+00 0.  1.
         11    1    1    2    0    0 -0.61311379289E+02  0.12561982351E+02 -0.14834543972E+03  0.16100701263E+03  0.00000000000E+00 0. -1.
</event>
<event>
 7    1  0.2899775E-009  0.2110895E+03  0.7561462E-02  0.1140706E+00
         -1   -1    0    0    0  501 -0.00000000000E+00  0.00000000000E+00  0.24001434300E+03  0.24001434300E+03  0.00000000000E+00 0. -1.
          1   -1    0    0  501    0  0.00000000000E+00 -0.00000000000E+00 -0.22011881298E+03  0.22011881298E+03  0.00000000000E+00 0.  1.
         25    2    1    2    0    0  0.10697387035E+03  0.16907403549E+03  0.38517227774E+02  0.23908241855E+03  0.12508951838E+03 0.  0.
          5    1    3    3  502    0  0.79395215520E+01  0.46336414189E+02 -0.40902676802E+02  0.62454788863E+02  0.41800000000E+01 0. -1.
         -5    1    3    3    0  502  0.99034348797E+02  0.12273762130E+03  0.79419904576E+02  0.17662762968E+03  0.41800000000E+01 0. -1.
        -11    1    1    2    0    0 -0.43996871950E+02 -0.14201269997E+03  0.44171118664E+01  0.14873749552E+03  0.00000000000E+00 0. -1.
         11    1    1    2    0    0 -0.62976998400E+02 -0.27061335518E+02 -0.23038809626E+02  0.72313241916E+02  0.00000000000E+00 0.  1.
</event>
<event>
 7    1  0.2899775E-009  0.1698329E+03  0.7561462E-02  0.1178022E+00
          3   -1    0    0  501    0  0.00000000000E+00  0.00000000000E+00  0.14204452211E+03  0.14204452211E+03  0.00000000000E+00 0. -1.
         -3   -1    0    0    0  501 -0.00000000000E+00 -0.00000000000E+00 -0.21666072561E+03  0.21666072561E+03  0.00000000000E+00 0.  1.
         25    2    1    2    0    0  0.13253684588E+03 -0.23166762089E+02 -0.62405556436E+02  0.19401870760E+03  0.12508433572E+03 0.  0.
          5    1    3    3  502    0  0.75551779278E+01 -0.54051174682E+02 -0.22372532429E+02  0.59132163882E+02  0.41800000000E+01 0.  1.
         -5    1    3    3    0  502  0.12498166795E+03  0.30884412593E+02 -0.40033024006E+02  0.13488654372E+03  0.41800000000E+01 0.  1.
        -11    1    1    2    0    0 -0.91802204797E+02  0.52656451934E+02 -0.32122451390E+02  0.11059927043E+03  0.00000000000E+00 0.  1.
         11    1    1    2    0    0 -0.40734641084E+02 -0.29489689846E+02  0.19911804321E+02  0.54087269692E+02  0.00000000000E+00 0. -1.
</event>
<event>
 7    1  0.2899775E-009  0.1166474E+03  0.7561462E-02  0.1248732E+00
         -2   -1    0    0    0  501 -0.00000000000E+00  0.00000000000E+00  0.29462103275E+02  0.29462103275E+02  0.00000000000E+00 0.  1.
          2   -1    0    0  501    0  0.00000000000E+00 -0.00000000000E+00 -0.87516870625E+03  0.87516870625E+03  0.00000000000E+00 0. -1.
         25    2    1    2    0    0  0.91409022148E+02 -0.81863421616E+01 -0.64380734522E+03  0.66223633081E+03  0.12508570881E+03 0.  0.
          5    1    3    3  502    0  0.92733121128E+02  0.35792536495E+00 -0.64579215488E+03  0.65242972002E+03  0.41800000000E+01 0.  1.
         -5    1    3    3    0  502 -0.13240989807E+01 -0.85442675266E+01  0.19848096573E+01  0.98066107831E+01  0.41800000000E+01 0.  1.
        -11    1    1    2    0    0 -0.11030161946E+03  0.13782247789E+02 -0.14864408235E+03  0.18561104716E+03  0.00000000000E+00 0.  1.
         11    1    1    2    0    0  0.18892597310E+02 -0.55959056278E+01 -0.53255175407E+02  0.56783431567E+02  0.00000000000E+00 0. -1.
</event>
<event>
 7    1  0.2899775E-009  0.5548850E+02  0.7561462E-02  0.1417803E+00
          2   -1    0    0  501    0  0.00000000000E+00  0.00000000000E+00  0.53989860444E+03  0.53989860444E+03  0.00000000000E+00 0. -1.
         -2   -1    0    0    0  501 -0.00000000000E+00 -0.00000000000E+00 -0.30345730390E+02  0.30345730390E+02  0.00000000000E+00 0.  1.
         25    2    1    2    0    0  0.18255843862E+02 -0.13927687441E+02  0.41039058750E+03  0.42964548502E+03  0.12509017617E+03 0.  0.
          5    1    3    3  502    0  0.28133250851E+02 -0.18612734945E+02  0.41549049399E+03  0.41687856349E+03  0.41800000000E+01 0.  1.
         -5    1    3    3    0  502 -0.98774069895E+01  0.46850475045E+01 -0.50999064885E+01  0.12766921522E+02  0.41800000000E+01 0.  1.
        -11    1    1    2    0    0 -0.28564702147E+02 -0.16615705404E+02  0.10296612819E+03  0.10813901899E+03  0.00000000000E+00 0. -1.
         11    1    1    2    0    0  0.10308858285E+02  0.30543392845E+02 -0.38038416395E+01  0.32459830820E+02  0.00000000000E+00 0.  1.
</event>
<event>
 7    1  0.2899775E-009  0.1632259E+03  0.7561462E-02  0.1185102E+00
          1   -1    0    0  501    0  0.00000000000E+00  0.00000000000E+00  0.60246774626E+02  0.60246774626E+02  0.00000000000E+00 0. -1.
         -1   -1    0    0    0  501 -0.00000000000E+00 -0.00000000000E+00 -0.52057366756E+03  0.52057366756E+03  0.00000000000E+00 0.  1.
         25    2    1    2    0    0  0.12525312291E+03  0.35909620308E+02 -0.32660919349E+03  0.37322770635E+03  0.12509000714E+03 0.  0.
          5    1    3    3  502    0  0.53388099305E+02 -0.46665936084E+02 -0.12440407317E+03  0.14325447484E+03  0.41800000000E+01 0.  1.
         -5    1    3    3    0  502  0.71865023607E+02  0.82575556391E+02 -0.20220512032E+03  0.22997323152E+03  0.41800000000E+01 0.  1.
        -11    1    1    2    0    0 -0.70647663373E+02 -0.53372827340E+02 -0.38724239383E+02  0.96640145665E+02  0.00000000000E+00 0. -1.
         11    1    1    2    0    0 -0.54605459539E+02  0.17463207032E+02 -0.94993460057E+02  0.11095259017E+03  0.00000000000E+00 0.  1.
</event>
<event>
 7    1  0.2899775E-009  0.2355242E+03  0.7561462E-02  0.1122811E+00
          1   -1    0    0  501    0  0.00000000000E+00  0.00000000000E+00  0.35433014616E+03  0.35433014616E+03  0.00000000000E+00 0. -1.
         -1   -1    0    0    0  501 -0.00000000000E+00 -0.00000000000E+00 -0.16920827089E+03  0.16920827089E+03  0.00000000000E+00 0.  1.
         25    2    1    2    0    0  0.21479176061E+03 -0.69949270490E+01  0.51190011358E+02  0.25385123339E+03  0.12504240081E+03 0.  0.
          5    1    3    3  502    0  0.65361780458E+01 -0.30240399442E+02 -0.14199339824E+02  0.34297186958E+02  0.41800000000E+01 0. -1.
         -5    1    3    3    0  502  0.20825558256E+03  0.23245472393E+02  0.65389351182E+02  0.21955404643E+03  0.41800000000E+01 0. -1.
        -11    1    1    2    0    0 -0.62023082004E+02 -0.35767380981E+02  0.19887346469E+02  0.74307972608E+02  0.00000000000E+00 0.  1.
         11    1    1    2    0    0 -0.15276867861E+03  0.42762308030E+02  0.11404451745E+03  0.19537921105E+03  0.00000000000E+00 0. -1.
</event>
<event>
 7    1  0.2899775E-009  0.1353072E+03  0.7561462E-02  0.1219787E+00
         -1   -1    0    0    0  501 -0.00000000000E+00  0.00000000000E+00  0.33107604621E+02  0.33107604621E+02  0.00000000000E+00 0.  1.
          1   -1    0    0  501    0  0.00000000000E+00 -0.00000000000E+00 -0.10260882666E+04  0.10260882666E+04  0.00000000000E+00 0. -1.
         25    2    1    2    0    0  0.20956020421E+02  0.10894824031E+03 -0.81552632583E+03  0.83248973763E+03  0.12508837386E+03 0.  0.
          5    1    3    3  502    0 -0.23867406854E+02  0.85565887359E+02 -0.70839277675E+03  0.71395306060E+03  0.41800000000E+01 0. -1.
         -5    1    3    3    0  502  0.44823427275E+02  0.23382352954E+02 -0.10713354908E+03  0.11853667703E+03  0.41800000000E+01 0. -1.
        -11    1    1    2    0    0  0.22707761469E+02 -0.65638851711E+02 -0.51258385732E+02  0.86322206835E+02  0.00000000000E+00 0.  1.
         11    1    1    2    0    0 -0.43663781891E+02 -0.43309388601E+02 -0.12619595039E+03  0.14038392674E+03  0.00000000000E+00 0. -1.
</event>
<event>
 7    1  0.2899775E-009  0.1608781E+03  0.7561462E-02  0.1187709E+00
          2   -1    0    0  501    0  0.00000000000E+00  0.00000000000E+00  0.77964031884E+03  0.77964031884E+03  0.00000000000E+00 0. -1.
         -2   -1    0    0    0  501 -0.00000000000E+00 -0.00000000000E+00 -0.36567620379E+02  0.36567620379E+02  0.00000000000E+00 0.  1.
         25    2    1    2    0    0 -0.11108522362E+03 -0.67451870275E+02  0.36971243865E+03  0.41135488346E+03  0.12504347700E+03 0.  0.
          5    1    3    3  502    0 -0.10000320907E+03 -0.20248733791E+01  0.13930999860E+03  0.17155025516E+03  0.41800000000E+01 0. -1.
         -5    1    3    3    0  502 -0.11082014545E+02 -0.65426996896E+02  0.23040244005E+03  0.23980462829E+03  0.41800000000E+01 0. -1.
        -11    1    1    2    0    0  0.11087721364E+02 -0.19636517288E+02  0.37434115648E+02  0.43701755006E+02  0.00000000000E+00 0.  1.
         11    1    1    2    0    0  0.99997502254E+02  0.87088387563E+02  0.33592614416E+03  0.36115130076E+03  0.00000000000E+00 0. -1.
</event>
<event>
 7    1  0.2899775E-009  0.1726239E+03  0.7561462E-02  0.1175139E+00
          1   -1    0    0  501    0  0.00000000000E+00  0.00000000000E+00  0.21131359669E+04  0.21131359669E+04  0.00000000000E+00 0. -1.
         -1   -1    0    0    0  501 -0.00000000000E+00 -0.00000000000E+00 -0.21372420570E+02  0.21372420570E+02  0.00000000000E+00 0.  1.
         25    2    1    2    0    0  0.13670875046E+03 -0.18460911085E+02  0.16805901933E+04  0.16908755184E+04  0.12508610404E+03 0.  0.
          5    1    3    3  502    0  0.11498271547E+02  0.43543575413E+02  0.49901188843E+03  0.50105747215E+03  0.41800000000E+01 0. -1.
         -5    1    3    3    0  502  0.12521047891E+03 -0.62004486498E+02  0.11815783048E+04  0.11898180463E+04  0.41800000000E+01 0. -1.
        -11    1    1    2    0    0 -0.34325377429E+02 -0.31250212262E+02  0.70143963040E+02  0.84112917278E+02  0.00000000000E+00 0. -1.
         11    1    1    2    0    0 -0.10238337303E+03  0.49711123348E+02  0.34102939004E+03  0.35951995178E+03  0.00000000000E+00 0.  1.
</event>
<event>
 7    1  0.2899775E-009  0.1054986E+03  0.7561462E-02  0.1269140E+00
          1   -1    0    0  501    0  0.00000000000E+00  0.00000000000E+00  0.87008430666E+02  0.87008430666E+02  0.00000000000E+00 0. -1.
         -1   -1    0    0    0  501 -0.00000000000E+00 -0.00000000000E+00 -0.16650124384E+03  0.16650124384E+03  0.00000000000E+00 0.  1.
         25    2    1    2    0    0  0.23668162144E+02  0.39458314764E+02 -0.31260603383E+02  0.13690269893E+03  0.12509189881E+03 0.  0.
          5    1    3    3  502    0  0.15105708447E+02  0.71050971149E+02  0.20433866812E+02  0.75574057995E+02  0.41800000000E+01 0. -1.
         -5    1    3    3    0  502  0.85624536966E+01 -0.31592656385E+02 -0.51694470195E+02  0.61328640939E+02  0.41800000000E+01 0. -1.
        -11    1    1    2    0    0 -0.56114085453E+02 -0.45491615172E+02 -0.25817255076E+02  0.76712504175E+02  0.00000000000E+00 0. -1.
         11    1    1    2    0    0  0.32445923309E+02  0.60333004075E+01 -0.22414954717E+02  0.39894471399E+02  0.00000000000E+00 0.  1.
</event>
<event>
 7    1  0.2899775E-009  0.1280170E+03  0.7561462E-02  0.1230428E+00
          1   -1    0    0  501    0  0.00000000000E+00  0.00000000000E+00  0.83648816203E+03  0.83648816203E+03  0.00000000000E+00 0. -1.
         -1   -1    0    0    0  501 -0.00000000000E+00 -0.00000000000E+00 -0.20433367084E+02  0.20433367084E+02  0.00000000000E+00 0.  1.
         25    2    1    2    0    0 -0.46587051291E+01 -0.72749993452E+02  0.48806305283E+03  0.50907982784E+03  0.12506983047E+03 0.  0.
          5    1    3    3  502    0 -0.18350508387E+02 -0.10646265026E+03  0.36042597489E+03  0.37629163269E+03  0.41800000000E+01 0.  1.
         -5    1    3    3    0  502  0.13691803258E+02  0.33712656807E+02  0.12763707794E+03  0.13278819515E+03  0.41800000000E+01 0.  1.
        -11    1    1    2    0    0 -0.34802586614E+02  0.83893063361E+01  0.64742163006E+02  0.73980728345E+02  0.00000000000E+00 0.  1.
         11    1    1    2    0    0  0.39461291743E+02  0.64360687116E+02  0.26324957911E+03  0.27386097293E+03  0.00000000000E+00 0. -1.
</event>
<event>
 7    1  0.2899775E-009  0.1081910E+03  0.7561462E-02  0.1263957E+00
          1   -1    0    0  501    0  0.00000000000E+00  0.00000000000E+00  0.23391879865E+03  0.23391879865E+03  0.00000000000E+00 0. -1.
         -1   -1    0    0    0  501 -0.00000000000E+00 -0.00000000000E+00 -0.67125815954E+02  0.67125815954E+02  0.00000000000E+00 0.  1.
         25    2    1    2    0    0  0.55483325071E+02  0.12539870648E+02  0.59002201005E+02  0.14955097092E+03  0.12509430628E+03 0.  0.
          5    1    3    3  502    0  0.69228045503E+02 -0.33668807888E+02  0.64935942303E+02  0.10079811462E+03  0.41800000000E+01 0.  1.
         -5    1    3    3    0  502 -0.13744720432E+02  0.46208678536E+02 -0.59337412986E+01  0.48752856301E+02  0.41800000000E+01 0.  1.
        -11    1    1    2    0    0 -0.72689327763E+02 -0.12069398232E+02  0.11172691616E+03  0.13383688781E+03  0.00000000000E+00 0. -1.
         11    1    1    2    0    0  0.17206002692E+02 -0.47047241606E+00 -0.39361344766E+01  0.17656755862E+02  0.00000000000E+00 0.  1.
</event>
<event>
 7    1  0.2899775E-009  0.1128156E+03  0.7561462E-02  0.1255443E+00
          2   -1    0    0  501    0  0.00000000000E+00  0.00000000000E+00  0.49441179022E+03  0.49441179022E+03  0.00000000000E+00 0. -1.
         -2   -1    0    0    0  501 -0.00000000000E+00 -0.00000000000E+00 -0.35596026801E+02  0.35596026801E+02  0.00000000000E+00 0.  1.
         25    2    1    2    0    0 -0.72101815951E+02 -0.53642480242E+02  0.25317669811E+03  0.29634758682E+03  0.12508902509E+03 0.  0.
          5    1    3    3  502    0 -0.36230168970E-02 -0.46611605656E+02  0.17848564891E+02  0.50086779330E+02  0.41800000000E+01 0.  1.
         -5    1    3    3    0  502 -0.72098192934E+02 -0.70308745864E+01  0.23532813322E+03  0.24626080749E+03  0.41800000000E+01 0.  1.
        -11    1    1    2    0    0  0.66580489297E+02  0.16331145297E+02  0.97950098178E+02  0.11955705581E+03  0.00000000000E+00 0.  1.
         11    1    1    2    0    0  0.55213266536E+01  0.37311334945E+02  0.10768896713E+03  0.11410317439E+03  0.00000000000E+00 0. -1.
</event>
<event>
 7    1  0.2899775E-009  0.1067267E+03  0.7561462E-02  0.1266754E+00
          1   -1    0    0  501    0  0.00000000000E+00  0.00000000000E+00  0.18961014579E+03  0.18961014579E+03  0.00000000000E+00 0. -1.
         -1   -1    0    0    0  501 -0.00000000000E+00 -0.00000000000E+00 -0.63388745634E+02  0.63388745634E+02  0.00000000000E+00 0.  1.
         25    2    1    2    0    0 -0.56407799838E+02 -0.32025245665E+02  0.70240062987E+02  0.15747672782E+03  0.12513111968E+03 0.  0.
          5    1    3    3  502    0  0.39340566052E+02 -0.93557385879E+01  0.32355168345E+02  0.51957090954E+02  0.41800000000E+01 0. -1.
         -5    1    3    3    0  502 -0.95748365890E+02 -0.22669507077E+02  0.37884894642E+02  0.10551963686E+03  0.41800000000E+01 0. -1.
        -11    1    1    2    0    0  0.24376185502E+02  0.34439866501E+02  0.18256250758E+02  0.45973835123E+02  0.00000000000E+00 0. -1.
         11    1    1    2    0    0  0.32031614336E+02 -0.24146208352E+01  0.37725086413E+02  0.49548328485E+02  0.00000000000E+00 0.  1.
</event>
<event>
 7    1  0.2899775E-009  0.1255926E+03  0.7561462E-02  0.1234146E+00
         -2   -1    0    0    0  501 -0.00000000000E+00  0.00000000000E+00  0.38243443373E+02  0.38243443373E+02  0.00000000000E+00 0.  1.
          2   -1    0    0  501    0  0.00000000000E+00 -0.00000000000E+00 -0.70807698608E+03  0.70807698608E+03  0.00000000000E+00 0. -1.
         25    2    1    2    0    0  0.17447732453E+02  0.11455872356E+03 -0.45139299109E+03  0.48252516762E+03  0.12508709156E+03 0.  0.
          5    1    3    3  502    0 -0.65007723244E+01  0.55045178169E+02 -0.46240887579E+02  0.72304382748E+02  0.41800000000E+01 0.  1.
         -5    1    3    3    0  502  0.23948504778E+02  0.59513545396E+02 -0.40515210351E+03  0.41022078487E+03  0.41800000000E+01 0.  1.
        -11    1    1    2    0    0  0.53759722418E+01 -0.10719607782E+03 -0.11375240493E+03  0.15639536376E+03  0.00000000000E+00 0.  1.
         11    1    1    2    0    0 -0.22823704695E+02 -0.73626457430E+01 -0.10468814669E+03  0.10739989808E+03  0.00000000000E+00 0. -1.
</event>
<event>
 7    1  0.2899775E-009  0.1247591E+03  0.7561462E-02  0.1235446E+00
          1   -1    0    0  501    0  0.00000000000E+00  0.00000000000E+00  0.44881606341E+03  0.44881606341E+03  0.00000000000E+00 0. -1.
         -1   -1    0    0    0  501 -0.00000000000E+00 -0.00000000000E+00 -0.64767897369E+02  0.64767897369E+02  0.00000000000E+00 0.  1.
         25    2    1    2    0    0 -0.33444127707E+02 -0.84960073834E+02  0.34447612015E+03  0.37768891481E+03  0.12509354576E+03 0.  0.
          5    1    3    3  502    0  0.85503749125E+00  0.31016211132E+02  0.46300810108E+02  0.55892520598E+02  0.41800000000E+01 0. -1.
         -5    1    3    3    0  502 -0.34299165198E+02 -0.11597628497E+03  0.29817531004E+03  0.32179639421E+03  0.41800000000E+01 0. -1.
        -11    1    1    2    0    0  0.23036096520E+02  0.17478746655E+02  0.58314339176E+02  0.65090171923E+02  0.00000000000E+00 0. -1.
         11    1    1    2    0    0  0.10408031186E+02  0.67481327179E+02 -0.18742293287E+02  0.70804874046E+02  0.00000000000E+00 0.  1.
</event>
<event>
 7    1  0.2899775E-009  0.9608332E+02  0.7561462E-02  0.1288755E+00
         -1   -1    0    0    0  501 -0.00000000000E+00  0.00000000000E+00  0.21680726065E+02  0.21680726065E+02  0.00000000000E+00 0.  1.
          1   -1    0    0  501    0  0.00000000000E+00 -0.00000000000E+00 -0.60758401644E+03  0.60758401644E+03  0.00000000000E+00 0. -1.
         25    2    1    2    0    0  0.22177488004E+02  0.14064879101E+02 -0.41663290977E+03  0.43579667421E+03  0.12508436331E+03 0.  0.
          5    1    3    3  502    0  0.43260248869E+02 -0.46389384123E+02 -0.21515749171E+03  0.22435160514E+03  0.41800000000E+01 0. -1.
         -5    1    3    3    0  502 -0.21082760865E+02  0.60454263224E+02 -0.20147541807E+03  0.21144506907E+03  0.41800000000E+01 0. -1.
        -11    1    1    2    0    0 -0.31993107561E+02 -0.31201356729E+02 -0.16781793033E+03  0.17366617787E+03  0.00000000000E+00 0. -1.
         11    1    1    2    0    0  0.98156195569E+01  0.17136477628E+02 -0.14524502661E+01  0.19801890429E+02  0.00000000000E+00 0.  1.
</event>
<event>
 7    1  0.2899775E-009  0.1181762E+03  0.7561462E-02  0.1246136E+00
          2   -1    0    0  501    0  0.00000000000E+00  0.00000000000E+00  0.19474745491E+03  0.19474745491E+03  0.00000000000E+00 0. -1.
         -2   -1    0    0    0  501 -0.00000000000E+00 -0.00000000000E+00 -0.10613776163E+03  0.10613776163E+03  0.00000000000E+00 0.  1.
         25    2    1    2    0    0 -0.14453965349E+02  0.75334538702E+02  0.10631464522E+03  0.18120652623E+03  0.12509512989E+03 0.  0.
          5    1    3    3  502    0  0.37181722081E+02  0.42842713358E+02 -0.18959878322E+01  0.56912614724E+02  0.41800000000E+01 0. -1.
         -5    1    3    3    0  502 -0.51635687430E+02  0.32491825343E+02  0.10821063306E+03  0.12429391150E+03  0.41800000000E+01 0. -1.
        -11    1    1    2    0    0  0.85275324132E+01 -0.96226802511E+02 -0.15676273310E+02  0.97867573156E+02  0.00000000000E+00 0.  1.
         11    1    1    2    0    0  0.59264329361E+01  0.20892263809E+02 -0.20286786390E+01  0.21811117153E+02  0.00000000000E+00 0. -1.
</event>
<event>
 7    1  0.2899775E-009  0.1172923E+03  0.7561462E-02  0.1247632E+00
          2   -1    0    0  501    0  0.00000000000E+00  0.00000000000E+00  0.14082741485E+03  0.14082741485E+03  0.00000000000E+00 0. -1.
         -2   -1    0    0    0  501 -0.00000000000E+00 -0.00000000000E+00 -0.14892577125E+03  0.14892577125E+03  0.00000000000E+00 0.  1.
         25    2    1    2    0    0  0.46412345161E+02  0.76578857499E+02 -0.37048476617E+02  0.15823634163E+03  0.12509085896E+03 0.  0.
          5    1    3    3  502    0  0.50797434343E+02  0.95221492785E+02 -0.63518779686E+02  0.12529812368E+03  0.41800000000E+01 0. -1.
         -5    1    3    3    0  502 -0.43850891821E+01 -0.18642635286E+02  0.26470303069E+02  0.32938217956E+02  0.41800000000E+01 0. -1.
        -11    1    1    2    0    0 -0.58834029500E+02 -0.73560758625E+02  0.50186378351E+02  0.10673003705E+03  0.00000000000E+00 0. -1.
         11    1    1    2    0    0  0.12421684339E+02 -0.30180988742E+01 -0.21236258136E+02  0.24786807424E+02  0.00000000000E+00 0.  1.
</event>
<event>
 7    1  0.2899775E-009  0.9231270E+02  0.7561462E-02  0.1297346E+00
         -2   -1    0    0    0  501 -0.00000000000E+00  0.00000000000E+00  0.13320228929E+03  0.13320228929E+03  0.00000000000E+00 0.  1.
          2   -1    0    0  501    0  0.00000000000E+00 -0.00000000000E+00 -0.12176474497E+03  0.12176474497E+03  0.00000000000E+00 0. -1.
         25    2    1    2    0    0 -0.48532096902E+02 -0.27824928074E+02 -0.51566499199E+02  0.14640801362E+03  0.12508641638E+03 0.  0.
          5    1    3    3  502    0 -0.22317322234E+02 -0.55906029453E+02 -0.78715150756E+02  0.99182127217E+02  0.41800000000E+01 0. -1.
         -5    1    3    3    0  502 -0.26214774669E+02  0.28081101379E+02  0.27148651557E+02  0.47225886407E+02  0.41800000000E+01 0. -1.
        -11    1    1    2    0    0  0.60559166533E+02  0.36594737756E+02  0.61224185233E+02  0.93568094670E+02  0.00000000000E+00 0.  1.
         11    1    1    2    0    0 -0.12027069631E+02 -0.87698096826E+01  0.17798582890E+01  0.14990925966E+02  0.00000000000E+00 0. -1.
</event>
<event>
 7    1  0.2899775E-009  0.2328568E+03  0.7561462E-02  0.1124645E+00
          2   -1    0    0  501    0  0.00000000000E+00  0.00000000000E+00  0.13601829150E+04  0.13601829150E+04  0.00000000000E+00 0.  1.
         -2   -1    0    0    0  501 -0.00000000000E+00 -0.00000000000E+00 -0.48936772763E+02  0.48936772763E+02  0.00000000000E+00 0. -1.
         25    2    1    2    0    0 -0.14339283669E+03 -0.14786041646E+03  0.37171646424E+03  0.44299681493E+03  0.12509532319E+03 0.  0.
          5    1    3    3  502    0 -0.14546464466E+03 -0.16670662712E+03  0.33554129874E+03  0.40194091348E+03  0.41800000000E+01 0.  1.
         -5    1    3    3    0  502  0.20718079726E+01  0.18846210664E+02  0.36175165503E+02  0.41055901450E+02  0.41800000000E+01 0.  1.
        -11    1    1    2    0    0 -0.11973892086E+02  0.22054611568E+02  0.11447690107E+03  0.11719531075E+03  0.00000000000E+00 0. -1.
         11    1    1    2    0    0  0.15536672877E+03  0.12580580489E+03  0.82505277695E+03  0.84892756211E+03  0.00000000000E+00 0.  1.
</event>
<event>
 7    1  0.2899775E-009  0.2010921E+03  0.7561462E-02  0.1148821E+00
          1   -1    0    0  501    0  0.00000000000E+00  0.00000000000E+00  0.12099087929E+03  0.12099087929E+03  0.00000000000E+00 0. -1.
         -1   -1    0    0    0  501 -0.00000000000E+00 -0.00000000000E+00 -0.39884339272E+03  0.39884339272E+03  0.00000000000E+00 0.  1.
         25    2    1    2    0    0  0.17087617828E+03  0.45497097139E+02 -0.56086529666E+02  0.22374386157E+03  0.12508781966E+03 0.  0.
          5    1    3    3  502    0  0.18116699746E+03  0.64467623851E+02 -0.39877926562E+02  0.19643135422E+03  0.41800000000E+01 0. -1.
         -5    1    3    3    0  502 -0.10290819178E+02 -0.18970526713E+02 -0.16208603103E+02  0.27312507349E+02  0.41800000000E+01 0. -1.
        -11    1    1    2    0    0 -0.10135033929E+03  0.57115222568E+01 -0.16163447924E+03  0.19086701559E+03  0.00000000000E+00 0.  1.
         11    1    1    2    0    0 -0.69525838990E+02 -0.51208619396E+02 -0.60131504533E+02  0.10522339486E+03  0.00000000000E+00 0. -1.
</event>
<event>
 7    1  0.2899775E-009  0.1274392E+03  0.7561462E-02  0.1231306E+00
          1   -1    0    0  501    0  0.00000000000E+00  0.00000000000E+00  0.77229030761E+03  0.77229030761E+03  0.00000000000E+00 0. -1.
         -1   -1    0    0    0  501 -0.00000000000E+00 -0.00000000000E+00 -0.23391893948E+02  0.23391893948E+02  0.00000000000E+00 0.  1.
         25    2    1    2    0    0 -0.10626503725E+02 -0.77617368700E+02  0.42401009095E+03  0.44896493584E+03  0.12509027891E+03 0.  0.
          5    1    3    3  502    0  0.37287487604E+02 -0.78533425313E+02  0.35026854550E+03  0.36092018783E+03  0.41800000000E+01 0. -1.
         -5    1    3    3    0  502 -0.47913991329E+02  0.91605661325E+00  0.73741545452E+02  0.88044748000E+02  0.41800000000E+01 0. -1.
        -11    1    1    2    0    0 -0.36863944804E+02  0.57186686775E+02  0.15861118927E+03  0.17258846118E+03  0.00000000000E+00 0. -1.
         11    1    1    2    0    0  0.47490448528E+02  0.20430681925E+02  0.16627713345E+03  0.17412880455E+03  0.00000000000E+00 0.  1.
</event>
<event>
 7    1  0.2899775E-009  0.1020651E+03  0.7561462E-02  0.1276012E+00
          1   -1    0    0  501    0  0.00000000000E+00  0.00000000000E+00  0.59293893743E+02  0.59293893743E+02  0.00000000000E+00 0. -1.
         -1   -1    0    0    0  501 -0.00000000000E+00 -0.00000000000E+00 -0.22364076242E+03  0.22364076242E+03  0.00000000000E+00 0.  1.
         25    2    1    2    0    0 -0.35010166020E+02 -0.24353503680E+01 -0.77117721298E+02  0.15107862059E+03  0.12508382791E+03 0.  0.
          5    1    3    3  502    0 -0.17887705099E+02  0.57411521691E+02 -0.62841012006E+02  0.87077655035E+02  0.41800000000E+01 0. -1.
         -5    1    3    3    0  502 -0.17122460922E+02 -0.59846872059E+02 -0.14276709292E+02  0.64000965551E+02  0.41800000000E+01 0. -1.
        -11    1    1    2    0    0 -0.16892311881E+02  0.20448884961E+02 -0.69078937281E+02  0.73995990923E+02  0.00000000000E+00 0.  1.
         11    1    1    2    0    0  0.51902477901E+02 -0.18013534593E+02 -0.18150210100E+02  0.57860044655E+02  0.00000000000E+00 0. -1.
</event>
<event>
 7    1  0.2899775E-009  0.9440758E+02  0.7561462E-02  0.1292516E+00
          2   -1    0    0  501    0  0.00000000000E+00  0.00000000000E+00  0.14752602609E+03  0.14752602609E+03  0.00000000000E+00 0. -1.
         -2   -1    0    0    0  501 -0.00000000000E+00 -0.00000000000E+00 -0.96372986358E+02  0.96372986358E+02  0.00000000000E+00 0.  1.
         25    2    1    2    0    0 -0.25363637754E+02  0.82679692791E+01  0.71885041994E+02  0.14671954797E+03  0.12508993988E+03 0.  0.
          5    1    3    3  502    0  0.41661547364E+02 -0.15251028620E+02 -0.13871366906E+01  0.44583348359E+02  0.41800000000E+01 0.  1.
         -5    1    3    3    0  502 -0.67025185118E+02  0.23518997899E+02  0.73272178685E+02  0.10213619961E+03  0.41800000000E+01 0.  1.
        -11    1    1    2    0    0  0.26258296871E+01  0.29174759396E+02 -0.39788171604E+02  0.49408098192E+02  0.00000000000E+00 0.  1.
         11    1    1    2    0    0  0.22737808067E+02 -0.37442728675E+02  0.19056169338E+02  0.47771366279E+02  0.00000000000E+00 0. -1.
</event>
<event>
 6    1  0.2899775E-009  0.1583185E+03  0.7561462E-02  0.1190608E+00
          1   -1    0    0  501    0  0.00000000000E+00  0.00000000000E+00  0.99407426780E+03  0.99407426780E+03  0.00000000000E+00 0. -1.
         -1   -1    0    0    0  501 -0.00000000000E+00 -0.00000000000E+00 -0.51212834146E+02  0.51212834146E+02  0.00000000000E+00 0.  1.
          5    1    1    2  502    0 -0.28942007807E+02  0.67674117480E+02  0.62278929670E+03  0.62713747016E+03  0.41800000000E+01 0.  1.
         -5    1    1    2    0  502 -0.80561255068E+02  0.93204524933E+01  0.20151225022E+03  0.21725939805E+03  0.41800000000E+01 0.  1.
        -11    1    1    2    0    0  0.13968352476E+02  0.20761220116E+02  0.13067816065E+02  0.28229611197E+02  0.00000000000E+00 0.  1.
         11    1    1    2    0    0  0.95534910399E+02 -0.97755790090E+02  0.10549207066E+03  0.17266062253E+03  0.00000000000E+00 0. -1.
</event>
<event>
 7    1  0.2899775E-009  0.2013746E+03  0.7561462E-02  0.1148584E+00
          3   -1    0    0  501    0  0.00000000000E+00  0.00000000000E+00  0.17656415822E+03  0.17656415822E+03  0.00000000000E+00 0. -1.
         -3   -1    0    0    0  501 -0.00000000000E+00 -0.00000000000E+00 -0.26093290541E+03  0.26093290541E+03  0.00000000000E+00 0.  1.
         25    2    1    2    0    0 -0.95094415308E+02  0.15004651181E+03 -0.95721575529E+02  0.23741708088E+03  0.12508935502E+03 0.  0.
          5    1    3    3  502    0 -0.10417456198E+03  0.15878976213E+03 -0.59845582129E+02  0.19916197936E+03  0.41800000000E+01 0. -1.
         -5    1    3    3    0  502  0.90801466734E+01 -0.87432503170E+01 -0.35875993401E+02  0.38255101519E+02  0.41800000000E+01 0. -1.
        -11    1    1    2    0    0  0.27658957103E+02 -0.12428004962E+03  0.24647632611E+01  0.12734450793E+03  0.00000000000E+00 0.  1.
         11    1    1    2    0    0  0.67435458205E+02 -0.25766462190E+02  0.88880650826E+01  0.72735474826E+02  0.00000000000E+00 0. -1.
</event>
<event>
 7    1  0.2899775E-009  0.1224182E+03  0.7561462E-02  0.1239160E+00
          1   -1    0    0  501    0  0.00000000000E+00  0.00000000000E+00  0.10531362752E+03  0.10531362752E+03  0.00000000000E+00 0. -1.
         -1   -1    0    0    0  501 -0.00000000000E+00 -0.00000000000E+00 -0.19696755255E+03  0.19696755255E+03  0.00000000000E+00 0.  1.
         25    2    1    2    0    0  0.40876512496E+02 -0.52686270839E+02  0.19272544122E+02  0.14305460028E+03  0.12508579175E+03 0.  0.
          5    1    3    3  502    0  0.79757723883E+01  0.35617000451E+02 -0.18879689253E+02  0.41304948041E+02  0.41800000000E+01 0.  1.
         -5    1    3    3    0  502  0.32900740108E+02 -0.88303271290E+02  0.38152233375E+02  0.10174965224E+03  0.41800000000E+01 0.  1.
        -11    1    1    2    0    0  0.21657455607E+02  0.46048889814E+02 -0.42587095564E+02  0.66356660141E+02  0.00000000000E+00 0. -1.
         11    1    1    2    0    0 -0.62533968103E+02  0.66373810247E+01 -0.68339373582E+02  0.92869919647E+02  0.00000000000E+00 0.  1.
</event>
<event>
 7    1  0.2899775E-009  0.1627549E+03  0.7561462E-02  0.1185621E+00
          2   -1    0    0  501    0  0.00000000000E+00  0.00000000000E+00  0.10602592452E+04  0.10602592452E+04  0.00000000000E+00 0. -1.
         -2   -1    0    0    0  501 -0.00000000000E+00 -0.00000000000E+00 -0.32331240480E+02  0.32331240480E+02  0.00000000000E+00 0.  1.
         25    2    1    2    0    0  0.26333180069E+01  0.14864818761E+03  0.64008756565E+03  0.66892658364E+03  0.12508982593E+03 0.  0.
          5    1    3    3  502    0  0.27640025351E+02  0.18908819643E+02  0.33153695257E+03  0.33325026299E+03  0.41800000000E+01 0. -1.
         -5    1    3    3    0  502 -0.25006707344E+02  0.12973936797E+03  0.30855061308E+03  0.33567632065E+03  0.41800000000E+01 0. -1.
        -11    1    1    2    0    0  0.27182614135E+02 -0.56172425081E+02  0.22999291588E+03  0.23830857560E+03  0.00000000000E+00 0. -1.
         11    1    1    2    0    0 -0.29815932142E+02 -0.92475762528E+02  0.15784752322E+03  0.18535532648E+03  0.00000000000E+00 0.  1.
</event>
<event>
 7    1  0.2899775E-009  0.6900614E+02  0.7561462E-02  0.1363506E+00
         -1   -1    0    0    0  501 -0.00000000000E+00  0.00000000000E+00  0.79451607206E+02  0.79451607206E+02  0.00000000000E+00 0.  1.
          1   -1    0    0  501    0  0.00000000000E+00 -0.00000000000E+00 -0.23590245913E+03  0.23590245913E+03  0.00000000000E+00 0. -1.
         25    2    1    2    0    0  0.11164268187E+02 -0.45201873093E+02 -0.56981783829E+01  0.13359626890E+03  0.12509054166E+03 0.  0.
          5    1    3    3  502    0  0.27085383008E+02 -0.56798610979E+02 -0.52877716323E+02  0.82299607930E+02  0.41800000000E+01 0.  1.
         -5    1    3    3    0  502 -0.15921114821E+02  0.11596737886E+02  0.47179537940E+02  0.51296660973E+02  0.41800000000E+01 0.  1.
        -11    1    1    2    0    0 -0.20857167319E+02  0.34971977485E+02 -0.15986923906E+03  0.16497343494E+03  0.00000000000E+00 0. -1.
         11    1    1    2    0    0  0.96928991320E+01  0.10229895608E+02  0.91165655141E+01  0.16784362499E+02  0.00000000000E+00 0.  1.
</event>
<event>
 7    1  0.2899775E-009  0.1210119E+03  0.7561462E-02  0.1241437E+00
         -2   -1    0    0    0  501 -0.00000000000E+00  0.00000000000E+00  0.18763441522E+02  0.18763441522E+02  0.00000000000E+00 0.  1.
          2   -1    0    0  501    0  0.00000000000E+00 -0.00000000000E+00 -0.96269521987E+03  0.96269521987E+03  0.00000000000E+00 0. -1.
         25    2    1    2    0    0  0.26132004136E+02 -0.50159508660E+02 -0.36657514279E+03  0.39143798161E+03  0.12508996836E+03 0.  0.
          5    1    3    3  502    0  0.74450575872E+01  0.35649275210E+02 -0.44896641222E+02  0.57961025685E+02  0.41800000000E+01 0.  1.
         -5    1    3    3    0  502  0.18686946549E+02 -0.85808783870E+02 -0.32167850157E+03  0.33347695592E+03  0.41800000000E+01 0.  1.
        -11    1    1    2    0    0  0.39713494031E+02  0.12716128887E+02 -0.13730904342E+03  0.14350134127E+03  0.00000000000E+00 0.  1.
         11    1    1    2    0    0 -0.65845498168E+02  0.37443379773E+02 -0.44004759214E+03  0.44651933851E+03  0.00000000000E+00 0. -1.
</event>
<event>
 7    1  0.2899775E-009  0.1587416E+03  0.7561462E-02  0.1190125E+00
         -2   -1    0    0    0  501 -0.00000000000E+00  0.00000000000E+00  0.14657213479E+02  0.14657213479E+02  0.00000000000E+00 0.  1.
          2   -1    0    0  501    0  0.00000000000E+00 -0.00000000000E+00 -0.17771110375E+04  0.17771110375E+04  0.00000000000E+00 0. -1.
         25    2    1    2    0    0  0.56821692966E+02 -0.10283855289E+03 -0.10460105652E+04  0.10599949104E+04  0.12508650976E+03 0.  0.
          5    1    3    3  502    0  0.81492272001E+02 -0.11499078122E+03 -0.93393340723E+03  0.94451731149E+03  0.41800000000E+01 0.  1.
         -5    1    3    3    0  502 -0.24670579035E+02  0.12152228337E+02 -0.11207715793E+03  0.11547759892E+03  0.41800000000E+01 0.  1.
        -11    1    1    2    0    0 -0.45584532940E+02  0.37392903845E+00 -0.19765836022E+03  0.20284702816E+03  0.00000000000E+00 0.  1.
         11    1    1    2    0    0 -0.11237160026E+02  0.10246462385E+03 -0.51878489869E+03  0.52892631246E+03  0.00000000000E+00 0. -1.
</event>
<event>
 7    1  0.2899775E-009  0.1078149E+03  0.7561462E-02  0.1264671E+00
          1   -1    0    0  501    0  0.00000000000E+00  0.00000000000E+00  0.61719622165E+03  0.61719622165E+03  0.00000000000E+00 0. -1.
         -1   -1    0    0    0  501 -0.00000000000E+00 -0.00000000000E+00 -0.21924034154E+02  0.21924034154E+02  0.00000000000E+00 0.  1.
         25    2    1    2    0    0  0.90330604742E+01 -0.40693477259E+02  0.36416824473E+03  0.38730313896E+03  0.12509059000E+03 0.  0.
          5    1    3    3  502    0 -0.53823207134E+02 -0.41118063234E+02  0.21248663519E+03  0.22305980203E+03  0.41800000000E+01 0. -1.
         -5    1    3    3    0  502  0.62856267609E+02  0.42458597517E+00  0.15168160954E+03  0.16424333693E+03  0.41800000000E+01 0. -1.
        -11    1    1    2    0    0  0.32484752628E+02  0.13729214959E+02  0.16773840848E+03  0.17140572970E+03  0.00000000000E+00 0. -1.
         11    1    1    2    0    0 -0.41517813103E+02  0.26964262300E+02  0.63365534286E+02  0.80411387139E+02  0.00000000000E+00 0.  1.
</event>
<event>
 7    1  0.2899775E-009  0.8362541E+02  0.7561462E-02  0.1319067E+00
         -2   -1    0    0    0  501 -0.00000000000E+00  0.00000000000E+00  0.14575390669E+02  0.14575390669E+02  0.00000000000E+00 0.  1.
          2   -1    0    0  501    0  0.00000000000E+00 -0.00000000000E+00 -0.13040459156E+04  0.13040459156E+04  0.00000000000E+00 0. -1.
         25    2    1    2    0    0  0.12833918544E+02 -0.16740075064E+02 -0.11020793482E+04  0.11093563045E+04  0.12509029172E+03 0.  0.
          5    1    3    3  502    0  0.34549008786E+02  0.26134173001E+02 -0.15348374608E+03  0.15953482917E+03  0.41800000000E+01 0.  1.
         -5    1    3    3    0  502 -0.21715090242E+02 -0.42874248065E+02 -0.94859560213E+03  0.94982147537E+03  0.41800000000E+01 0.  1.
        -11    1    1    2    0    0 -0.41107230528E+02 -0.26694620385E+01 -0.38189358121E+02  0.56172568955E+02  0.00000000000E+00 0. -1.
         11    1    1    2    0    0  0.28273311984E+02  0.19409537103E+02 -0.14920181864E+03  0.15309243282E+03  0.00000000000E+00 0.  1.
</event>
<event>
 7    1  0.2899775E-009  0.1299046E+03  0.7561462E-02  0.1227597E+00
          1   -1    0    0  501    0  0.00000000000E+00  0.00000000000E+00  0.90207745023E+02  0.90207745023E+02  0.00000000000E+00 0. -1.
         -1   -1    0    0    0  501 -0.00000000000E+00 -0.00000000000E+00 -0.20082743228E+03  0.20082743228E+03  0.00000000000E+00 0.  1.
         25    2    1    2    0    0  0.38653594661E+02  0.66852921577E+02 -0.39075768146E+02  0.15210935668E+03  0.12508767817E+03 0.  0.
          5    1    3    3  502    0  0.31474213039E+02 -0.30427517232E+02 -0.31671963594E+02  0.54194516044E+02  0.41800000000E+01 0.  1.
         -5    1    3    3    0  502  0.71793816218E+01  0.97280438810E+02 -0.74038045519E+01  0.97914840639E+02  0.41800000000E+01 0.  1.
        -11    1    1    2    0    0  0.14894569663E+02 -0.62749506399E+02 -0.47427107347E+02  0.80054227059E+02  0.00000000000E+00 0.  1.
         11    1    1    2    0    0 -0.53548164325E+02 -0.41034151787E+01 -0.24116811764E+02  0.58871593560E+02  0.00000000000E+00 0. -1.
</event>
<event>
 7    1  0.2899775E-009  0.1059639E+03  0.7561462E-02  0.1268232E+00
          1   -1    0    0  501    0  0.00000000000E+00  0.00000000000E+00  0.39934555515E+03  0.39934555515E+03  0.00000000000E+00 0. -1.
         -1   -1    0    0    0  501 -0.00000000000E+00 -0.00000000000E+00 -0.51457825650E+02  0.51457825650E+02  0.00000000000E+00 0.  1.
         25    2    1    2    0    0 -0.40948183320E+02  0.15799520747E+01  0.56233895649E+02  0.14314090681E+03  0.12509123956E+03 0.  0.
          5    1    3    3  502    0  0.40713347205E+02 -0.16320584121E+02  0.36316436465E+02  0.57098984791E+02  0.41800000000E+01 0.  1.
         -5    1    3    3    0  502 -0.81661530525E+02  0.17900536196E+02  0.19917459184E+02  0.86041922015E+02  0.41800000000E+01 0.  1.
        -11    1    1    2    0    0  0.26026409443E+02  0.35599832968E+02  0.22962303925E+03  0.23381929401E+03  0.00000000000E+00 0. -1.
         11    1    1    2    0    0  0.14921773878E+02 -0.37179785043E+02  0.62030794601E+02  0.73843179985E+02  0.00000000000E+00 0.  1.
</event>
<event>
 7    1  0.2899775E-009  0.1215041E+03  0.7561462E-02  0.1240636E+00
         -1   -1    0    0    0  501 -0.00000000000E+00  0.00000000000E+00  0.69871944752E+03  0.69871944752E+03  0.00000000000E+00 0.  1.
          1   -1    0    0  501    0  0.00000000000E+00 -0.00000000000E+00 -0.33031964604E+02  0.33031964604E+02  0.00000000000E+00 0. -1.
         25    2    1    2    0    0 -0.72037890110E+02 -0.70107902691E+02  0.31341092997E+03  0.35210570298E+03  0.12508972545E+03 0.  0.
          5    1    3    3  502    0 -0.14380002869E+02 -0.73563310080E+01  0.23695162318E+03  0.23753830053E+03  0.41800000000E+01 0. -1.
         -5    1    3    3    0  502 -0.57657887241E+02 -0.62751571683E+02  0.76459306784E+02  0.11456740245E+03  0.41800000000E+01 0. -1.
        -11    1    1    2    0    0  0.96283920159E+02  0.45628981798E+02  0.27967251340E+03  0.29928132587E+03  0.00000000000E+00 0.  1.
         11    1    1    2    0    0 -0.24246030049E+02  0.24478920893E+02  0.72604039545E+02  0.80364383277E+02  0.00000000000E+00 0. -1.
</event>
<event>
 7    1  0.2899775E-009  0.1025116E+03  0.7561462E-02  0.1275101E+00
          1   -1    0    0  501    0  0.00000000000E+00  0.00000000000E+00  0.13164213886E+02  0.13164213886E+02  0.00000000000E+00 0. -1.
         -1   -1    0    0    0  501 -0.00000000000E+00 -0.00000000000E+00 -0.11283357746E+04  0.11283357746E+04  0.00000000000E+00 0.  1.
         25    2    1    2    0    0  0.44623458867E+02  0.22003753200E+02 -0.74634365699E+03  0.75838623854E+03  0.12508163030E+03 0.  0.
          5    1    3    3  502    0  0.23016232417E+02  0.56115205815E+02 -0.16874486753E+03  0.17936266612E+03  0.41800000000E+01 0.  1.
         -5    1    3    3    0  502  0.21607226449E+02 -0.34111452615E+02 -0.57759878946E+03  0.57902357242E+03  0.41800000000E+01 0.  1.
        -11    1    1    2    0    0 -0.65493219789E+02  0.91554749658E+01 -0.23259511998E+03  0.24181330484E+03  0.00000000000E+00 0.  1.
         11    1    1    2    0    0  0.20869760922E+02 -0.31159228166E+02 -0.13623278377E+03  0.14130044513E+03  0.00000000000E+00 0. -1.
</event>
<event>
 7    1  0.2899775E-009  0.1200956E+03  0.7561462E-02  0.1242939E+00
         -2   -1    0    0    0  501 -0.00000000000E+00  0.00000000000E+00  0.44788597311E+02  0.44788597311E+02  0.00000000000E+00 0.  1.
          2   -1    0    0  501    0  0.00000000000E+00 -0.00000000000E+00 -0.53440239585E+03  0.53440239585E+03  0.00000000000E+00 0. -1.
         25    2    1    2    0    0  0.95411409657E+02  0.23043187133E+02 -0.35348800943E+03  0.38760021325E+03  0.12508327999E+03 0.  0.
          5    1    3    3  502    0  0.65227457927E+02 -0.10014065328E+02 -0.33060461472E+03  0.33715246765E+03  0.41800000000E+01 0. -1.
         -5    1    3    3    0  502  0.30183951730E+02  0.33057252461E+02 -0.22883394718E+02  0.50447745600E+02  0.41800000000E+01 0. -1.
        -11    1    1    2    0    0  0.14693722341E+02 -0.10982429386E+02 -0.43471736937E+02  0.47183801709E+02  0.00000000000E+00 0. -1.
         11    1    1    2    0    0 -0.11010513200E+03 -0.12060757747E+02 -0.92654052170E+02  0.14440697820E+03  0.00000000000E+00 0.  1.
</event>
<event>
 7    1  0.2899775E-009  0.9272185E+02  0.7561462E-02  0.1296391E+00
         -1   -1    0    0    0  501 -0.00000000000E+00  0.00000000000E+00  0.33475734958E+03  0.33475734958E+03  0.00000000000E+00 0.  1.
          1   -1    0    0  501    0  0.00000000000E+00 -0.00000000000E+00 -0.44303686821E+02  0.44303686821E+02  0.00000000000E+00 0. -1.
         25    2    1    2    0    0 -0.57492226921E+00  0.46941284833E+02  0.19557954460E+03  0.23686524789E+03  0.12509985067E+03 0.  0.
          5    1    3    3  502    0 -0.20528175566E+02  0.58002276188E+02  0.20327844884E+03  0.21242709384E+03  0.41800000000E+01 0.  1.
         -5    1    3    3    0  502  0.19953253297E+02 -0.11060991355E+02 -0.76989042418E+01  0.24438154051E+02  0.41800000000E+01 0.  1.
        -11    1    1    2    0    0  0.26302755092E+02 -0.64348703958E+02  0.43026975277E+02  0.81755190832E+02  0.00000000000E+00 0.  1.
         11    1    1    2    0    0 -0.25727832823E+02  0.17407419125E+02  0.51847142888E+02  0.60440597680E+02  0.00000000000E+00 0. -1.
</event>
<event>
 7    1  0.2899775E-009  0.1064385E+03  0.7561462E-02  0.1267311E+00
         -2   -1    0    0    0  501 -0.00000000000E+00  0.00000000000E+00  0.28360480075E+02  0.28360480075E+02  0.00000000000E+00 0.  1.
          2   -1    0    0  501    0  0.00000000000E+00 -0.00000000000E+00 -0.51129471836E+03  0.51129471836E+03  0.00000000000E+00 0. -1.
         25    2    1    2    0    0  0.16268251114E+02  0.91735617987E+01 -0.17846840151E+03  0.21873811165E+03  0.12508629390E+03 0.  0.
          5    1    3    3  502    0  0.31515362484E+02 -0.48320362121E+02 -0.47538351703E+02  0.74869504811E+02  0.41800000000E+01 0.  1.
         -5    1    3    3    0  502 -0.15247111370E+02  0.57493923920E+02 -0.13093004980E+03  0.14386860684E+03  0.41800000000E+01 0.  1.
        -11    1    1    2    0    0 -0.44317672892E+02  0.25248202451E+02 -0.10719840007E+03  0.11871404649E+03  0.00000000000E+00 0.  1.
         11    1    1    2    0    0  0.28049421778E+02 -0.34421764249E+02 -0.19726743672E+03  0.20220304030E+03  0.00000000000E+00 0. -1.
</event>
<event>
 7    1  0.2899775E-009  0.1307316E+03  0.7561462E-02  0.1226374E+00
          1   -1    0    0  501    0  0.00000000000E+00  0.00000000000E+00  0.48615515431E+02  0.48615515431E+02  0.00000000000E+00 0. -1.
         -1   -1    0    0    0  501 -0.00000000000E+00 -0.00000000000E+00 -0.35557567708E+03  0.35557567708E+03  0.00000000000E+00 0.  1.
         25    2    1    2    0    0  0.15648631987E+02 -0.72981769930E+02 -0.18302765077E+03  0.23390764749E+03  0.12506977326E+03 0.  0.
          5    1    3    3  502    0 -0.48108606433E+02 -0.64110430125E+02 -0.11411244412E+03  0.13951239216E+03  0.41800000000E+01 0.  1.
         -5    1    3    3    0  502  0.63757238419E+02 -0.88713398057E+01 -0.68915206654E+02  0.94395255331E+02  0.41800000000E+01 0.  1.
        -11    1    1    2    0    0  0.37699415386E+02  0.29456156307E+02 -0.47637259760E+02  0.67514587922E+02  0.00000000000E+00 0. -1.
         11    1    1    2    0    0 -0.53348047373E+02  0.43525613624E+02 -0.76295251110E+02  0.10276895709E+03  0.00000000000E+00 0.  1.
</event>
<event>
 7    1  0.2899775E-009  0.1353407E+03  0.7561462E-02  0.1219740E+00
         -1   -1    0    0    0  501 -0.00000000000E+00  0.00000000000E+00  0.59905595238E+03  0.59905595238E+03  0.00000000000E+00 0.  1.
          1   -1    0    0  501    0  0.00000000000E+00 -0.00000000000E+00 -0.57065873473E+02  0.57065873473E+02  0.00000000000E+00 0. -1.
         25    2    1    2    0    0  0.37514539906E+02  0.75225249721E+02  0.65322585202E+02  0.16424878176E+03  0.12507774890E+03 0.  0.
          5    1    3    3  502    0 -0.45420369369E+02  0.16244667686E+02  0.26889512870E+02  0.55384271090E+02  0.41800000000E+01 0. -1.
         -5    1    3    3    0  502  0.82934909275E+02  0.58980582035E+02  0.38433072332E+02  0.10886451067E+03  0.41800000000E+01 0. -1.
        -11    1    1    2    0    0 -0.63614539245E+02 -0.35424878260E+02  0.25746737368E+03  0.26756528196E+03  0.00000000000E+00 0.  1.
         11    1    1    2    0    0  0.26099999339E+02 -0.39800371461E+02  0.21920012003E+03  0.22430776213E+03  0.00000000000E+00 0. -1.
</event>
<event>
 7    1  0.2899775E-009  0.1571236E+03  0.7561462E-02  0.1191983E+00
          1   -1    0    0  501    0  0.00000000000E+00  0.00000000000E+00  0.88979617161E+03  0.88979617161E+03  0.00000000000E+00 0. -1.
         -1   -1    0    0    0  501 -0.00000000000E+00 -0.00000000000E+00 -0.31888568289E+02  0.31888568289E+02  0.00000000000E+00 0.  1.
         25    2    1    2    0    0  0.12549735177E+03  0.12575269565E+01  0.38544527218E+03  0.42422448309E+03  0.12508871864E+03 0.  0.
          5    1    3    3  502    0  0.11655887540E+03 -0.40905337291E+02  0.33849259133E+03  0.36035250081E+03  0.41800000000E+01 0. -1.
         -5    1    3    3    0  502  0.89384763762E+01  0.42162864248E+02  0.46952680845E+02  0.63871982278E+02  0.41800000000E+01 0. -1.
        -11    1    1    2    0    0 -0.45931619876E+02 -0.38088401392E+02  0.27514033120E+03  0.28153621770E+03  0.00000000000E+00 0. -1.
         11    1    1    2    0    0 -0.79565731898E+02  0.36830874436E+02  0.19732199995E+03  0.21592403911E+03  0.00000000000E+00 0.  1.
</event>
<event>
 7    1  0.2899775E-009  0.1542874E+03  0.7561462E-02  0.1195301E+00
         -3   -1    0    0    0  501 -0.00000000000E+00  0.00000000000E+00  0.50844713227E+02  0.50844713227E+02  0.00000000000E+00 0.  1.
          3   -1    0    0  501    0  0.00000000000E+00 -0.00000000000E+00 -0.51393104637E+03  0.51393104637E+03  0.00000000000E+00 0. -1.
         25    2    1    2    0    0  0.68436761637E+02  0.91704932917E+02 -0.30684657582E+03  0.35058178414E+03  0.12513744929E+03 0.  0.
          5    1    3    3  502    0 -0.21788893102E+02 -0.14988574987E+02 -0.28501502282E+02  0.39105258919E+02  0.41800000000E+01 0. -1.
         -5    1    3    3    0  502  0.90225654740E+02  0.10669350790E+03 -0.27834507354E+03  0.31147652522E+03  0.41800000000E+01 0. -1.
        -11    1    1    2    0    0 -0.69771618212E+02 -0.23253934271E+02 -0.10710118336E+03  0.12992108237E+03  0.00000000000E+00 0.  1.
         11    1    1    2    0    0  0.13348565745E+01 -0.68450998646E+02 -0.49138573957E+02  0.84272893081E+02  0.00000000000E+00 0. -1.
</event>
<event>
 7    1  0.2899775E-009  0.1689404E+03  0.7561462E-02  0.1178957E+00
         -1   -1    0    0    0  501 -0.00000000000E+00  0.00000000000E+00  0.56015061757E+02  0.56015061757E+02  0.00000000000E+00 0.  1.
          1   -1    0    0  501    0  0.00000000000E+00 -0.00000000000E+00 -0.62587082760E+03  0.62587082760E+03  0.00000000000E+00 0. -1.
         25    2    1    2    0    0  0.14038214217E+03  0.58795946080E+02 -0.29956235259E+03  0.35853583353E+03  0.12508489806E+03 0.  0.
          5    1    3    3  502    0  0.99784211465E+02  0.86210284668E+00 -0.25734825190E+03  0.27604932029E+03  0.41800000000E+01 0. -1.
         -5    1    3    3    0  502  0.40597930706E+02  0.57933843234E+02 -0.42214100690E+02  0.82486513240E+02  0.41800000000E+01 0. -1.
        -11    1    1    2    0    0 -0.11544120452E+03 -0.74752902591E+02 -0.25570135180E+03  0.29034091936E+03  0.00000000000E+00 0. -1.
         11    1    1    2    0    0 -0.24940937651E+02  0.15956956511E+02 -0.14592061451E+02  0.33009136453E+02  0.00000000000E+00 0.  1.
</event>
<event>
 7    1  0.3286173E-009  0.1865757E+03  0.7561462E-02  0.1161587E+00
          2   -1    0    0  501    0  0.00000000000E+00  0.00000000000E+00  0.94948721137E+03  0.94948721137E+03  0.00000000000E+00 0.  1.
         -2   -1    0    0    0  501 -0.00000000000E+00 -0.00000000000E+00 -0.46132635002E+02  0.46132635002E+02  0.00000000000E+00 0. -1.
         25    2    1    2    0    0  0.24956001284E+02  0.17383777297E+03  0.54670328680E+03  0.58768646305E+03  0.12509405158E+03 0.  0.
          5    1    3    3  502    0  0.15006630815E+02  0.10203388572E+03  0.13663217222E+03  0.17123649053E+03  0.41800000000E+01 0.  1.
         -5    1    3    3    0  502  0.99493704693E+01  0.71803887250E+02  0.41007111459E+03  0.41644997253E+03  0.41800000000E+01 0.  1.
        -11    1    1    2    0    0  0.30470767805E+02 -0.10280816307E+03  0.17676439747E+03  0.20674534650E+03  0.00000000000E+00 0. -1.
         11    1    1    2    0    0 -0.55426769089E+02 -0.71029609900E+02  0.17988689209E+03  0.20118803682E+03  0.00000000000E+00 0.  1.
</event>
<event>
 7    1  0.2899775E-009  0.1401839E+03  0.7561462E-02  0.1213082E+00
          2   -1    0    0  501    0  0.00000000000E+00  0.00000000000E+00  0.14492626156E+03  0.14492626156E+03  0.00000000000E+00 0. -1.
         -2   -1    0    0    0  501 -0.00000000000E+00 -0.00000000000E+00 -0.18286847267E+03  0.18286847267E+03  0.00000000000E+00 0.  1.
         25    2    1    2    0    0 -0.26836643000E+02 -0.89563742772E+02 -0.10102320251E+03  0.18599797664E+03  0.12509072883E+03 0.  0.
          5    1    3    3  502    0  0.48751582738E+02 -0.35782643954E+02 -0.57080542152E+02  0.83263287949E+02  0.41800000000E+01 0.  1.
         -5    1    3    3    0  502 -0.75588225738E+02 -0.53781098818E+02 -0.43942660361E+02  0.10273468869E+03  0.41800000000E+01 0.  1.
        -11    1    1    2    0    0  0.28008902759E+02 -0.81465149953E+01  0.12095405180E+02  0.31577890474E+02  0.00000000000E+00 0.  1.
         11    1    1    2    0    0 -0.11722597589E+01  0.97710257767E+02  0.50985586224E+02  0.11021886712E+03  0.00000000000E+00 0. -1.
</event>
<event>
 7    1  0.2899775E-009  0.1972633E+03  0.7561462E-02  0.1152069E+00
         -1   -1    0    0    0  501 -0.00000000000E+00  0.00000000000E+00  0.35720618408E+03  0.35720618408E+03  0.00000000000E+00 0.  1.
          1   -1    0    0  501    0  0.00000000000E+00 -0.00000000000E+00 -0.12342407348E+03  0.12342407348E+03  0.00000000000E+00 0. -1.
         25    2    1    2    0    0 -0.14885933292E+03 -0.96952105440E+02  0.91193831962E+02  0.23563631997E+03  0.12509735631E+03 0.  0.
          5    1    3    3  502    0 -0.12626284156E+03 -0.11734935983E+03  0.41726429560E+02  0.17740277544E+03  0.41800000000E+01 0.  1.
         -5    1    3    3    0  502 -0.22596491368E+02  0.20397254387E+02  0.49467402402E+02  0.58233544534E+02  0.41800000000E+01 0.  1.
        -11    1    1    2    0    0  0.36956696516E+02 -0.81597541595E+01  0.38073927315E+01  0.38037813354E+02  0.00000000000E+00 0. -1.
         11    1    1    2    0    0  0.11190263641E+03  0.10511185960E+03  0.13878088590E+03  0.20695612423E+03  0.00000000000E+00 0.  1.
</event>
<event>
 7    1  0.2899775E-009  0.1112358E+03  0.7561462E-02  0.1258298E+00
         -2   -1    0    0    0  501 -0.00000000000E+00  0.00000000000E+00  0.26892136905E+02  0.26892136905E+02  0.00000000000E+00 0.  1.
          2   -1    0    0  501    0  0.00000000000E+00 -0.00000000000E+00 -0.15848335390E+04  0.15848335390E+04  0.00000000000E+00 0. -1.
         25    2    1    2    0    0 -0.13154074225E+02  0.79814073041E+02 -0.14321298347E+04  0.14398564151E+04  0.12508923566E+03 0.  0.
          5    1    3    3  502    0  0.27295954055E+02  0.18982654542E+02 -0.10638610369E+04  0.10643886454E+04  0.41800000000E+01 0.  1.
         -5    1    3    3    0  502 -0.40450028280E+02  0.60831418499E+02 -0.36826879776E+03  0.37546776968E+03  0.41800000000E+01 0.  1.
        -11    1    1    2    0    0  0.10905049790E+02  0.16320976290E+02 -0.12576679636E+02  0.23312384019E+02  0.00000000000E+00 0.  1.
         11    1    1    2    0    0  0.22490244346E+01 -0.96135049331E+02 -0.11323488776E+03  0.14855687674E+03  0.00000000000E+00 0. -1.
</event>
<event>
 7    1  0.2899775E-009  0.1010668E+03  0.7561462E-02  0.1278068E+00
          1   -1    0    0  501    0  0.00000000000E+00  0.00000000000E+00  0.12229621690E+03  0.12229621690E+03  0.00000000000E+00 0. -1.
         -1   -1    0    0    0  501 -0.00000000000E+00 -0.00000000000E+00 -0.15439752039E+03  0.15439752039E+03  0.00000000000E+00 0.  1.
         25    2    1    2    0    0 -0.56941841771E+02 -0.11419150641E+01  0.45718270076E+02  0.14484897015E+03  0.12508951443E+03 0.  0.
          5    1    3    3  502    0 -0.80106909209E+02  0.12556745758E+02 -0.10996341394E+02  0.81934002045E+02  0.41800000000E+01 0.  1.
         -5    1    3    3    0  502  0.23165067438E+02 -0.13698660822E+02  0.56714611470E+02  0.62914968107E+02  0.41800000000E+01 0.  1.
        -11    1    1    2    0    0 -0.12328659580E+02  0.18557677875E+02  0.46337719697E+01  0.22756429813E+02  0.00000000000E+00 0. -1.
         11    1    1    2    0    0  0.69270501351E+02 -0.17415762811E+02 -0.82453345534E+02  0.10908833733E+03  0.00000000000E+00 0.  1.
</event>
<event>
 7    1  0.2899775E-009  0.1308836E+03  0.7561462E-02  0.1226150E+00
          2   -1    0    0  501    0  0.00000000000E+00  0.00000000000E+00  0.19206146641E+03  0.19206146641E+03  0.00000000000E+00 0.  1.
         -2   -1    0    0    0  501 -0.00000000000E+00 -0.00000000000E+00 -0.12700875946E+03  0.12700875946E+03  0.00000000000E+00 0. -1.
         25    2    1    2    0    0  0.92840812477E+02  0.60421161435E+02  0.48225757870E+02  0.17391400880E+03  0.12510086140E+03 0.  0.
          5    1    3    3  502    0  0.34233707768E+02  0.73882911651E+02  0.72330632591E+02  0.10899460625E+03  0.41800000000E+01 0.  1.
         -5    1    3    3    0  502  0.58607104709E+02 -0.13461750216E+02 -0.24104874721E+02  0.64919402543E+02  0.41800000000E+01 0.  1.
        -11    1    1    2    0    0 -0.42169120423E+02 -0.54540348810E+02 -0.30670163073E+02  0.75455571487E+02  0.00000000000E+00 0. -1.
         11    1    1    2    0    0 -0.50671692054E+02 -0.58808126259E+01  0.47497112150E+02  0.69700645588E+02  0.00000000000E+00 0.  1.
</event>
<event>
 7    1  0.2899775E-009  0.8690981E+02  0.7561462E-02  0.1310512E+00
          2   -1    0    0  501    0  0.00000000000E+00  0.00000000000E+00  0.36753442113E+03  0.36753442113E+03  0.00000000000E+00 0. -1.
         -2   -1    0    0    0  501 -0.00000000000E+00 -0.00000000000E+00 -0.34410870100E+02  0.34410870100E+02  0.00000000000E+00 0.  1.
         25    2    1    2    0    0 -0.98435444814E+01  0.65838611544E+01  0.16100456853E+03  0.20423542232E+03  0.12509753813E+03 0.  0.
          5    1    3    3  502    0  0.63624165724E+01 -0.33870177621E+02  0.15640931358E+03  0.16021552688E+03  0.41800000000E+01 0.  1.
         -5    1    3    3    0  502 -0.16205961054E+02  0.40454038775E+02  0.45952549480E+01  0.44019895444E+02  0.41800000000E+01 0.  1.
        -11    1    1    2    0    0  0.53490856247E+01  0.44109606727E+02  0.10015661291E+03  0.10957014754E+03  0.00000000000E+00 0. -1.
         11    1    1    2    0    0  0.44944588567E+01 -0.50693467881E+02  0.71962369595E+02  0.88139721374E+02  0.00000000000E+00 0.  1.
</event>
<event>
 7    1  0.2899775E-009  0.2200778E+03  0.7561462E-02  0.1133825E+00
          2   -1    0    0  501    0  0.00000000000E+00  0.00000000000E+00  0.10949035572E+04  0.10949035572E+04  0.00000000000E+00 0. -1.
         -2   -1    0    0    0  501 -0.00000000000E+00 -0.00000000000E+00 -0.53609385052E+02  0.53609385052E+02  0.00000000000E+00 0.  1.
         25    2    1    2    0    0  0.12174687162E+03  0.15418799878E+03  0.32353644352E+03  0.39864762187E+03  0.12509139227E+03 0.  0.
          5    1    3    3  502    0 -0.14743835552E+02  0.54729167438E+02  0.12920152759E+03  0.14114945833E+03  0.41800000000E+01 0.  1.
         -5    1    3    3    0  502  0.13649070717E+03  0.99458831344E+02  0.19433491593E+03  0.25749816354E+03  0.41800000000E+01 0.  1.
        -11    1    1    2    0    0 -0.16482777870E+02 -0.89126709899E+02  0.24666609428E+03  0.26279157987E+03  0.00000000000E+00 0.  1.
         11    1    1    2    0    0 -0.10526409375E+03 -0.65061288884E+02  0.47109163434E+03  0.48707374051E+03  0.00000000000E+00 0. -1.
</event>
<event>
 7    1  0.2899775E-009  0.1038037E+03  0.7561462E-02  0.1272495E+00
          2   -1    0    0  501    0  0.00000000000E+00  0.00000000000E+00  0.89290149692E+02  0.89290149692E+02  0.00000000000E+00 0. -1.
         -2   -1    0    0    0  501 -0.00000000000E+00 -0.00000000000E+00 -0.16951990693E+03  0.16951990693E+03  0.00000000000E+00 0.  1.
         25    2    1    2    0    0  0.40176025187E+02  0.24522735951E+02 -0.80271426483E+02  0.15590632005E+03  0.12509117133E+03 0.  0.
          5    1    3    3  502    0  0.44785852696E+02  0.71701602008E+02 -0.40242515419E+02  0.93722061327E+02  0.41800000000E+01 0. -1.
         -5    1    3    3    0  502 -0.46098275085E+01 -0.47178866057E+02 -0.40028911064E+02  0.62184258724E+02  0.41800000000E+01 0. -1.
        -11    1    1    2    0    0 -0.55428915394E+02 -0.23128851941E+02 -0.31514577855E+02  0.67826816756E+02  0.00000000000E+00 0.  1.
         11    1    1    2    0    0  0.15252890207E+02 -0.13938840096E+01  0.31556247103E+02  0.35076919812E+02  0.00000000000E+00 0. -1.
</event>
<event>
 7    1  0.2899775E-009  0.1328006E+03  0.7561462E-02  0.1223358E+00
         -2   -1    0    0    0  501 -0.00000000000E+00  0.00000000000E+00  0.41028405420E+03  0.41028405420E+03  0.00000000000E+00 0.  1.
          2   -1    0    0  501    0  0.00000000000E+00 -0.00000000000E+00 -0.55600369153E+02  0.55600369153E+02  0.00000000000E+00 0. -1.
         25    2    1    2    0    0  0.63065613649E+02 -0.57050401997E+02  0.28520503337E+03  0.32283385284E+03  0.12509102882E+03 0.  0.
          5    1    3    3  502    0  0.86351859783E+02 -0.89009222050E+01  0.11356292499E+03  0.14300307842E+03  0.41800000000E+01 0.  1.
         -5    1    3    3    0  502 -0.23286246134E+02 -0.48149479793E+02  0.17164210838E+03  0.17983077443E+03  0.41800000000E+01 0.  1.
        -11    1    1    2    0    0 -0.87167970093E+02  0.44748492212E+02  0.54714874353E+02  0.11222477463E+03  0.00000000000E+00 0.  1.
         11    1    1    2    0    0  0.24102356444E+02  0.12301909786E+02  0.14763777323E+02  0.30825795876E+02  0.00000000000E+00 0. -1.
</event>
<event>
 7    1  0.2899775E-009  0.1463840E+03  0.7561462E-02  0.1204988E+00
         -1   -1    0    0    0  501 -0.00000000000E+00  0.00000000000E+00  0.97323093224E+01  0.97323093224E+01  0.00000000000E+00 0.  1.
          1   -1    0    0  501    0  0.00000000000E+00 -0.00000000000E+00 -0.26898384785E+04  0.26898384785E+04  0.00000000000E+00 0. -1.
         25    2    1    2    0    0 -0.18549995936E+02  0.99600295027E+02 -0.20093575911E+04  0.20157951975E+04  0.12509207984E+03 0.  0.
          5    1    3    3  502    0 -0.71405263978E+02  0.70462253525E+02 -0.12822164022E+04  0.12861415223E+04  0.41800000000E+01 0.  1.
         -5    1    3    3    0  502  0.52855268042E+02  0.29138041502E+02 -0.72714118884E+03  0.72965367520E+03  0.41800000000E+01 0.  1.
        -11    1    1    2    0    0  0.39092157874E+01 -0.11236919667E+03 -0.59795794154E+03  0.60843719329E+03  0.00000000000E+00 0. -1.
         11    1    1    2    0    0  0.14640780148E+02  0.12768901641E+02 -0.72790636601E+02  0.75338397044E+02  0.00000000000E+00 0.  1.
</event>
<event>
 7    1  0.2899775E-009  0.1147155E+03  0.7561462E-02  0.1252078E+00
          2   -1    0    0  501    0  0.00000000000E+00  0.00000000000E+00  0.66475482411E+02  0.66475482411E+02  0.00000000000E+00 0. -1.
         -2   -1    0    0    0  501 -0.00000000000E+00 -0.00000000000E+00 -0.21416523390E+03  0.21416523390E+03  0.00000000000E+00 0.  1.
         25    2    1    2    0    0  0.26411145063E+02  0.23269674554E+02 -0.12112341732E+03  0.17763456141E+03  0.12507649198E+03 0.  0.
          5    1    3    3  502    0  0.72700365886E+02  0.36697783826E+02 -0.74852954507E+02  0.11069104632E+03  0.41800000000E+01 0. -1.
         -5    1    3    3    0  502 -0.46289220822E+02 -0.13428109272E+02 -0.46270462811E+02  0.66943515083E+02  0.41800000000E+01 0. -1.
        -11    1    1    2    0    0  0.21844446072E+02 -0.42322195062E+02 -0.11867137951E+02  0.49083367674E+02  0.00000000000E+00 0.  1.
         11    1    1    2    0    0 -0.48255591135E+02  0.19052520508E+02 -0.14699196225E+02  0.53922787235E+02  0.00000000000E+00 0. -1.
</event>
<event>
 7    1  0.2899775E-009  0.1078497E+03  0.7561462E-02  0.1264604E+00
         -1   -1    0    0    0  501 -0.00000000000E+00  0.00000000000E+00  0.52390052682E+02  0.52390052682E+02  0.00000000000E+00 0.  1.
          1   -1    0    0  501    0  0.00000000000E+00 -0.00000000000E+00 -0.30492952978E+03  0.30492952978E+03  0.00000000000E+00 0. -1.
         25    2    1    2    0    0  0.14612975736E+02  0.61571188410E+02 -0.16687083548E+03  0.21793528561E+03  0.12508142418E+03 0.  0.
          5    1    3    3  502    0 -0.27746412832E+01 -0.27061712590E+02  0.69399104493E+00  0.27531599048E+02  0.41800000000E+01 0. -1.
         -5    1    3    3    0  502  0.17387617019E+02  0.88632901000E+02 -0.16756482653E+03  0.19040368656E+03  0.41800000000E+01 0. -1.
        -11    1    1    2    0    0  0.10454139264E+02 -0.70406939720E+02 -0.29128128509E+02  0.76908218410E+02  0.00000000000E+00 0.  1.
         11    1    1    2    0    0 -0.25067115000E+02  0.88357513106E+01 -0.56540513104E+02  0.62476078444E+02  0.00000000000E+00 0. -1.
</event>
<event>
 6    1  0.2899775E-009  0.1003685E+03  0.7561462E-02  0.1279523E+00
          1   -1    0    0  501    0  0.00000000000E+00  0.00000000000E+00  0.34661877351E+03  0.34661877351E+03  0.00000000000E+00 0. -1.
         -1   -1    0    0    0  501 -0.00000000000E+00 -0.00000000000E+00 -0.64422613221E+02  0.64422613221E+02  0.00000000000E+00 0.  1.
          5    1    1    2  502    0 -0.27413130010E+02  0.20608435578E+02  0.83313922131E+02  0.90193510491E+02  0.41800000000E+01 0. -1.
         -5    1    1    2    0  502  0.18931135354E+02  0.50364419256E+02 -0.32116485479E+02  0.62800506784E+02  0.41800000000E+01 0. -1.
        -11    1    1    2    0    0 -0.23008597062E+02 -0.76820173021E+02  0.18835324846E+03  0.20471365545E+03  0.00000000000E+00 0.  1.
         11    1    1    2    0    0  0.31490591717E+02  0.58473181877E+01  0.42645475175E+02  0.53333714005E+02  0.00000000000E+00 0. -1.
</event>
<event>
 7    1  0.2899775E-009  0.1301879E+03  0.7561462E-02  0.1227177E+00
          2   -1    0    0  501    0  0.00000000000E+00  0.00000000000E+00  0.36618723155E+03  0.36618723155E+03  0.00000000000E+00 0. -1.
         -2   -1    0    0    0  501 -0.00000000000E+00 -0.00000000000E+00 -0.54007676909E+02  0.54007676909E+02  0.00000000000E+00 0.  1.
         25    2    1    2    0    0  0.84827207495E+02 -0.86704103184E+01  0.17231156722E+03  0.22937018161E+03  0.12509425595E+03 0.  0.
          5    1    3    3  502    0  0.22573826499E+02 -0.63854663875E+02  0.83792617744E+02  0.10782240458E+03  0.41800000000E+01 0.  1.
         -5    1    3    3    0  502  0.62253380996E+02  0.55184253557E+02  0.88518949471E+02  0.12154777703E+03  0.41800000000E+01 0.  1.
        -11    1    1    2    0    0 -0.60905516312E+02 -0.26718098425E+02  0.13140762442E+03  0.14727967428E+03  0.00000000000E+00 0. -1.
         11    1    1    2    0    0 -0.23921691183E+02  0.35388508744E+02  0.84603629983E+01  0.43545052557E+02  0.00000000000E+00 0.  1.
</event>
<event>
 7    1  0.2899775E-009  0.1462551E+03  0.7561462E-02  0.1205152E+00
          3   -1    0    0  501    0  0.00000000000E+00  0.00000000000E+00  0.27292366481E+03  0.27292366481E+03  0.00000000000E+00 0. -1.
         -3   -1    0    0    0  501 -0.00000000000E+00 -0.00000000000E+00 -0.15999799144E+03  0.15999799144E+03  0.00000000000E+00 0.  1.
         25    2    1    2    0    0  0.12142796797E+03  0.54094751627E+02 -0.64092250616E+02  0.19345929293E+03  0.12509071858E+03 0.  0.
          5    1    3    3  502    0  0.11308060791E+03  0.11828668474E+02  0.27712885059E+01  0.11380814436E+03  0.41800000000E+01 0.  1.
         -5    1    3    3    0  502  0.83473600647E+01  0.42266083153E+02 -0.66863539122E+02  0.79651148573E+02  0.41800000000E+01 0.  1.
        -11    1    1    2    0    0 -0.72450176093E+02 -0.45970543509E+02  0.41851513677E+02  0.95466580977E+02  0.00000000000E+00 0.  1.
         11    1    1    2    0    0 -0.48977791881E+02 -0.81242081174E+01  0.13516641031E+03  0.14399578234E+03  0.00000000000E+00 0. -1.
</event>
<event>
 7    1  0.2899775E-009  0.9260781E+02  0.7561462E-02  0.1296657E+00
          2   -1    0    0  501    0  0.00000000000E+00  0.00000000000E+00  0.40719980984E+03  0.40719980984E+03  0.00000000000E+00 0.  1.
         -2   -1    0    0    0  501 -0.00000000000E+00 -0.00000000000E+00 -0.89215596444E+02  0.89215596444E+02  0.00000000000E+00 0. -1.
         25    2    1    2    0    0  0.61916345532E+02  0.64478209851E+02  0.33528622130E+03  0.36885307907E+03  0.12507865668E+03 0.  0.
          5    1    3    3  502    0  0.20808167064E+02  0.60846104651E+01 -0.37127674275E+01  0.22388821833E+02  0.41800000000E+01 0. -1.
         -5    1    3    3    0  502  0.41108178467E+02  0.58393599386E+02  0.33899898873E+03  0.34646425724E+03  0.41800000000E+01 0. -1.
        -11    1    1    2    0    0 -0.57890963803E+02 -0.49740456434E+02  0.26796736849E+02  0.80892161561E+02  0.00000000000E+00 0.  1.
         11    1    1    2    0    0 -0.40253817289E+01 -0.14737753417E+02 -0.44098744748E+02  0.46670165654E+02  0.00000000000E+00 0. -1.
</event>
<event>
 7    1  0.2899775E-009  0.1316391E+03  0.7561462E-02  0.1225044E+00
         -2   -1    0    0    0  501 -0.00000000000E+00  0.00000000000E+00  0.10843071047E+03  0.10843071047E+03  0.00000000000E+00 0.  1.
          2   -1    0    0  501    0  0.00000000000E+00 -0.00000000000E+00 -0.17294478478E+03  0.17294478478E+03  0.00000000000E+00 0. -1.
         25    2    1    2    0    0 -0.73863749707E+01  0.81652250139E+02 -0.20524485345E+02  0.15096182692E+03  0.12508625104E+03 0.  0.
          5    1    3    3  502    0  0.11295931972E+02 -0.31066344312E+02  0.53276541505E+01  0.33742734430E+02  0.41800000000E+01 0.  1.
         -5    1    3    3    0  502 -0.18682306943E+02  0.11271859445E+03 -0.25852139496E+02  0.11721909249E+03  0.41800000000E+01 0.  1.
        -11    1    1    2    0    0 -0.27502735539E+02 -0.75297110831E+02 -0.91211655593E+01  0.80679929491E+02  0.00000000000E+00 0.  1.
         11    1    1    2    0    0  0.34889110510E+02 -0.63551393081E+01 -0.34868423406E+02  0.49733738836E+02  0.00000000000E+00 0. -1.
</event>
<event>
 7    1  0.3466259E-009  0.2252896E+03  0.7561462E-02  0.1130000E+00
          1   -1    0    0  501    0  0.00000000000E+00  0.00000000000E+00  0.14469404771E+04  0.14469404771E+04  0.00000000000E+00 0. -1.
         -1   -1    0    0    0  501 -0.00000000000E+00 -0.00000000000E+00 -0.42151920799E+02  0.42151920799E+02  0.00000000000E+00 0.  1.
         25    2    1    2    0    0 -0.17537889480E+03  0.13402662395E+03  0.66836882608E+03  0.71490236472E+03  0.12509041026E+03 0.  0.
          5    1    3    3  502    0 -0.10198855384E+03  0.79964447485E+02  0.55199369021E+03  0.56701894537E+03  0.41800000000E+01 0.  1.
         -5    1    3    3    0  502 -0.73390340956E+02  0.54062176465E+02  0.11637513586E+03  0.14788341934E+03  0.41800000000E+01 0.  1.
        -11    1    1    2    0    0  0.50545173655E+02 -0.77739987035E+02  0.19812391387E+03  0.21874964094E+03  0.00000000000E+00 0.  1.
         11    1    1    2    0    0  0.12483372114E+03 -0.56286636915E+02  0.53829581635E+03  0.55544039223E+03  0.00000000000E+00 0. -1.
</event>
<event>
 7    1  0.2899775E-009  0.9376769E+02  0.7561462E-02  0.1293976E+00
          2   -1    0    0  501    0  0.00000000000E+00  0.00000000000E+00  0.20274567456E+03  0.20274567456E+03  0.00000000000E+00 0. -1.
         -2   -1    0    0    0  501 -0.00000000000E+00 -0.00000000000E+00 -0.76704196433E+02  0.76704196433E+02  0.00000000000E+00 0.  1.
         25    2    1    2    0    0  0.53181746988E+01 -0.22260153852E+02  0.73458854156E+01  0.12738109809E+03  0.12509270437E+03 0.  0.
          5    1    3    3  502    0 -0.45414534726E+02  0.50157116171E+01 -0.33358304888E+02  0.56726415650E+02  0.41800000000E+01 0.  1.
         -5    1    3    3    0  502  0.50732709425E+02 -0.27275865469E+02  0.40704190304E+02  0.70654682442E+02  0.41800000000E+01 0.  1.
        -11    1    1    2    0    0  0.17182604120E+02 -0.25706509981E+02  0.81956149565E+02  0.87594959851E+02  0.00000000000E+00 0. -1.
         11    1    1    2    0    0 -0.22500778819E+02  0.47966663834E+02  0.36739443151E+02  0.64473813055E+02  0.00000000000E+00 0.  1.
</event>
<event>
 7    1  0.2899775E-009  0.1150825E+03  0.7561462E-02  0.1251437E+00
         -2   -1    0    0    0  501 -0.00000000000E+00  0.00000000000E+00  0.13697024738E+04  0.13697024738E+04  0.00000000000E+00 0.  1.
          2   -1    0    0  501    0  0.00000000000E+00 -0.00000000000E+00 -0.16837104861E+02  0.16837104861E+02  0.00000000000E+00 0. -1.
         25    2    1    2    0    0 -0.28726976011E+01  0.88871705183E+02  0.99647977513E+03  0.10082288685E+04  0.12508827545E+03 0.  0.
          5    1    3    3  502    0 -0.34768296448E+02  0.57357934995E+02  0.89109844896E+03  0.89362894161E+03  0.41800000000E+01 0.  1.
         -5    1    3    3    0  502  0.31895598847E+02  0.31513770188E+02  0.10538132618E+03  0.11459992690E+03  0.41800000000E+01 0.  1.
        -11    1    1    2    0    0  0.29202593651E+02 -0.45028925440E+01  0.16339300410E+03  0.16604319109E+03  0.00000000000E+00 0. -1.
         11    1    1    2    0    0 -0.26329896050E+02 -0.84368812639E+02  0.19299258970E+03  0.21226751906E+03  0.00000000000E+00 0.  1.
</event>
<event>
 7    1  0.2899775E-009  0.1274642E+03  0.7561462E-02  0.1231268E+00
         -3   -1    0    0    0  501 -0.00000000000E+00  0.00000000000E+00  0.74460667235E+02  0.74460667235E+02  0.00000000000E+00 0.  1.
          3   -1    0    0  501    0  0.00000000000E+00 -0.00000000000E+00 -0.39506668939E+03  0.39506668939E+03  0.00000000000E+00 0. -1.
         25    2    1    2    0    0  0.10626638558E+03 -0.14927114324E+02 -0.63962819480E+02  0.17678889534E+03  0.12509079820E+03 0.  0.
          5    1    3    3  502    0  0.63515026962E+02  0.42029687646E+02 -0.72134727338E+02  0.10498354434E+03  0.41800000000E+01 0.  1.
         -5    1    3    3    0  502  0.42751358622E+02 -0.56956801970E+02  0.81719078581E+01  0.71805351004E+02  0.41800000000E+01 0.  1.
        -11    1    1    2    0    0 -0.36624418052E+02  0.55441137862E+01 -0.13147695973E+02  0.39305815152E+02  0.00000000000E+00 0.  1.
         11    1    1    2    0    0 -0.69641967532E+02  0.93830005379E+01 -0.24349550670E+03  0.25343264613E+03  0.00000000000E+00 0. -1.
</event>
<event>
 7    1  0.2899775E-009  0.1710837E+03  0.7561462E-02  0.1176722E+00
         -2   -1    0    0    0  501 -0.00000000000E+00  0.00000000000E+00  0.11914135414E+03  0.11914135414E+03  0.00000000000E+00 0. -1.
          2   -1    0    0  501    0  0.00000000000E+00 -0.00000000000E+00 -0.41251562885E+03  0.41251562885E+03  0.00000000000E+00 0.  1.
         25    2    1    2    0    0 -0.87108808348E+02  0.62848307553E+02 -0.22779898042E+03  0.28120982691E+03  0.12509491204E+03 0.  0.
          5    1    3    3  502    0 -0.87862366871E+01  0.82048150401E+02 -0.96193114305E+02  0.12680569616E+03  0.41800000000E+01 0. -1.
         -5    1    3    3    0  502 -0.78322571661E+02 -0.19199842848E+02 -0.13160586611E+03  0.15440413075E+03  0.41800000000E+01 0. -1.
        -11    1    1    2    0    0  0.10859281544E+03 -0.92176600333E+02 -0.11914910723E+03  0.18570254432E+03  0.00000000000E+00 0.  1.
         11    1    1    2    0    0 -0.21484007093E+02  0.29328292780E+02  0.53573812937E+02  0.64744611751E+02  0.00000000000E+00 0. -1.
</event>
<event>
 7    1  0.2899775E-009  0.1205360E+03  0.7561462E-02  0.1242215E+00
          1   -1    0    0  501    0  0.00000000000E+00  0.00000000000E+00  0.46404925024E+02  0.46404925024E+02  0.00000000000E+00 0. -1.
         -1   -1    0    0    0  501 -0.00000000000E+00 -0.00000000000E+00 -0.32167513447E+03  0.32167513447E+03  0.00000000000E+00 0.  1.
         25    2    1    2    0    0 -0.37288432057E+02  0.42028507732E+02 -0.15303974354E+03  0.20548946305E+03  0.12509170115E+03 0.  0.
          5    1    3    3  502    0  0.29759296309E+02  0.60183401063E+02 -0.81713385620E+02  0.10584048030E+03  0.41800000000E+01 0. -1.
         -5    1    3    3    0  502 -0.67047728365E+02 -0.18154893331E+02 -0.71326357915E+02  0.99648982756E+02  0.41800000000E+01 0. -1.
        -11    1    1    2    0    0 -0.29035340092E+02 -0.12285099856E+02 -0.55947490343E+02  0.64219127434E+02  0.00000000000E+00 0.  1.
         11    1    1    2    0    0  0.66323772148E+02 -0.29743407876E+02 -0.66282975566E+02  0.98371469004E+02  0.00000000000E+00 0. -1.
</event>
<event>
 7    1  0.2899775E-009  0.1095717E+03  0.7561462E-02  0.1261365E+00
          2   -1    0    0  501    0  0.00000000000E+00  0.00000000000E+00  0.24501298063E+03  0.24501298063E+03  0.00000000000E+00 0. -1.
         -2   -1    0    0    0  501 -0.00000000000E+00 -0.00000000000E+00 -0.57356733967E+02  0.57356733967E+02  0.00000000000E+00 0.  1.
         25    2    1    2    0    0 -0.49821804550E+02 -0.10201543706E+02  0.12494754917E+03  0.18397485119E+03  0.12509425296E+03 0.  0.
          5    1    3    3  502    0 -0.29406226412E+02  0.55434674077E+02  0.39641857127E+02  0.74341633546E+02  0.41800000000E+01 0. -1.
         -5    1    3    3    0  502 -0.20415578139E+02 -0.65636217784E+02  0.85305692044E+02  0.10963321764E+03  0.41800000000E+01 0. -1.
        -11    1    1    2    0    0  0.45681618214E+02  0.37915426946E+02  0.12160325160E+02  0.60599202562E+02  0.00000000000E+00 0.  1.
         11    1    1    2    0    0  0.41401863366E+01 -0.27713883240E+02  0.50548372337E+02  0.57795660850E+02  0.00000000000E+00 0. -1.
</event>
<event>
 7    1  0.2899775E-009  0.1993946E+03  0.7561462E-02  0.1150251E+00
          2   -1    0    0  501    0  0.00000000000E+00  0.00000000000E+00  0.15817487067E+04  0.15817487067E+04  0.00000000000E+00 0. -1.
         -2   -1    0    0    0  501 -0.00000000000E+00 -0.00000000000E+00 -0.25469278421E+02  0.25469278421E+02  0.00000000000E+00 0.  1.
         25    2    1    2    0    0  0.95137807043E+02  0.13865272588E+03  0.82983382647E+03  0.85589082392E+03  0.12509653144E+03 0.  0.
          5    1    3    3  502    0  0.11510094669E+03  0.14665600929E+03  0.71059114208E+03  0.73465192887E+03  0.41800000000E+01 0.  1.
         -5    1    3    3    0  502 -0.19963139652E+02 -0.80032834068E+01  0.11924268439E+03  0.12123889504E+03  0.41800000000E+01 0.  1.
        -11    1    1    2    0    0 -0.19421752040E+02 -0.10630666437E+03  0.45573287417E+03  0.46837032777E+03  0.00000000000E+00 0.  1.
         11    1    1    2    0    0 -0.75716055003E+02 -0.32346061510E+02  0.27071272765E+03  0.28295683344E+03  0.00000000000E+00 0. -1.
</event>
<event>
 7    1  0.2899775E-009  0.1101214E+03  0.7561462E-02  0.1260345E+00
         -1   -1    0    0    0  501 -0.00000000000E+00  0.00000000000E+00  0.12875019297E+03  0.12875019297E+03  0.00000000000E+00 0.  1.
          1   -1    0    0  501    0  0.00000000000E+00 -0.00000000000E+00 -0.14114111477E+03  0.14114111477E+03  0.00000000000E+00 0. -1.
         25    2    1    2    0    0 -0.31568716683E+02  0.11413092882E+02 -0.82600267684E+02  0.15361719733E+03  0.12509435052E+03 0.  0.
          5    1    3    3  502    0 -0.72189420805E+02  0.35309604332E+02 -0.63846536173E+02  0.10272260324E+03  0.41800000000E+01 0. -1.
         -5    1    3    3    0  502  0.40620704122E+02 -0.23896511450E+02 -0.18753731511E+02  0.50894594099E+02  0.41800000000E+01 0. -1.
        -11    1    1    2    0    0  0.25056484866E+02  0.36407523543E+02  0.37616873805E+02  0.58037611936E+02  0.00000000000E+00 0.  1.
         11    1    1    2    0    0  0.65122318169E+01 -0.47820616424E+02  0.32592472082E+02  0.58236498477E+02  0.00000000000E+00 0. -1.
</event>
<event>
 7    1  0.2899775E-009  0.2132354E+03  0.7561462E-02  0.1139029E+00
          1   -1    0    0  501    0  0.00000000000E+00  0.00000000000E+00  0.23560197972E+04  0.23560197972E+04  0.00000000000E+00 0. -1.
         -1   -1    0    0    0  501 -0.00000000000E+00 -0.00000000000E+00 -0.24168737614E+02  0.24168737614E+02  0.00000000000E+00 0.  1.
         25    2    1    2    0    0 -0.13764907422E+03  0.14950548984E+03  0.15079632452E+04  0.15267284130E+04  0.12508932437E+03 0.  0.
          5    1    3    3  502    0 -0.34079584769E+02  0.87097577119E+02  0.34462028818E+03  0.35711065717E+03  0.41800000000E+01 0.  1.
         -5    1    3    3    0  502 -0.10356948945E+03  0.62407912721E+02  0.11633429570E+04  0.11696177558E+04  0.41800000000E+01 0.  1.
        -11    1    1    2    0    0  0.12713183308E+03 -0.10140188912E+03  0.72471660454E+03  0.74273750612E+03  0.00000000000E+00 0. -1.
         11    1    1    2    0    0  0.10517241143E+02 -0.48103600722E+02  0.99171209845E+02  0.11072261569E+03  0.00000000000E+00 0.  1.
</event>
<event>
 7    1  0.2899775E-009  0.2098020E+03  0.7561462E-02  0.1141723E+00
         -1   -1    0    0    0  501 -0.00000000000E+00  0.00000000000E+00  0.11986828268E+03  0.11986828268E+03  0.00000000000E+00 0.  1.
          1   -1    0    0  501    0  0.00000000000E+00 -0.00000000000E+00 -0.44753819052E+03  0.44753819052E+03  0.00000000000E+00 0. -1.
         25    2    1    2    0    0 -0.10275665360E+02  0.20194526345E+03 -0.13751171766E+03  0.27466900245E+03  0.12508441023E+03 0.  0.
          5    1    3    3  502    0 -0.12413126857E+02  0.18883876088E+03 -0.16024445775E+03  0.24801193916E+03  0.41800000000E+01 0.  1.
         -5    1    3    3    0  502  0.21374614973E+01  0.13106502572E+02  0.22732740085E+02  0.26657063288E+02  0.41800000000E+01 0.  1.
        -11    1    1    2    0    0 -0.32693884168E+02 -0.63392845500E+02 -0.96759238667E+02  0.12020770853E+03  0.00000000000E+00 0. -1.
         11    1    1    2    0    0  0.42969549528E+02 -0.13855241795E+03 -0.93398951514E+02  0.17252976222E+03  0.00000000000E+00 0.  1.
</event>
<event>
 7    1  0.2899775E-009  0.9065976E+02  0.7561462E-02  0.1301262E+00
         -2   -1    0    0    0  501 -0.00000000000E+00  0.00000000000E+00  0.42057927739E+02  0.42057927739E+02  0.00000000000E+00 0.  1.
          2   -1    0    0  501    0  0.00000000000E+00 -0.00000000000E+00 -0.31776464249E+03  0.31776464249E+03  0.00000000000E+00 0. -1.
         25    2    1    2    0    0  0.14276078214E+02  0.34578332594E+02 -0.18006437006E+03  0.22242146302E+03  0.12509461359E+03 0.  0.
          5    1    3    3  502    0  0.22836502017E+02  0.77261316545E+02 -0.81922206831E+02  0.11497624638E+03  0.41800000000E+01 0.  1.
         -5    1    3    3    0  502 -0.85604238031E+01 -0.42682983951E+02 -0.98142163234E+02  0.10744521664E+03  0.41800000000E+01 0.  1.
        -11    1    1    2    0    0  0.15463284675E+02 -0.11997227206E+02  0.12345197769E+02  0.23139804267E+02  0.00000000000E+00 0.  1.
         11    1    1    2    0    0 -0.29739362888E+02 -0.22581105388E+02 -0.10798754245E+03  0.11426130294E+03  0.00000000000E+00 0. -1.
</event>
<event>
 7    1  0.2899775E-009  0.7108753E+02  0.7561462E-02  0.1356433E+00
         -2   -1    0    0    0  501 -0.00000000000E+00  0.00000000000E+00  0.11862709466E+03  0.11862709466E+03  0.00000000000E+00 0. -1.
          2   -1    0    0  501    0  0.00000000000E+00 -0.00000000000E+00 -0.12513515876E+03  0.12513515876E+03  0.00000000000E+00 0.  1.
         25    2    1    2    0    0  0.26298730942E+02  0.11569061180E+01 -0.46146676786E+02  0.13590479576E+03  0.12509051144E+03 0.  0.
          5    1    3    3  502    0  0.35853098024E+02  0.12152245157E+01  0.37235093528E+02  0.51873365021E+02  0.41800000000E+01 0.  1.
         -5    1    3    3    0  502 -0.95543670821E+01 -0.58318397683E-01 -0.83381770314E+02  0.84031430739E+02  0.41800000000E+01 0.  1.
        -11    1    1    2    0    0 -0.60937281888E+02 -0.21778579780E+01  0.40486917502E+02  0.73193482483E+02  0.00000000000E+00 0.  1.
         11    1    1    2    0    0  0.34638550946E+02  0.10209518600E+01 -0.84830481661E+00  0.34663975182E+02  0.00000000000E+00 0. -1.
</event>
<event>
 7    1  0.2899775E-009  0.1148229E+03  0.7561462E-02  0.1251891E+00
          2   -1    0    0  501    0  0.00000000000E+00  0.00000000000E+00  0.91460657083E+03  0.91460657083E+03  0.00000000000E+00 0. -1.
         -2   -1    0    0    0  501 -0.00000000000E+00 -0.00000000000E+00 -0.27690215223E+02  0.27690215223E+02  0.00000000000E+00 0.  1.
         25    2    1    2    0    0 -0.48263677676E+02 -0.71336505457E+02  0.70836794326E+03  0.72446589283E+03  0.12508959686E+03 0.  0.
          5    1    3    3  502    0 -0.69995622614E+02 -0.67430695344E+02  0.68562907269E+03  0.69249619752E+03  0.41800000000E+01 0.  1.
         -5    1    3    3    0  502  0.21731944938E+02 -0.39058101122E+01  0.22738870565E+02  0.31969695306E+02  0.41800000000E+01 0.  1.
        -11    1    1    2    0    0  0.38517967450E+02  0.63674700774E+00  0.18801301819E+02  0.42866399584E+02  0.00000000000E+00 0.  1.
         11    1    1    2    0    0  0.97457102264E+01  0.70699758449E+02  0.15974711053E+03  0.17496449364E+03  0.00000000000E+00 0. -1.
</event>
<event>
 7    1  0.2899775E-009  0.8703830E+02  0.7561462E-02  0.1310187E+00
         -1   -1    0    0    0  501 -0.00000000000E+00  0.00000000000E+00  0.15636124908E+03  0.15636124908E+03  0.00000000000E+00 0.  1.
          1   -1    0    0  501    0  0.00000000000E+00 -0.00000000000E+00 -0.12582424519E+03  0.12582424519E+03  0.00000000000E+00 0. -1.
         25    2    1    2    0    0  0.50334810340E+01  0.51297263974E+02 -0.56153588954E+02  0.14648308674E+03  0.12508926383E+03 0.  0.
          5    1    3    3  502    0 -0.65283311529E+01  0.64248741234E+02  0.20416005409E+02  0.67858717455E+02  0.41800000000E+01 0. -1.
         -5    1    3    3    0  502  0.11561812187E+02 -0.12951477260E+02 -0.76569594363E+02  0.78624369283E+02  0.41800000000E+01 0. -1.
        -11    1    1    2    0    0 -0.32460676808E+02  0.97313403161E+00  0.20882540598E+01  0.32542331411E+02  0.00000000000E+00 0. -1.
         11    1    1    2    0    0  0.27427195774E+02 -0.52270398005E+02  0.84602338785E+02  0.10316007611E+03  0.00000000000E+00 0.  1.
</event>
<event>
 7    1  0.2899775E-009  0.1392693E+03  0.7561462E-02  0.1214316E+00
          2   -1    0    0  501    0  0.00000000000E+00  0.00000000000E+00  0.16686563905E+03  0.16686563905E+03  0.00000000000E+00 0. -1.
         -2   -1    0    0    0  501 -0.00000000000E+00 -0.00000000000E+00 -0.13524486296E+03  0.13524486296E+03  0.00000000000E+00 0.  1.
         25    2    1    2    0    0  0.98286067883E+02  0.30907285372E+02  0.15383799999E+02  0.16278677845E+03  0.12508981776E+03 0.  0.
          5    1    3    3  502    0  0.96635323141E+02  0.71984133816E+02  0.82522911602E+01  0.12085393626E+03  0.41800000000E+01 0.  1.
         -5    1    3    3    0  502  0.16507447417E+01 -0.41076848444E+02  0.71315088392E+01  0.41932842196E+02  0.41800000000E+01 0.  1.
        -11    1    1    2    0    0 -0.68738312455E+02 -0.46738542425E+02  0.45557107258E+02  0.94788696420E+02  0.00000000000E+00 0. -1.
         11    1    1    2    0    0 -0.29547755428E+02  0.15831257053E+02 -0.29320131171E+02  0.44535027143E+02  0.00000000000E+00 0.  1.
</event>
<event>
 7    1  0.2899775E-009  0.9209011E+02  0.7561462E-02  0.1297868E+00
          1   -1    0    0  501    0  0.00000000000E+00  0.00000000000E+00  0.85837390919E+02  0.85837390919E+02  0.00000000000E+00 0. -1.
         -1   -1    0    0    0  501 -0.00000000000E+00 -0.00000000000E+00 -0.15547962304E+03  0.15547962304E+03  0.00000000000E+00 0.  1.
         25    2    1    2    0    0  0.37687230910E+02  0.26228546240E+02 -0.16293901620E+02  0.13424024465E+03  0.12508672209E+03 0.  0.
          5    1    3    3  502    0 -0.34077410464E+02 -0.24682011631E+01  0.28607045085E+02  0.44757092727E+02  0.41800000000E+01 0.  1.
         -5    1    3    3    0  502  0.71764641374E+02  0.28696747403E+02 -0.44900946705E+02  0.89483151923E+02  0.41800000000E+01 0.  1.
        -11    1    1    2    0    0 -0.28147668463E+02  0.13699571313E+02 -0.57851980905E+02  0.65778576974E+02  0.00000000000E+00 0.  1.
         11    1    1    2    0    0 -0.95395624472E+01 -0.39928117552E+02  0.45036504071E+01  0.41298192333E+02  0.00000000000E+00 0. -1.
</event>
<event>
 7    1  0.2899775E-009  0.7260319E+02  0.7561462E-02  0.1351458E+00
         -4   -1    0    0    0  501 -0.00000000000E+00  0.00000000000E+00  0.28239886660E+03  0.28239886660E+03  0.00000000000E+00 0.  1.
          4   -1    0    0  501    0  0.00000000000E+00 -0.00000000000E+00 -0.52337041463E+02  0.52337041463E+02  0.00000000000E+00 0. -1.
         25    2    1    2    0    0 -0.70374483253E+01 -0.25492316909E+02  0.62594006877E+02  0.14235415908E+03  0.12508922020E+03 0.  0.
          5    1    3    3  502    0 -0.32938045956E+02 -0.24162441494E+02 -0.26896294181E+02  0.49087895565E+02  0.41800000000E+01 0. -1.
         -5    1    3    3    0  502  0.25900597631E+02 -0.13298754149E+01  0.89490301058E+02  0.93266263513E+02  0.41800000000E+01 0. -1.
        -11    1    1    2    0    0  0.19789938054E+02  0.48047121104E+02  0.15528806926E+03  0.16375149450E+03  0.00000000000E+00 0.  1.
         11    1    1    2    0    0 -0.12752489729E+02 -0.22554804195E+02  0.12179749001E+02  0.28630254492E+02  0.00000000000E+00 0. -1.
</event>
<event>
 7    1  0.2899775E-009  0.1176363E+03  0.7561462E-02  0.1247048E+00
          2   -1    0    0  501    0  0.00000000000E+00  0.00000000000E+00  0.46465125277E+02  0.46465125277E+02  0.00000000000E+00 0. -1.
         -2   -1    0    0    0  501 -0.00000000000E+00 -0.00000000000E+00 -0.48728001836E+03  0.48728001836E+03  0.00000000000E+00 0.  1.
         25    2    1    2    0    0 -0.39715697416E+02 -0.79362869027E+02 -0.33477413925E+03  0.36823560480E+03  0.12509170530E+03 0.  0.
          5    1    3    3  502    0  0.55101040609E+01  0.86744844602E+01 -0.20337891613E+03  0.20368128008E+03  0.41800000000E+01 0.  1.
         -5    1    3    3    0  502 -0.45225801477E+02 -0.88037353487E+02 -0.13139522312E+03  0.16455432473E+03  0.41800000000E+01 0.  1.
        -11    1    1    2    0    0 -0.28488387168E+02  0.21945790802E+02 -0.44325460481E+02  0.57078475664E+02  0.00000000000E+00 0.  1.
         11    1    1    2    0    0  0.68204084585E+02  0.57417078225E+02 -0.61715293355E+02  0.10843106317E+03  0.00000000000E+00 0. -1.
</event>
<event>
 7    1  0.2899775E-009  0.1372430E+03  0.7561462E-02  0.1217088E+00
         -2   -1    0    0    0  501 -0.00000000000E+00  0.00000000000E+00  0.17619466268E+02  0.17619466268E+02  0.00000000000E+00 0.  1.
          2   -1    0    0  501    0  0.00000000000E+00 -0.00000000000E+00 -0.11768467119E+04  0.11768467119E+04  0.00000000000E+00 0. -1.
         25    2    1    2    0    0  0.53772850502E+02  0.68966890851E+02 -0.78837620827E+03  0.80301420609E+03  0.12508724129E+03 0.  0.
          5    1    3    3  502    0  0.25750004699E+02  0.10266553617E+03 -0.61962814802E+03  0.62861736317E+03  0.41800000000E+01 0.  1.
         -5    1    3    3    0  502  0.28022845803E+02 -0.33698645316E+02 -0.16874806024E+03  0.17439684291E+03  0.41800000000E+01 0.  1.
        -11    1    1    2    0    0  0.18981841764E+02  0.61536342727E+01 -0.77128860072E+02  0.79668303531E+02  0.00000000000E+00 0.  1.
         11    1    1    2    0    0 -0.72754692266E+02 -0.75120525124E+02 -0.29372217734E+03  0.31178366860E+03  0.00000000000E+00 0. -1.
</event>
<event>
 7    1  0.2899775E-009  0.1169185E+03  0.7561462E-02  0.1248269E+00
          1   -1    0    0  501    0  0.00000000000E+00  0.00000000000E+00  0.16794301754E+03  0.16794301754E+03  0.00000000000E+00 0. -1.
         -1   -1    0    0    0  501 -0.00000000000E+00 -0.00000000000E+00 -0.11077094371E+03  0.11077094371E+03  0.00000000000E+00 0.  1.
         25    2    1    2    0    0 -0.52696810708E+02 -0.60665681784E+02  0.11821203055E+02  0.14912048638E+03  0.12505958505E+03 0.  0.
          5    1    3    3  502    0  0.40705964736E+02 -0.18834407344E+02 -0.49918499104E+01  0.45322195783E+02  0.41800000000E+01 0. -1.
         -5    1    3    3    0  502 -0.93402775443E+02 -0.41831274440E+02  0.16813052965E+02  0.10379829060E+03  0.41800000000E+01 0. -1.
        -11    1    1    2    0    0  0.67144035866E+01  0.30821762951E+02  0.64276813506E+02  0.71600091072E+02  0.00000000000E+00 0. -1.
         11    1    1    2    0    0  0.45982407121E+02  0.29843918832E+02 -0.18925942735E+02  0.57993383798E+02  0.00000000000E+00 0.  1.
</event>
<event>
 7    1  0.2899775E-009  0.9101388E+02  0.7561462E-02  0.1300415E+00
          1   -1    0    0  501    0  0.00000000000E+00  0.00000000000E+00  0.79124990007E+03  0.79124990007E+03  0.00000000000E+00 0. -1.
         -1   -1    0    0    0  501 -0.00000000000E+00 -0.00000000000E+00 -0.14905858879E+02  0.14905858879E+02  0.00000000000E+00 0.  1.
         25    2    1    2    0    0  0.39445581090E+01 -0.61943214433E+01  0.48471140289E+03  0.50064529459E+03  0.12508652101E+03 0.  0.
          5    1    3    3  502    0 -0.19791790713E+02 -0.48969502561E+02  0.39357276373E+03  0.39712305387E+03  0.41800000000E+01 0. -1.
         -5    1    3    3    0  502  0.23736348822E+02  0.42775181118E+02  0.91138639160E+02  0.10352224072E+03  0.41800000000E+01 0. -1.
        -11    1    1    2    0    0  0.31281854875E+02  0.24973143717E+02  0.21902604782E+03  0.22265359187E+03  0.00000000000E+00 0. -1.
         11    1    1    2    0    0 -0.35226412984E+02 -0.18778822274E+02  0.72606590478E+02  0.82856872488E+02  0.00000000000E+00 0.  1.
</event>
<event>
 7    1  0.2899775E-009  0.8652450E+02  0.7561462E-02  0.1311493E+00
         -1   -1    0    0    0  501 -0.00000000000E+00  0.00000000000E+00  0.70827176357E+02  0.70827176357E+02  0.00000000000E+00 0.  1.
          1   -1    0    0  501    0  0.00000000000E+00 -0.00000000000E+00 -0.32428567699E+03  0.32428567699E+03  0.00000000000E+00 0. -1.
         25    2    1    2    0    0  0.28071810082E+01 -0.33479835146E+02 -0.26541694439E+03  0.29533599339E+03  0.12509362492E+03 0.  0.
          5    1    3    3  502    0 -0.21898990318E+02  0.33543708245E+02 -0.32739501111E+02  0.51904657525E+02  0.41800000000E+01 0. -1.
         -5    1    3    3    0  502  0.24706171326E+02 -0.67023543391E+02 -0.23267744328E+03  0.24343133587E+03  0.41800000000E+01 0. -1.
        -11    1    1    2    0    0  0.11332049445E+02 -0.10237083924E+02  0.42128066508E+02  0.44810570400E+02  0.00000000000E+00 0.  1.
         11    1    1    2    0    0 -0.14139230453E+02  0.43716919069E+02 -0.30169622750E+02  0.54966289557E+02  0.00000000000E+00 0. -1.
</event>
<event>
 7    1  0.2899775E-009  0.1329385E+03  0.7561462E-02  0.1223160E+00
         -2   -1    0    0    0  501 -0.00000000000E+00  0.00000000000E+00  0.38333042034E+02  0.38333042034E+02  0.00000000000E+00 0.  1.
          2   -1    0    0  501    0  0.00000000000E+00 -0.00000000000E+00 -0.50387500888E+03  0.50387500888E+03  0.00000000000E+00 0. -1.
         25    2    1    2    0    0 -0.83258079240E+02  0.80232230084E+01 -0.29820597417E+03  0.33402301929E+03  0.12509314335E+03 0.  0.
          5    1    3    3  502    0  0.19805107885E+02 -0.30232829004E+02 -0.44422955626E+02  0.57420707367E+02  0.41800000000E+01 0. -1.
         -5    1    3    3    0  502 -0.10306318712E+03  0.38256052013E+02 -0.25378301855E+03  0.27660231192E+03  0.41800000000E+01 0. -1.
        -11    1    1    2    0    0  0.22386540381E+02 -0.43573428977E+02 -0.42653126529E+02  0.64954523366E+02  0.00000000000E+00 0.  1.
         11    1    1    2    0    0  0.60871538859E+02  0.35550205968E+02 -0.12468286614E+03  0.14323050826E+03  0.00000000000E+00 0. -1.
</event>
<event>
 7    1  0.2899775E-009  0.1189027E+03  0.7561462E-02  0.1244918E+00
          2   -1    0    0  501    0  0.00000000000E+00  0.00000000000E+00  0.17132607269E+04  0.17132607269E+04  0.00000000000E+00 0.  1.
         -2   -1    0    0    0  501 -0.00000000000E+00 -0.00000000000E+00 -0.12070648527E+02  0.12070648527E+02  0.00000000000E+00 0. -1.
         25    2    1    2    0    0 -0.81924836667E+01 -0.47332887590E+02  0.13983002891E+04  0.14047053763E+04  0.12508387884E+03 0.  0.
          5    1    3    3  502    0 -0.14786148571E+01  0.42962424604E+02  0.41985893059E+03  0.42207457899E+03  0.41800000000E+01 0.  1.
         -5    1    3    3    0  502 -0.67138688096E+01 -0.90295312195E+02  0.97844135850E+03  0.98263079733E+03  0.41800000000E+01 0.  1.
        -11    1    1    2    0    0  0.50164109311E+02  0.20711659128E+02  0.13395459903E+03  0.14453112221E+03  0.00000000000E+00 0.  1.
         11    1    1    2    0    0 -0.41971625645E+02  0.26621228462E+02  0.16893519029E+03  0.17609487693E+03  0.00000000000E+00 0. -1.
</event>
<event>
 7    1  0.2899775E-009  0.8454352E+02  0.7561462E-02  0.1316631E+00
         -2   -1    0    0    0  501 -0.00000000000E+00  0.00000000000E+00  0.15111904107E+03  0.15111904107E+03  0.00000000000E+00 0.  1.
          2   -1    0    0  501    0  0.00000000000E+00 -0.00000000000E+00 -0.95203484330E+02  0.95203484330E+02  0.00000000000E+00 0. -1.
         25    2    1    2    0    0 -0.45374494649E+02  0.32587604721E+02  0.54324684983E+02  0.14737322831E+03  0.12508757044E+03 0.  0.
          5    1    3    3  502    0 -0.60538816787E+02  0.26464347981E+02  0.87753315251E+02  0.10992464141E+03  0.41800000000E+01 0. -1.
         -5    1    3    3    0  502  0.15164322138E+02  0.61232567401E+01 -0.33428630268E+02  0.37448586898E+02  0.41800000000E+01 0. -1.
        -11    1    1    2    0    0  0.47702664548E+02 -0.49610141217E+02  0.22015648971E+02  0.72259249347E+02  0.00000000000E+00 0.  1.
         11    1    1    2    0    0 -0.23281698988E+01  0.17022536496E+02 -0.20424777219E+02  0.26690047738E+02  0.00000000000E+00 0. -1.
</event>
<event>
 7    1  0.3150886E-009  0.1076859E+03  0.7561462E-02  0.1264916E+00
         -1   -1    0    0    0  501 -0.00000000000E+00  0.00000000000E+00  0.26175488825E+03  0.26175488825E+03  0.00000000000E+00 0.  1.
          1   -1    0    0  501    0  0.00000000000E+00 -0.00000000000E+00 -0.65323762303E+02  0.65323762303E+02  0.00000000000E+00 0. -1.
         25    2    1    2    0    0  0.66566743858E+02 -0.11236882109E+02  0.14018954248E+03  0.19964459894E+03  0.12508980437E+03 0.  0.
          5    1    3    3  502    0 -0.34014045869E+02 -0.21699256002E+02  0.33740116987E+02  0.52760600089E+02  0.41800000000E+01 0. -1.
         -5    1    3    3    0  502  0.10058078973E+03  0.10462373894E+02  0.10644942550E+03  0.14688399885E+03  0.41800000000E+01 0. -1.
        -11    1    1    2    0    0 -0.49457359538E+02 -0.53801058903E+01  0.79717969167E+02  0.93967710199E+02  0.00000000000E+00 0.  1.
         11    1    1    2    0    0 -0.17109384320E+02  0.16616987999E+02 -0.23476385705E+02  0.33466341415E+02  0.00000000000E+00 0. -1.
</event>
<event>
 7    1  0.2899775E-009  0.1305424E+03  0.7561462E-02  0.1226653E+00
         -4   -1    0    0    0  501 -0.00000000000E+00  0.00000000000E+00  0.11429980998E+03  0.11429980998E+03  0.00000000000E+00 0.  1.
          4   -1    0    0  501    0  0.00000000000E+00 -0.00000000000E+00 -0.26394232884E+03  0.26394232884E+03  0.00000000000E+00 0. -1.
         25    2    1    2    0    0  0.66474032971E+02 -0.10403415484E+03 -0.18021394028E+02  0.17667531822E+03  0.12508994760E+03 0.  0.
          5    1    3    3  502    0  0.38138590554E+02 -0.10863185069E+02  0.45368953006E+02  0.60401781233E+02  0.41800000000E+01 0. -1.
         -5    1    3    3    0  502  0.28335442417E+02 -0.93170969775E+02 -0.63390347035E+02  0.11627353698E+03  0.41800000000E+01 0. -1.
        -11    1    1    2    0    0 -0.31876743231E+02  0.57560920776E+02 -0.12750752588E+03  0.14348364198E+03  0.00000000000E+00 0. -1.
         11    1    1    2    0    0 -0.34597289740E+02  0.46473234069E+02 -0.41135989556E+01  0.58083178619E+02  0.00000000000E+00 0.  1.
</event>
<event>
 7    1  0.2899775E-009  0.1055060E+03  0.7561462E-02  0.1269126E+00
          1   -1    0    0  501    0  0.00000000000E+00  0.00000000000E+00  0.41784507117E+03  0.41784507117E+03  0.00000000000E+00 0. -1.
         -1   -1    0    0    0  501 -0.00000000000E+00 -0.00000000000E+00 -0.42247139835E+02  0.42247139835E+02  0.00000000000E+00 0.  1.
         25    2    1    2    0    0  0.12785792008E+01 -0.65604112858E+01  0.33645247098E+03  0.35901729601E+03  0.12509388413E+03 0.  0.
          5    1    3    3  502    0  0.55572350238E+02  0.26234499416E+02  0.15807518772E+03  0.16965191553E+03  0.41800000000E+01 0. -1.
         -5    1    3    3    0  502 -0.54293771037E+02 -0.32794910702E+02  0.17837728325E+03  0.18936538047E+03  0.41800000000E+01 0. -1.
        -11    1    1    2    0    0 -0.20136708457E+02 -0.34905057838E+02  0.38180807840E+02  0.55512378597E+02  0.00000000000E+00 0.  1.
         11    1    1    2    0    0  0.18858129256E+02  0.41465469124E+02  0.96465251826E+00  0.45562536400E+02  0.00000000000E+00 0. -1.
</event>
<event>
 7    1  0.2899775E-009  0.1052250E+03  0.7561462E-02  0.1269677E+00
          3   -1    0    0  501    0  0.00000000000E+00  0.00000000000E+00  0.81071259107E+02  0.81071259107E+02  0.00000000000E+00 0. -1.
         -3   -1    0    0    0  501 -0.00000000000E+00 -0.00000000000E+00 -0.39397606573E+03  0.39397606573E+03  0.00000000000E+00 0.  1.
         25    2    1    2    0    0 -0.46121546281E+02 -0.30776298184E+02 -0.34018196636E+03  0.36666854365E+03  0.12509065953E+03 0.  0.
          5    1    3    3  502    0 -0.14276862540E+02 -0.62922658019E+02 -0.29708763165E+03  0.30404214013E+03  0.41800000000E+01 0.  1.
         -5    1    3    3    0  502 -0.31844683741E+02  0.32146359835E+02 -0.43094334715E+02  0.62626403519E+02  0.41800000000E+01 0.  1.
        -11    1    1    2    0    0  0.87163974229E+00  0.50843627283E+02 -0.19604468308E+01  0.50888874451E+02  0.00000000000E+00 0.  1.
         11    1    1    2    0    0  0.45249906539E+02 -0.20067329099E+02  0.29237606570E+02  0.57489906739E+02  0.00000000000E+00 0. -1.
</event>
<event>
 7    1  0.2899775E-009  0.1750204E+03  0.7561462E-02  0.1172711E+00
          1   -1    0    0  501    0  0.00000000000E+00  0.00000000000E+00  0.14255080610E+04  0.14255080610E+04  0.00000000000E+00 0. -1.
         -1   -1    0    0    0  501 -0.00000000000E+00 -0.00000000000E+00 -0.28069847740E+02  0.28069847740E+02  0.00000000000E+00 0.  1.
         25    2    1    2    0    0  0.14014847480E+03  0.43555027244E+02  0.10244616400E+04  0.10424525147E+04  0.12508780148E+03 0.  0.
          5    1    3    3  502    0 -0.18702770695E+02  0.24578653537E+01  0.25231215055E+03  0.25305084163E+03  0.41800000000E+01 0. -1.
         -5    1    3    3    0  502  0.15885124549E+03  0.41097161891E+02  0.77214948946E+03  0.78940167303E+03  0.41800000000E+01 0. -1.
        -11    1    1    2    0    0 -0.17451707419E+01 -0.27157689713E+02  0.27936580540E+02  0.39000490558E+02  0.00000000000E+00 0.  1.
         11    1    1    2    0    0 -0.13840330405E+03 -0.16397337531E+02  0.34503999268E+03  0.37212490349E+03  0.00000000000E+00 0. -1.
</event>
<event>
 7    1  0.2899775E-009  0.1174763E+03  0.7561462E-02  0.1247319E+00
         -1   -1    0    0    0  501 -0.00000000000E+00  0.00000000000E+00  0.98749854846E+02  0.98749854846E+02  0.00000000000E+00 0.  1.
          1   -1    0    0  501    0  0.00000000000E+00 -0.00000000000E+00 -0.24870113904E+03  0.24870113904E+03  0.00000000000E+00 0. -1.
         25    2    1    2    0    0 -0.74400374297E+02 -0.40169516023E+02 -0.16269887068E+03  0.22196208813E+03  0.12508892970E+03 0.  0.
          5    1    3    3  502    0  0.20179430412E+02  0.24102786072E+02 -0.61543212246E+02  0.69232890173E+02  0.41800000000E+01 0. -1.
         -5    1    3    3    0  502 -0.94579804709E+02 -0.64272302096E+02 -0.10115565843E+03  0.15272919796E+03  0.41800000000E+01 0. -1.
        -11    1    1    2    0    0  0.40432975070E+02  0.36811516833E+02 -0.36373496472E+02  0.65673011886E+02  0.00000000000E+00 0. -1.
         11    1    1    2    0    0  0.33967399228E+02  0.33579991899E+01  0.49121082955E+02  0.59815893870E+02  0.00000000000E+00 0.  1.
</event>
<event>
 7    1  0.2899775E-009  0.2372806E+03  0.7561462E-02  0.1121618E+00
         -1   -1    0    0    0  501 -0.00000000000E+00  0.00000000000E+00  0.33651455106E+02  0.33651455106E+02  0.00000000000E+00 0.  1.
          1   -1    0    0  501    0  0.00000000000E+00 -0.00000000000E+00 -0.17882513150E+04  0.17882513150E+04  0.00000000000E+00 0. -1.
         25    2    1    2    0    0  0.20137644066E+03 -0.81595193061E+02 -0.10174733373E+04  0.10479074218E+04  0.12509087156E+03 0.  0.
          5    1    3    3  502    0  0.21429640149E+03 -0.75462619408E+02 -0.99711265583E+03  0.10226772098E+04  0.41800000000E+01 0.  1.
         -5    1    3    3    0  502 -0.12919960835E+02 -0.61325736531E+01 -0.20360681487E+02  0.25230212013E+02  0.41800000000E+01 0.  1.
        -11    1    1    2    0    0 -0.10671966438E+03 -0.11162979589E+01 -0.27218974383E+03  0.29236550674E+03  0.00000000000E+00 0.  1.
         11    1    1    2    0    0 -0.94656776281E+02  0.82711491020E+02 -0.46493677871E+03  0.48162984151E+03  0.00000000000E+00 0. -1.
</event>
<event>
 7    1  0.2899775E-009  0.1135884E+03  0.7561462E-02  0.1254065E+00
         -2   -1    0    0    0  501 -0.00000000000E+00  0.00000000000E+00  0.23871032076E+03  0.23871032076E+03  0.00000000000E+00 0. -1.
          2   -1    0    0  501    0  0.00000000000E+00 -0.00000000000E+00 -0.60752316811E+02  0.60752316811E+02  0.00000000000E+00 0.  1.
         25    2    1    2    0    0  0.45822749027E+02 -0.22965353981E+02  0.65132453582E+02  0.15005528816E+03  0.12508885316E+03 0.  0.
          5    1    3    3  502    0  0.88820948828E+02 -0.13440527618E+02  0.34854398369E+02  0.96447447965E+02  0.41800000000E+01 0.  1.
         -5    1    3    3    0  502 -0.42998199801E+02 -0.95248263628E+01  0.30278055213E+02  0.53607840200E+02  0.41800000000E+01 0.  1.
        -11    1    1    2    0    0  0.76848193933E+01 -0.21882151088E+02  0.10321443255E+02  0.25385373273E+02  0.00000000000E+00 0.  1.
         11    1    1    2    0    0 -0.53507568420E+02  0.44847505069E+02  0.10250410711E+03  0.12402197613E+03  0.00000000000E+00 0. -1.
</event>
<event>
 7    1  0.2899775E-009  0.1634828E+03  0.7561462E-02  0.1184820E+00
          1   -1    0    0  501    0  0.00000000000E+00  0.00000000000E+00  0.21264506084E+03  0.21264506084E+03  0.00000000000E+00 0. -1.
         -1   -1    0    0    0  501 -0.00000000000E+00 -0.00000000000E+00 -0.14276094385E+03  0.14276094385E+03  0.00000000000E+00 0.  1.
         25    2    1    2    0    0  0.46011802646E+02 -0.11710494070E+03  0.88681829515E+02  0.19834981211E+03  0.12509007938E+03 0.  0.
          5    1    3    3  502    0  0.91982787090E+01 -0.13133850595E+03  0.44693168734E+02  0.13910198851E+03  0.41800000000E+01 0. -1.
         -5    1    3    3    0  502  0.36813523937E+02  0.14233565249E+02  0.43988660781E+02  0.59247823603E+02  0.41800000000E+01 0. -1.
        -11    1    1    2    0    0 -0.73303308870E+02  0.71485186779E+02 -0.17545437432E+02  0.10388141987E+03  0.00000000000E+00 0.  1.
         11    1    1    2    0    0  0.27291506225E+02  0.45619753918E+02 -0.12522750959E+01  0.53174772707E+02  0.00000000000E+00 0. -1.
</event>
<event>
 7    1  0.2899775E-009  0.1187000E+03  0.7561462E-02  0.1245257E+00
          2   -1    0    0  501    0  0.00000000000E+00  0.00000000000E+00  0.33084533788E+03  0.33084533788E+03  0.00000000000E+00 0. -1.
         -2   -1    0    0    0  501 -0.00000000000E+00 -0.00000000000E+00 -0.53265649835E+02  0.53265649835E+02  0.00000000000E+00 0.  1.
         25    2    1    2    0    0  0.47254201676E+02 -0.46975201192E+02  0.10162008035E+03  0.17439503329E+03  0.12508939923E+03 0.  0.
          5    1    3    3  502    0 -0.12756938523E+02  0.34935608366E+02  0.13196277659E+02  0.39684384290E+02  0.41800000000E+01 0. -1.
         -5    1    3    3    0  502  0.60011140198E+02 -0.81910809558E+02  0.88423802692E+02  0.13471064900E+03  0.41800000000E+01 0. -1.
        -11    1    1    2    0    0 -0.25974435529E+02  0.65292109546E+02  0.66622202743E+02  0.96831032052E+02  0.00000000000E+00 0.  1.
         11    1    1    2    0    0 -0.21279766146E+02 -0.18316908354E+02  0.10933740495E+03  0.11288492238E+03  0.00000000000E+00 0. -1.
</event>
<event>
 7    1  0.2899775E-009  0.1693591E+03  0.7561462E-02  0.1178518E+00
         -1   -1    0    0    0  501 -0.00000000000E+00  0.00000000000E+00  0.15831456093E+03  0.15831456093E+03  0.00000000000E+00 0.  1.
          1   -1    0    0  501    0  0.00000000000E+00 -0.00000000000E+00 -0.21002800262E+03  0.21002800262E+03  0.00000000000E+00 0. -1.
         25    2    1    2    0    0  0.13203099517E+03  0.57369820424E+02  0.19845752049E+01  0.19072165449E+03  0.12508929199E+03 0.  0.
          5    1    3    3  502    0 -0.31841919643E+00 -0.31080242695E+02  0.27301852947E+01  0.31480298419E+02  0.41800000000E+01 0. -1.
         -5    1    3    3    0  502  0.13234941437E+03  0.88450063119E+02 -0.74561008988E+00  0.15924135607E+03  0.41800000000E+01 0. -1.
        -11    1    1    2    0    0 -0.97042392384E+02 -0.24447810149E+02 -0.75008027692E+02  0.12506448560E+03  0.00000000000E+00 0. -1.
         11    1    1    2    0    0 -0.34988602789E+02 -0.32922010275E+02  0.21310010796E+02  0.52556423450E+02  0.00000000000E+00 0.  1.
</event>
<event>
 7    1  0.2899775E-009  0.2132169E+03  0.7561462E-02  0.1139044E+00
         -1   -1    0    0    0  501 -0.00000000000E+00  0.00000000000E+00  0.55398686793E+02  0.55398686793E+02  0.00000000000E+00 0.  1.
          1   -1    0    0  501    0  0.00000000000E+00 -0.00000000000E+00 -0.94074006062E+03  0.94074006062E+03  0.00000000000E+00 0. -1.
         25    2    1    2    0    0 -0.10140787843E+03 -0.17144123942E+03 -0.50872445961E+03  0.56046784056E+03  0.12509183871E+03 0.  0.
          5    1    3    3  502    0 -0.20355717594E+02 -0.10647659137E+03 -0.13853023551E+03  0.17595373909E+03  0.41800000000E+01 0. -1.
         -5    1    3    3    0  502 -0.81052160831E+02 -0.64964648049E+02 -0.37019422410E+03  0.38451410146E+03  0.41800000000E+01 0. -1.
        -11    1    1    2    0    0  0.53297743704E+02  0.15375721878E+03 -0.32189997215E+03  0.36069588836E+03  0.00000000000E+00 0. -1.
         11    1    1    2    0    0  0.48110134722E+02  0.17684020638E+02 -0.54716942063E+02  0.74975018490E+02  0.00000000000E+00 0.  1.
</event>
<event>
 7    1  0.2899775E-009  0.7159353E+02  0.7561462E-02  0.1354756E+00
         -3   -1    0    0    0  501 -0.00000000000E+00  0.00000000000E+00  0.93487050957E+02  0.93487050957E+02  0.00000000000E+00 0.  1.
          3   -1    0    0  501    0  0.00000000000E+00 -0.00000000000E+00 -0.23452911199E+03  0.23452911199E+03  0.00000000000E+00 0. -1.
         25    2    1    2    0    0  0.73078874229E+01  0.30634820612E+01  0.35017217738E+02  0.13014097552E+03  0.12509067843E+03 0.  0.
          5    1    3    3  502    0  0.35727868874E+02  0.18910805373E+02 -0.34475859365E+02  0.53293118253E+02  0.41800000000E+01 0.  1.
         -5    1    3    3    0  502 -0.28419981451E+02 -0.15847323312E+02  0.69493077103E+02  0.76847857271E+02  0.41800000000E+01 0.  1.
        -11    1    1    2    0    0 -0.38101650482E+02  0.34762647381E+01 -0.15582344731E+03  0.16045175885E+03  0.00000000000E+00 0.  1.
         11    1    1    2    0    0  0.30793763059E+02 -0.65397467993E+01 -0.20235831464E+02  0.37423428579E+02  0.00000000000E+00 0. -1.
</event>
<event>
 7    1  0.2899775E-009  0.4906797E+03  0.7561462E-02  0.1016241E+00
         -2   -1    0    0    0  501 -0.00000000000E+00  0.00000000000E+00  0.79999617963E+03  0.79999617963E+03  0.00000000000E+00 0.  1.
          2   -1    0    0  501    0  0.00000000000E+00 -0.00000000000E+00 -0.32223889188E+03  0.32223889188E+03  0.00000000000E+00 0. -1.
         25    2    1    2    0    0 -0.47240783189E+03 -0.10325727266E+03  0.36193300478E+03  0.61682562915E+03  0.12508850001E+03 0.  0.
          5    1    3    3  502    0 -0.55273188094E+02  0.25330303619E+02  0.27218867245E+02  0.66746451123E+02  0.41800000000E+01 0. -1.
         -5    1    3    3    0  502 -0.41713464379E+03 -0.12858757628E+03  0.33471413754E+03  0.55007917802E+03  0.41800000000E+01 0. -1.
        -11    1    1    2    0    0  0.52298663027E+02  0.17230603997E+02 -0.15001001008E+02  0.57070779737E+02  0.00000000000E+00 0. -1.
         11    1    1    2    0    0  0.42010916886E+03  0.86026668666E+02  0.13082528397E+03  0.44833866263E+03  0.00000000000E+00 0.  1.
</event>
<event>
 7    1  0.2899775E-009  0.1221991E+03  0.7561462E-02  0.1239513E+00
          1   -1    0    0  501    0  0.00000000000E+00  0.00000000000E+00  0.44129256989E+03  0.44129256989E+03  0.00000000000E+00 0. -1.
         -1   -1    0    0    0  501 -0.00000000000E+00 -0.00000000000E+00 -0.38324859222E+02  0.38324859222E+02  0.00000000000E+00 0.  1.
         25    2    1    2    0    0  0.55607082058E+02 -0.47188280365E+02  0.22942209065E+03  0.27129392127E+03  0.12508802765E+03 0.  0.
          5    1    3    3  502    0  0.18230684388E+02 -0.86294090109E+02  0.11815001687E+03  0.14749890416E+03  0.41800000000E+01 0.  1.
         -5    1    3    3    0  502  0.37376397670E+02  0.39105809744E+02  0.11127207378E+03  0.12379501711E+03  0.41800000000E+01 0.  1.
        -11    1    1    2    0    0  0.12745913204E+02 -0.70687907577E+01  0.57695390168E+00  0.14586260041E+02  0.00000000000E+00 0.  1.
         11    1    1    2    0    0 -0.68352995262E+02  0.54257071122E+02  0.17296866612E+03  0.19373724781E+03  0.00000000000E+00 0. -1.
</event>
<event>
 7    1  0.2899775E-009  0.1225534E+03  0.7561462E-02  0.1238943E+00
         -2   -1    0    0    0  501 -0.00000000000E+00  0.00000000000E+00  0.62398245333E+02  0.62398245333E+02  0.00000000000E+00 0.  1.
          2   -1    0    0  501    0  0.00000000000E+00 -0.00000000000E+00 -0.26882978490E+03  0.26882978490E+03  0.00000000000E+00 0. -1.
         25    2    1    2    0    0  0.30949498811E+02  0.56568463386E+02 -0.81030335300E+02  0.16239216051E+03  0.12508971192E+03 0.  0.
          5    1    3    3  502    0 -0.21901261965E+02  0.76309256647E+02 -0.26453751610E+02  0.83785686724E+02  0.41800000000E+01 0.  1.
         -5    1    3    3    0  502  0.52850760776E+02 -0.19740793261E+02 -0.54576583690E+02  0.78606473782E+02  0.41800000000E+01 0.  1.
        -11    1    1    2    0    0  0.16117619141E+02  0.15888828599E+02 -0.46997547341E+02  0.52163224374E+02  0.00000000000E+00 0. -1.
         11    1    1    2    0    0 -0.47067117953E+02 -0.72457291985E+02 -0.78403656928E+02  0.11667264535E+03  0.00000000000E+00 0.  1.
</event>
<event>
 7    1  0.2899775E-009  0.1347839E+03  0.7561462E-02  0.1220525E+00
         -1   -1    0    0    0  501 -0.00000000000E+00  0.00000000000E+00  0.65530033584E+02  0.65530033584E+02  0.00000000000E+00 0.  1.
          1   -1    0    0  501    0  0.00000000000E+00 -0.00000000000E+00 -0.43905836319E+03  0.43905836319E+03  0.00000000000E+00 0. -1.
         25    2    1    2    0    0  0.70007120033E+01 -0.12757857188E+03 -0.15800143960E+03  0.23861351109E+03  0.12508657318E+03 0.  0.
          5    1    3    3  502    0 -0.23772597155E+02 -0.86307849256E+02 -0.16372401423E+03  0.18664727818E+03  0.41800000000E+01 0. -1.
         -5    1    3    3    0  502  0.30773309158E+02 -0.41270722627E+02  0.57225746278E+01  0.51966232912E+02  0.41800000000E+01 0. -1.
        -11    1    1    2    0    0  0.26111503831E+01  0.58008455113E+02 -0.17611570154E+03  0.18544147136E+03  0.00000000000E+00 0. -1.
         11    1    1    2    0    0 -0.96118623864E+01  0.69570116770E+02 -0.39411188470E+02  0.80533414323E+02  0.00000000000E+00 0.  1.
</event>
<event>
 7    1  0.2899775E-009  0.1595586E+03  0.7561462E-02  0.1189196E+00
          2   -1    0    0  501    0  0.00000000000E+00  0.00000000000E+00  0.91489277785E+03  0.91489277785E+03  0.00000000000E+00 0. -1.
         -2   -1    0    0    0  501 -0.00000000000E+00 -0.00000000000E+00 -0.36912073761E+02  0.36912073761E+02  0.00000000000E+00 0.  1.
         25    2    1    2    0    0  0.10679414987E+03 -0.10205574574E+03  0.50556682967E+03  0.54135552276E+03  0.12509043557E+03 0.  0.
          5    1    3    3  502    0  0.41557320236E+02 -0.11406484933E+02  0.33271155819E+03  0.33551687307E+03  0.41800000000E+01 0.  1.
         -5    1    3    3    0  502  0.65236829633E+02 -0.90649260803E+02  0.17285527148E+03  0.20583864968E+03  0.41800000000E+01 0.  1.
        -11    1    1    2    0    0 -0.40197302540E+02  0.86918835981E+02  0.15158384695E+03  0.17929966491E+03  0.00000000000E+00 0.  1.
         11    1    1    2    0    0 -0.66596847330E+02  0.15136909756E+02  0.22083002747E+03  0.23114966395E+03  0.00000000000E+00 0. -1.
</event>
<event>
 7    1  0.2899775E-009  0.7965215E+02  0.7561462E-02  0.1330041E+00
          2   -1    0    0  501    0  0.00000000000E+00  0.00000000000E+00  0.79900819884E+03  0.79900819884E+03  0.00000000000E+00 0. -1.
         -2   -1    0    0    0  501 -0.00000000000E+00 -0.00000000000E+00 -0.18699378525E+02  0.18699378525E+02  0.00000000000E+00 0.  1.
         25    2    1    2    0    0 -0.43050832705E+02 -0.28864696833E+02  0.53160498424E+03  0.54857777428E+03  0.12508864954E+03 0.  0.
          5    1    3    3  502    0 -0.49348837587E+02 -0.34903407690E+02  0.10040830930E+03  0.11727257401E+03  0.41800000000E+01 0.  1.
         -5    1    3    3    0  502  0.62980048815E+01  0.60387108573E+01  0.43119667494E+03  0.43130520027E+03  0.41800000000E+01 0.  1.
        -11    1    1    2    0    0  0.86632751809E+00  0.44160078252E+02  0.19095697089E+03  0.19599854021E+03  0.00000000000E+00 0. -1.
         11    1    1    2    0    0  0.42184505187E+02 -0.15295381419E+02  0.57746865186E+02  0.73131262873E+02  0.00000000000E+00 0.  1.
</event>
<event>
 7    1  0.4086514E-009  0.1873969E+03  0.7561462E-02  0.1160830E+00
         -2   -1    0    0    0  501 -0.00000000000E+00  0.00000000000E+00  0.24503403730E+02  0.24503403730E+02  0.00000000000E+00 0.  1.
          2   -1    0    0  501    0  0.00000000000E+00 -0.00000000000E+00 -0.15839962640E+04  0.15839962640E+04  0.00000000000E+00 0. -1.
         25    2    1    2    0    0  0.15503300540E+03  0.83976158632E+01 -0.10314362656E+04  0.10505322712E+04  0.12510607564E+03 0.  0.
          5    1    3    3  502    0  0.20207238042E+02  0.49689420912E+02 -0.39511271177E+03  0.39875919855E+03  0.41800000000E+01 0.  1.
         -5    1    3    3    0  502  0.13482576736E+03 -0.41291805049E+02 -0.63632355384E+03  0.65177307269E+03  0.41800000000E+01 0.  1.
        -11    1    1    2    0    0 -0.89604158010E+02  0.40408206240E+02 -0.30473584299E+03  0.32019628709E+03  0.00000000000E+00 0.  1.
         11    1    1    2    0    0 -0.65428847389E+02 -0.48805822103E+02 -0.22332075162E+03  0.23777110936E+03  0.00000000000E+00 0. -1.
</event>
<event>
 7    1  0.2899775E-009  0.1276323E+03  0.7561462E-02  0.1231012E+00
         -2   -1    0    0    0  501 -0.00000000000E+00  0.00000000000E+00  0.15743498660E+03  0.15743498660E+03  0.00000000000E+00 0.  1.
          2   -1    0    0  501    0  0.00000000000E+00 -0.00000000000E+00 -0.17041644286E+03  0.17041644286E+03  0.00000000000E+00 0. -1.
         25    2    1    2    0    0  0.10359385556E+03 -0.57441257468E+02 -0.40791677856E+02  0.17703673360E+03  0.12508740582E+03 0.  0.
          5    1    3    3  502    0  0.50380491252E+02 -0.65588594034E+02  0.29935107295E+02  0.88054759184E+02  0.41800000000E+01 0. -1.
         -5    1    3    3    0  502  0.53213364305E+02  0.81473365657E+01 -0.70726785151E+02  0.88981974419E+02  0.41800000000E+01 0. -1.
        -11    1    1    2    0    0 -0.57388991827E+02  0.31161992842E+02  0.59991596235E+02  0.88676703816E+02  0.00000000000E+00 0.  1.
         11    1    1    2    0    0 -0.46204863730E+02  0.26279264626E+02 -0.32181374642E+02  0.62137992045E+02  0.00000000000E+00 0. -1.
</event>
<event>
 7    1  0.2899775E-009  0.1536194E+03  0.7561462E-02  0.1196095E+00
          1   -1    0    0  501    0  0.00000000000E+00  0.00000000000E+00  0.60702527615E+03  0.60702527615E+03  0.00000000000E+00 0. -1.
         -1   -1    0    0    0  501 -0.00000000000E+00 -0.00000000000E+00 -0.46175586498E+02  0.46175586498E+02  0.00000000000E+00 0.  1.
         25    2    1    2    0    0 -0.11843732597E+03  0.30134510139E+02  0.36695663449E+03  0.40649763243E+03  0.12509062593E+03 0.  0.
          5    1    3    3  502    0 -0.13553303915E+03  0.58951396088E+01  0.34041891867E+03  0.36647847135E+03  0.41800000000E+01 0.  1.
         -5    1    3    3    0  502  0.17095713188E+02  0.24239370531E+02  0.26537715816E+02  0.40019161084E+02  0.41800000000E+01 0.  1.
        -11    1    1    2    0    0  0.10585302286E+03  0.32272778887E+01  0.17916795937E+03  0.20812600855E+03  0.00000000000E+00 0. -1.
         11    1    1    2    0    0  0.12584303111E+02 -0.33361788028E+02  0.14725095796E+02  0.38577221665E+02  0.00000000000E+00 0.  1.
</event>
<event>
 7    1  0.2899775E-009  0.9238882E+02  0.7561462E-02  0.1297168E+00
         -1   -1    0    0    0  501 -0.00000000000E+00  0.00000000000E+00  0.96160503681E+02  0.96160503681E+02  0.00000000000E+00 0.  1.
          1   -1    0    0  501    0  0.00000000000E+00 -0.00000000000E+00 -0.14332153114E+03  0.14332153114E+03  0.00000000000E+00 0. -1.
         25    2    1    2    0    0  0.20904758602E+02 -0.25717075733E+02 -0.59409971520E+02  0.14239159588E+03  0.12508974757E+03 0.  0.
          5    1    3    3  502    0 -0.25156224141E+02 -0.37696749816E+02  0.20003574390E+02  0.49714142335E+02  0.41800000000E+01 0.  1.
         -5    1    3    3    0  502  0.46060982743E+02  0.11979674082E+02 -0.79413545910E+02  0.92677453549E+02  0.41800000000E+01 0.  1.
        -11    1    1    2    0    0 -0.53811286863E+02  0.89278122231E+01  0.22105737778E+02  0.58855960341E+02  0.00000000000E+00 0.  1.
         11    1    1    2    0    0  0.32906528261E+02  0.16789263510E+02 -0.98567937211E+01  0.38234478601E+02  0.00000000000E+00 0. -1.
</event>
<event>
 7    1  0.2899775E-009  0.2212486E+03  0.7561462E-02  0.1132956E+00
         -4   -1    0    0    0  501 -0.00000000000E+00  0.00000000000E+00  0.48670079073E+03  0.48670079073E+03  0.00000000000E+00 0.  1.
          4   -1    0    0  501    0  0.00000000000E+00 -0.00000000000E+00 -0.15568312802E+03  0.15568312802E+03  0.00000000000E+00 0. -1.
         25    2    1    2    0    0 -0.17252175418E+03  0.10687911827E+03 -0.85703123610E+01  0.23855376015E+03  0.12509014606E+03 0.  0.
          5    1    3    3  502    0 -0.95486899059E+02  0.11278102335E+03 -0.42861736652E+02  0.15392175931E+03  0.41800000000E+01 0. -1.
         -5    1    3    3    0  502 -0.77034855120E+02 -0.59019050785E+01  0.34291424291E+02  0.84632000844E+02  0.41800000000E+01 0. -1.
        -11    1    1    2    0    0  0.16134591086E+03 -0.65002655219E+02  0.28796537087E+03  0.33642518181E+03  0.00000000000E+00 0.  1.
         11    1    1    2    0    0  0.11175843322E+02 -0.41876463056E+02  0.51622604203E+02  0.67404976795E+02  0.00000000000E+00 0. -1.
</event>
<event>
 7    1  0.2899775E-009  0.8185742E+02  0.7561462E-02  0.1323861E+00
          2   -1    0    0  501    0  0.00000000000E+00  0.00000000000E+00  0.10833358360E+03  0.10833358360E+03  0.00000000000E+00 0. -1.
         -2   -1    0    0    0  501 -0.00000000000E+00 -0.00000000000E+00 -0.19495999125E+03  0.19495999125E+03  0.00000000000E+00 0.  1.
         25    2    1    2    0    0  0.24416181523E+02  0.30418836856E+02 -0.13928402607E+03  0.19123128315E+03  0.12509159916E+03 0.  0.
          5    1    3    3  502    0  0.61832517709E+02  0.40334209858E+02 -0.38877186321E+02  0.83540509619E+02  0.41800000000E+01 0.  1.
         -5    1    3    3    0  502 -0.37416336186E+02 -0.99153730023E+01 -0.10040683975E+03  0.10769077354E+03  0.41800000000E+01 0.  1.
        -11    1    1    2    0    0  0.12682909717E+01 -0.24433266990E+02  0.74124062663E+02  0.78057477307E+02  0.00000000000E+00 0. -1.
         11    1    1    2    0    0 -0.25684472494E+02 -0.59855698662E+01 -0.21466444233E+02  0.34004814393E+02  0.00000000000E+00 0.  1.
</event>
<event>
 7    1  0.2899775E-009  0.1313843E+03  0.7561462E-02  0.1225416E+00
         -3   -1    0    0    0  501 -0.00000000000E+00  0.00000000000E+00  0.70318642482E+02  0.70318642482E+02  0.00000000000E+00 0.  1.
          3   -1    0    0  501    0  0.00000000000E+00 -0.00000000000E+00 -0.33452336395E+03  0.33452336395E+03  0.00000000000E+00 0. -1.
         25    2    1    2    0    0 -0.14001298836E+01 -0.98706546510E+02 -0.20127509268E+03  0.25671282324E+03  0.12507944673E+03 0.  0.
          5    1    3    3  502    0 -0.35397874429E+02 -0.11540706434E+03 -0.16092796306E+03  0.20121401966E+03  0.41800000000E+01 0.  1.
         -5    1    3    3    0  502  0.33997744546E+02  0.16700517830E+02 -0.40347129624E+02  0.55498803581E+02  0.41800000000E+01 0.  1.
        -11    1    1    2    0    0 -0.13621639156E+02  0.71595870574E+02  0.54190023435E+01  0.73081347298E+02  0.00000000000E+00 0.  1.
         11    1    1    2    0    0  0.15021769040E+02  0.27110675936E+02 -0.68348631128E+02  0.75047835891E+02  0.00000000000E+00 0. -1.
</event>
<event>
 7    1  0.2899775E-009  0.1250672E+03  0.7561462E-02  0.1234964E+00
         -2   -1    0    0    0  501 -0.00000000000E+00  0.00000000000E+00  0.43115913761E+02  0.43115913761E+02  0.00000000000E+00 0.  1.
          2   -1    0    0  501    0  0.00000000000E+00 -0.00000000000E+00 -0.54172573996E+03  0.54172573996E+03  0.00000000000E+00 0. -1.
         25    2    1    2    0    0  0.26295540729E+02  0.89569509594E+02 -0.36466796715E+03  0.39666781959E+03  0.12509388603E+03 0.  0.
          5    1    3    3  502    0  0.31887577291E+02 -0.25049253105E+02 -0.10989879447E+03  0.11721561369E+03  0.41800000000E+01 0. -1.
         -5    1    3    3    0  502 -0.55920365628E+01  0.11461876270E+03 -0.25476917268E+03  0.27945220590E+03  0.41800000000E+01 0. -1.
        -11    1    1    2    0    0 -0.22572556152E+02 -0.50780979454E+02 -0.13821976891E+03  0.14897292601E+03  0.00000000000E+00 0. -1.
         11    1    1    2    0    0 -0.37229845769E+01 -0.38788530140E+02  0.42779098640E+01  0.39200908120E+02  0.00000000000E+00 0.  1.
</event>
<event>
 7    1  0.2899775E-009  0.1189993E+03  0.7561462E-02  0.1244757E+00
          2   -1    0    0  501    0  0.00000000000E+00  0.00000000000E+00  0.82368973220E+02  0.82368973220E+02  0.00000000000E+00 0. -1.
         -2   -1    0    0    0  501 -0.00000000000E+00 -0.00000000000E+00 -0.23712288576E+03  0.23712288576E+03  0.00000000000E+00 0.  1.
         25    2    1    2    0    0  0.32052412981E+02 -0.65742244309E+02 -0.29252662648E+02  0.14782802989E+03  0.12509199929E+03 0.  0.
          5    1    3    3  502    0  0.31582666875E+01 -0.88015201104E+02 -0.54141667132E+02  0.10346710972E+03  0.41800000000E+01 0.  1.
         -5    1    3    3    0  502  0.28894146293E+02  0.22272956795E+02  0.24889004484E+02  0.44360920174E+02  0.41800000000E+01 0.  1.
        -11    1    1    2    0    0 -0.30163091843E+02  0.86837541968E+02 -0.11711515086E+03  0.14888428180E+03  0.00000000000E+00 0.  1.
         11    1    1    2    0    0 -0.18893211379E+01 -0.21095297660E+02 -0.83860990241E+01  0.22779547286E+02  0.00000000000E+00 0. -1.
</event>
<event>
 7    1  0.2899775E-009  0.4859016E+02  0.7561462E-02  0.1453098E+00
          1   -1    0    0  501    0  0.00000000000E+00  0.00000000000E+00  0.21065139926E+03  0.21065139926E+03  0.00000000000E+00 0. -1.
         -1   -1    0    0    0  501 -0.00000000000E+00 -0.00000000000E+00 -0.15273614068E+03  0.15273614068E+03  0.00000000000E+00 0.  1.
         25    2    1    2    0    0 -0.17616997401E+02  0.67127388176E+01  0.17363330036E+03  0.21483307632E+03  0.12509719513E+03 0.  0.
          5    1    3    3  502    0 -0.23689871940E+02  0.12918970893E+02  0.19208517471E+03  0.19401622764E+03  0.41800000000E+01 0.  1.
         -5    1    3    3    0  502  0.60728745393E+01 -0.62062320759E+01 -0.18451874358E+02  0.20816848683E+02  0.41800000000E+01 0.  1.
        -11    1    1    2    0    0 -0.16003902870E+02  0.13561655318E+02 -0.10607147321E+03  0.10812585644E+03  0.00000000000E+00 0.  1.
         11    1    1    2    0    0  0.33620900271E+02 -0.20274394136E+02 -0.96465685619E+01  0.40428607169E+02  0.00000000000E+00 0. -1.
</event>
<event>
 7    1  0.2899775E-009  0.2906368E+03  0.7561462E-02  0.1090017E+00
          4   -1    0    0  501    0  0.00000000000E+00  0.00000000000E+00  0.41319020532E+03  0.41319020532E+03  0.00000000000E+00 0. -1.
         -4   -1    0    0    0  501 -0.00000000000E+00 -0.00000000000E+00 -0.21308595844E+03  0.21308595844E+03  0.00000000000E+00 0.  1.
         25    2    1    2    0    0  0.15627192931E+03  0.22435900022E+03  0.77076040176E+02  0.31039709511E+03  0.12509102213E+03 0.  0.
          5    1    3    3  502    0  0.16984235898E+03  0.18944362722E+03  0.90952402205E+02  0.27023161670E+03  0.41800000000E+01 0. -1.
         -5    1    3    3    0  502 -0.13570429671E+02  0.34915372998E+02 -0.13876362029E+02  0.40165478414E+02  0.41800000000E+01 0. -1.
        -11    1    1    2    0    0 -0.10585538508E+03 -0.70440768067E+02  0.36685982539E+02  0.13233716663E+03  0.00000000000E+00 0.  1.
         11    1    1    2    0    0 -0.50416544229E+02 -0.15391823215E+03  0.86342224165E+02  0.18354190201E+03  0.00000000000E+00 0. -1.
</event>
<event>
 7    1  0.2899775E-009  0.1127710E+03  0.7561462E-02  0.1255523E+00
          1   -1    0    0  501    0  0.00000000000E+00  0.00000000000E+00  0.30038315858E+03  0.30038315858E+03  0.00000000000E+00 0. -1.
         -1   -1    0    0    0  501 -0.00000000000E+00 -0.00000000000E+00 -0.77425615623E+02  0.77425615623E+02  0.00000000000E+00 0.  1.
         25    2    1    2    0    0  0.13528912977E+01 -0.91240622617E+02  0.19132282391E+03  0.24612733016E+03  0.12509020014E+03 0.  0.
          5    1    3    3  502    0  0.24416705730E+02 -0.69942874285E+02  0.19997446280E+03  0.21329659949E+03  0.41800000000E+01 0.  1.
         -5    1    3    3    0  502 -0.23063814432E+02 -0.21297748332E+02 -0.86516388969E+01  0.32830730661E+02  0.41800000000E+01 0.  1.
        -11    1    1    2    0    0 -0.22193995535E+02 -0.36737951956E+01  0.25944623399E+02  0.34339389806E+02  0.00000000000E+00 0.  1.
         11    1    1    2    0    0  0.20841104238E+02  0.94914417813E+02  0.56900956457E+01  0.97342054237E+02  0.00000000000E+00 0. -1.
</event>
<event>
 7    1  0.2899775E-009  0.1345831E+03  0.7561462E-02  0.1220809E+00
         -1   -1    0    0    0  501 -0.00000000000E+00  0.00000000000E+00  0.57315931098E+02  0.57315931098E+02  0.00000000000E+00 0.  1.
          1   -1    0    0  501    0  0.00000000000E+00 -0.00000000000E+00 -0.38667372467E+03  0.38667372467E+03  0.00000000000E+00 0. -1.
         25    2    1    2    0    0 -0.66106851606E+02  0.43845253079E+02 -0.83731508598E+02  0.17014701994E+03  0.12508605364E+03 0.  0.
          5    1    3    3  502    0 -0.34835985688E+02  0.87490780418E+02 -0.53092676672E+02  0.10818727870E+03  0.41800000000E+01 0.  1.
         -5    1    3    3    0  502 -0.31270865917E+02 -0.43645527338E+02 -0.30638831926E+02  0.61959741233E+02  0.41800000000E+01 0.  1.
        -11    1    1    2    0    0  0.54989607554E+02  0.18270662649E+02 -0.12005995366E+03  0.13331191441E+03  0.00000000000E+00 0.  1.
         11    1    1    2    0    0  0.11117244052E+02 -0.62115915728E+02 -0.12556633131E+03  0.14053072142E+03  0.00000000000E+00 0. -1.
</event>
<event>
 7    1  0.2899775E-009  0.8503627E+02  0.7561462E-02  0.1315338E+00
          2   -1    0    0  501    0  0.00000000000E+00  0.00000000000E+00  0.34867218206E+03  0.34867218206E+03  0.00000000000E+00 0. -1.
         -2   -1    0    0    0  501 -0.00000000000E+00 -0.00000000000E+00 -0.72244669179E+02  0.72244669179E+02  0.00000000000E+00 0.  1.
         25    2    1    2    0    0  0.34325576494E+02 -0.23090510980E+02  0.29049699384E+03  0.31897902891E+03  0.12509076925E+03 0.  0.
          5    1    3    3  502    0  0.52467857256E+02  0.26145481473E+01  0.28092910784E+03  0.28582922863E+03  0.41800000000E+01 0. -1.
         -5    1    3    3    0  502 -0.18142280761E+02 -0.25705059127E+02  0.95678860048E+01  0.33149800279E+02  0.41800000000E+01 0. -1.
        -11    1    1    2    0    0  0.16343034295E+02 -0.15048585997E+02 -0.29247540779E+02  0.36728372576E+02  0.00000000000E+00 0.  1.
         11    1    1    2    0    0 -0.50668610789E+02  0.38139096976E+02  0.15178059815E+02  0.65209449754E+02  0.00000000000E+00 0. -1.
</event>
<event>
 7    1  0.2899775E-009  0.1208658E+03  0.7561462E-02  0.1241676E+00
          1   -1    0    0  501    0  0.00000000000E+00  0.00000000000E+00  0.38723510388E+03  0.38723510388E+03  0.00000000000E+00 0. -1.
         -1   -1    0    0    0  501 -0.00000000000E+00 -0.00000000000E+00 -0.43731619019E+02  0.43731619019E+02  0.00000000000E+00 0.  1.
         25    2    1    2    0    0  0.81920209824E+02 -0.76868226250E+01  0.13153805677E+03  0.19929931332E+03  0.12509175789E+03 0.  0.
          5    1    3    3  502    0  0.45756205308E+02  0.57864737592E+02  0.54649740365E+02  0.91902256243E+02  0.41800000000E+01 0. -1.
         -5    1    3    3    0  502  0.36164004516E+02 -0.65551560217E+02  0.76888316405E+02  0.10739705708E+03  0.41800000000E+01 0. -1.
        -11    1    1    2    0    0 -0.30902822109E+02  0.24186364768E+02  0.76541528276E+02  0.86014941759E+02  0.00000000000E+00 0.  1.
         11    1    1    2    0    0 -0.51017387715E+02 -0.16499542143E+02  0.13542389981E+03  0.14565246782E+03  0.00000000000E+00 0. -1.
</event>
<event>
 7    1  0.2899775E-009  0.1554202E+03  0.7561462E-02  0.1193967E+00
         -2   -1    0    0    0  501 -0.00000000000E+00  0.00000000000E+00  0.28485677941E+02  0.28485677941E+02  0.00000000000E+00 0.  1.
          2   -1    0    0  501    0  0.00000000000E+00 -0.00000000000E+00 -0.10917243011E+04  0.10917243011E+04  0.00000000000E+00 0. -1.
         25    2    1    2    0    0  0.13209226532E+03 -0.10218586928E+02 -0.69624520500E+03  0.71969279572E+03  0.12509016208E+03 0.  0.
          5    1    3    3  502    0  0.15149409684E+03 -0.18281972748E+02 -0.51387615536E+03  0.53606983440E+03  0.41800000000E+01 0.  1.
         -5    1    3    3    0  502 -0.19401831521E+02  0.80633858203E+01 -0.18236904964E+03  0.18362296132E+03  0.41800000000E+01 0.  1.
        -11    1    1    2    0    0 -0.67294593089E+02  0.22219155006E+02 -0.29292841900E+03  0.30137901680E+03  0.00000000000E+00 0. -1.
         11    1    1    2    0    0 -0.64797672232E+02 -0.12000568078E+02 -0.74064999148E+02  0.99138166513E+02  0.00000000000E+00 0.  1.
</event>
<event>
 7    1  0.2899775E-009  0.8752896E+02  0.7561462E-02  0.1308948E+00
         -1   -1    0    0    0  501 -0.00000000000E+00  0.00000000000E+00  0.20264480785E+02  0.20264480785E+02  0.00000000000E+00 0.  1.
          1   -1    0    0  501    0  0.00000000000E+00 -0.00000000000E+00 -0.80618404824E+03  0.80618404824E+03  0.00000000000E+00 0. -1.
         25    2    1    2    0    0  0.50193702363E+02 -0.40013017579E+02 -0.36448307430E+03  0.39066064242E+03  0.12508947499E+03 0.  0.
          5    1    3    3  502    0  0.21093702990E+02 -0.24609760773E+02 -0.93670643093E+01  0.33997042885E+02  0.41800000000E+01 0. -1.
         -5    1    3    3    0  502  0.29099999372E+02 -0.15403256806E+02 -0.35511600999E+03  0.35666359954E+03  0.41800000000E+01 0. -1.
        -11    1    1    2    0    0 -0.60146500141E+02 -0.75278617108E+01 -0.27133691548E+03  0.27802516412E+03  0.00000000000E+00 0.  1.
         11    1    1    2    0    0  0.99527977787E+01  0.47540879290E+02 -0.15009957767E+03  0.15776272248E+03  0.00000000000E+00 0. -1.
</event>
<event>
 7    1  0.2899775E-009  0.1023414E+03  0.7561462E-02  0.1275448E+00
          2   -1    0    0  501    0  0.00000000000E+00  0.00000000000E+00  0.94383897144E+03  0.94383897144E+03  0.00000000000E+00 0. -1.
         -2   -1    0    0    0  501 -0.00000000000E+00 -0.00000000000E+00 -0.28354105223E+02  0.28354105223E+02  0.00000000000E+00 0.  1.
         25    2    1    2    0    0 -0.54832828574E+02  0.46901560839E+02  0.78205960444E+03  0.79528077186E+03  0.12509150927E+03 0.  0.
          5    1    3    3  502    0  0.19478764043E+02  0.20650879556E+02  0.41075030320E+02  0.50105005646E+02  0.41800000000E+01 0.  1.
         -5    1    3    3    0  502 -0.74311592617E+02  0.26250681283E+02  0.74098457412E+03  0.74517576621E+03  0.41800000000E+01 0.  1.
        -11    1    1    2    0    0  0.47327757953E+02 -0.63297130094E+02  0.54623354097E+02  0.96073691320E+02  0.00000000000E+00 0.  1.
         11    1    1    2    0    0  0.75050706208E+01  0.16395569256E+02  0.78801907676E+02  0.80838613481E+02  0.00000000000E+00 0. -1.
</event>
<event>
 7    1  0.2899775E-009  0.1427702E+03  0.7561462E-02  0.1209649E+00
          2   -1    0    0  501    0  0.00000000000E+00  0.00000000000E+00  0.49605069361E+03  0.49605069361E+03  0.00000000000E+00 0. -1.
         -2   -1    0    0    0  501 -0.00000000000E+00 -0.00000000000E+00 -0.41574915152E+02  0.41574915152E+02  0.00000000000E+00 0.  1.
         25    2    1    2    0    0 -0.74565905972E+02  0.57009427511E+02  0.23083831426E+03  0.27882596711E+03  0.12508974158E+03 0.  0.
          5    1    3    3  502    0  0.24152979829E+02 -0.19001467340E+02  0.57270541364E+02  0.65129175519E+02  0.41800000000E+01 0. -1.
         -5    1    3    3    0  502 -0.98718885801E+02  0.76010894852E+02  0.17356777289E+03  0.21369679159E+03  0.41800000000E+01 0. -1.
        -11    1    1    2    0    0  0.94971442205E+02 -0.39069053230E+02  0.18451544452E+03  0.21116797821E+03  0.00000000000E+00 0.  1.
         11    1    1    2    0    0 -0.20405536232E+02 -0.17940374281E+02  0.39122019683E+02  0.47631663443E+02  0.00000000000E+00 0. -1.
</event>
<event>
 7    1  0.2899775E-009  0.1096899E+03  0.7561462E-02  0.1261145E+00
         -2   -1    0    0    0  501 -0.00000000000E+00  0.00000000000E+00  0.27082080613E+03  0.27082080613E+03  0.00000000000E+00 0. -1.
          2   -1    0    0  501    0  0.00000000000E+00 -0.00000000000E+00 -0.51080407229E+02  0.51080407229E+02  0.00000000000E+00 0.  1.
         25    2    1    2    0    0  0.15353395700E+02 -0.10666421242E+02  0.18161661167E+03  0.22131873422E+03  0.12509152321E+03 0.  0.
          5    1    3    3  502    0 -0.53019119588E+02  0.11436992648E+02  0.82625662914E+02  0.98925752030E+02  0.41800000000E+01 0.  1.
         -5    1    3    3    0  502  0.68372515288E+02 -0.22103413889E+02  0.98990948759E+02  0.12239298219E+03  0.41800000000E+01 0.  1.
        -11    1    1    2    0    0 -0.32773441421E+02  0.44311826222E+02  0.24571792690E+02  0.60344091688E+02  0.00000000000E+00 0.  1.
         11    1    1    2    0    0  0.17420045721E+02 -0.33645404980E+02  0.13551994542E+02  0.40238387458E+02  0.00000000000E+00 0. -1.
</event>
<event>
 7    1  0.2899775E-009  0.1817210E+03  0.7561462E-02  0.1166148E+00
         -1   -1    0    0    0  501 -0.00000000000E+00  0.00000000000E+00  0.47845557823E+02  0.47845557823E+02  0.00000000000E+00 0.  1.
          1   -1    0    0  501    0  0.00000000000E+00 -0.00000000000E+00 -0.87564196192E+03  0.87564196192E+03  0.00000000000E+00 0. -1.
         25    2    1    2    0    0 -0.17220941914E+02 -0.16961584690E+03 -0.38287764285E+03  0.43738873484E+03  0.12509004599E+03 0.  0.
          5    1    3    3  502    0  0.22388269575E+00 -0.10337846798E+03 -0.91757229291E+02  0.13828962106E+03  0.41800000000E+01 0.  1.
         -5    1    3    3    0  502 -0.17444824610E+02 -0.66237378920E+02 -0.29112041356E+03  0.29909911378E+03  0.41800000000E+01 0.  1.
        -11    1    1    2    0    0 -0.32968587390E+02  0.36986637063E+02 -0.74581409595E+02  0.89539520509E+02  0.00000000000E+00 0.  1.
         11    1    1    2    0    0  0.50189529304E+02  0.13262920983E+03 -0.37033735165E+03  0.39655926440E+03  0.00000000000E+00 0. -1.
</event>
<event>
 7    1  0.2899775E-009  0.1047979E+03  0.7561462E-02  0.1270518E+00
         -2   -1    0    0    0  501 -0.00000000000E+00  0.00000000000E+00  0.11260223998E+03  0.11260223998E+03  0.00000000000E+00 0.  1.
          2   -1    0    0  501    0  0.00000000000E+00 -0.00000000000E+00 -0.20492514707E+03  0.20492514707E+03  0.00000000000E+00 0. -1.
         25    2    1    2    0    0  0.65275213410E+02 -0.63805190612E+02  0.79061609198E+01  0.15505705110E+03  0.12509286903E+03 0.  0.
          5    1    3    3  502    0  0.35488523349E+00 -0.39060355131E+02 -0.50650165943E+02  0.64099524152E+02  0.41800000000E+01 0.  1.
         -5    1    3    3    0  502  0.64920328177E+02 -0.24744835482E+02  0.58556326863E+02  0.90957526952E+02  0.41800000000E+01 0.  1.
        -11    1    1    2    0    0 -0.27635056812E+02  0.55739930069E+02 -0.10662459616E+03  0.12344812949E+03  0.00000000000E+00 0. -1.
         11    1    1    2    0    0 -0.37640156599E+02  0.80652605431E+01  0.63955281470E+01  0.39022206456E+02  0.00000000000E+00 0.  1.
</event>
<event>
 7    1  0.2899775E-009  0.1347743E+03  0.7561462E-02  0.1220539E+00
          2   -1    0    0  501    0  0.00000000000E+00  0.00000000000E+00  0.54484848650E+03  0.54484848650E+03  0.00000000000E+00 0.  1.
         -2   -1    0    0    0  501 -0.00000000000E+00 -0.00000000000E+00 -0.48247361604E+02  0.48247361604E+02  0.00000000000E+00 0. -1.
         25    2    1    2    0    0  0.10410155115E+03  0.34019720972E+02  0.34963331476E+03  0.38715006967E+03  0.12508895748E+03 0.  0.
          5    1    3    3  502    0  0.83049927159E+02  0.73339024675E+02  0.17750112863E+03  0.20928455750E+03  0.41800000000E+01 0.  1.
         -5    1    3    3    0  502  0.21051623994E+02 -0.39319303703E+02  0.17213218613E+03  0.17786551217E+03  0.41800000000E+01 0.  1.
        -11    1    1    2    0    0 -0.90540632659E+02 -0.17011597326E+02  0.15696742442E+03  0.18200487064E+03  0.00000000000E+00 0.  1.
         11    1    1    2    0    0 -0.13560918494E+02 -0.17008123647E+02 -0.99996142901E+01  0.23940907801E+02  0.00000000000E+00 0. -1.
</event>
<event>
 7    1  0.2899775E-009  0.1000059E+03  0.7561462E-02  0.1280284E+00
          2   -1    0    0  501    0  0.00000000000E+00  0.00000000000E+00  0.18675181139E+04  0.18675181139E+04  0.00000000000E+00 0. -1.
         -2   -1    0    0    0  501 -0.00000000000E+00 -0.00000000000E+00 -0.26229013723E+02  0.26229013723E+02  0.00000000000E+00 0.  1.
         25    2    1    2    0    0 -0.57340102286E+02 -0.31082704198E+02  0.17286083514E+04  0.17343553294E+04  0.12509018452E+03 0.  0.
          5    1    3    3  502    0 -0.33307367417E+01 -0.44670790057E+02  0.14213921063E+04  0.14221039222E+04  0.41800000000E+01 0. -1.
         -5    1    3    3    0  502 -0.54009365545E+02  0.13588085858E+02  0.30721624504E+03  0.31225140714E+03  0.41800000000E+01 0. -1.
        -11    1    1    2    0    0  0.75727764517E+02  0.26413257027E+02  0.11507903004E+03  0.14026951779E+03  0.00000000000E+00 0.  1.
         11    1    1    2    0    0 -0.18387662231E+02  0.46694471718E+01 -0.23982811881E+01  0.19122280509E+02  0.00000000000E+00 0. -1.
</event>
<event>
 7    1  0.2899775E-009  0.1165994E+03  0.7561462E-02  0.1248815E+00
         -1   -1    0    0    0  501 -0.00000000000E+00  0.00000000000E+00  0.45798235257E+02  0.45798235257E+02  0.00000000000E+00 0.  1.
          1   -1    0    0  501    0  0.00000000000E+00 -0.00000000000E+00 -0.44341463409E+03  0.44341463409E+03  0.00000000000E+00 0. -1.
         25    2    1    2    0    0  0.72901073369E+01 -0.43256026217E+02 -0.83923207306E+02  0.15689074362E+03  0.12508945296E+03 0.  0.
          5    1    3    3  502    0 -0.47497278933E+02  0.16845791126E+02 -0.25255222821E+02  0.56524957890E+02  0.41800000000E+01 0. -1.
         -5    1    3    3    0  502  0.54787386270E+02 -0.60101817343E+02 -0.58667984485E+02  0.10036578573E+03  0.41800000000E+01 0. -1.
        -11    1    1    2    0    0 -0.29882153241E+02  0.63932363553E+02 -0.14978361896E+03  0.16557603299E+03  0.00000000000E+00 0.  1.
         11    1    1    2    0    0  0.22592045904E+02 -0.20676337336E+02 -0.16390957256E+03  0.16674609273E+03  0.00000000000E+00 0. -1.
</event>
<event>
 7    1  0.2899775E-009  0.7035068E+02  0.7561462E-02  0.1358905E+00
          1   -1    0    0  501    0  0.00000000000E+00  0.00000000000E+00  0.41400338112E+03  0.41400338112E+03  0.00000000000E+00 0.  1.
         -1   -1    0    0    0  501 -0.00000000000E+00 -0.00000000000E+00 -0.32708918658E+02  0.32708918658E+02  0.00000000000E+00 0. -1.
         25    2    1    2    0    0  0.38771289891E+02 -0.30073095411E+01  0.16772256747E+03  0.21281378961E+03  0.12508634050E+03 0.  0.
          5    1    3    3  502    0  0.28799582284E+02  0.27552349710E+02  0.17505097324E+03  0.17957968578E+03  0.41800000000E+01 0.  1.
         -5    1    3    3    0  502  0.99717076072E+01 -0.30559659251E+02 -0.73284057703E+01  0.33234103828E+02  0.41800000000E+01 0.  1.
        -11    1    1    2    0    0  0.13437111049E+02 -0.68451903763E+01  0.13652117528E+01  0.15141875305E+02  0.00000000000E+00 0. -1.
         11    1    1    2    0    0 -0.52208400940E+02  0.98524999174E+01  0.21220668324E+03  0.21875663486E+03  0.00000000000E+00 0.  1.
</event>
<event>
 7    1  0.2899775E-009  0.1003361E+03  0.7561462E-02  0.1279591E+00
          2   -1    0    0  501    0  0.00000000000E+00  0.00000000000E+00  0.49359316101E+03  0.49359316101E+03  0.00000000000E+00 0. -1.
         -2   -1    0    0    0  501 -0.00000000000E+00 -0.00000000000E+00 -0.57581162761E+02  0.57581162761E+02  0.00000000000E+00 0.  1.
         25    2    1    2    0    0 -0.15808709297E+02 -0.29895821971E+02  0.43483679690E+03  0.45373303529E+03  0.12508777683E+03 0.  0.
          5    1    3    3  502    0  0.49382280864E+02 -0.54344525364E+01  0.27282299243E+03  0.27734094638E+03  0.41800000000E+01 0.  1.
         -5    1    3    3    0  502 -0.65190990160E+02 -0.24461369435E+02  0.16201380447E+03  0.17639208892E+03  0.41800000000E+01 0.  1.
        -11    1    1    2    0    0 -0.27096273334E+02 -0.26269330314E+01  0.26457742439E+02  0.37962098739E+02  0.00000000000E+00 0. -1.
         11    1    1    2    0    0  0.42904982630E+02  0.32522755003E+02 -0.25282541096E+02  0.59479189736E+02  0.00000000000E+00 0.  1.
</event>
<event>
 7    1  0.2899775E-009  0.9043610E+02  0.7561462E-02  0.1301799E+00
          2   -1    0    0  501    0  0.00000000000E+00  0.00000000000E+00  0.49461002162E+02  0.49461002162E+02  0.00000000000E+00 0. -1.
         -2   -1    0    0    0  501 -0.00000000000E+00 -0.00000000000E+00 -0.23041580451E+03  0.23041580451E+03  0.00000000000E+00 0.  1.
         25    2    1    2    0    0 -0.29554813920E+02 -0.85097614663E+01 -0.11912302800E+03  0.17545175288E+03  0.12508844360E+03 0.  0.
          5    1    3    3  502    0 -0.14479631834E+02  0.41845608821E+02 -0.11412550339E+03  0.12248598956E+03  0.41800000000E+01 0. -1.
         -5    1    3    3    0  502 -0.15075182086E+02 -0.50355370287E+02 -0.49975246133E+01  0.52965763319E+02  0.41800000000E+01 0. -1.
        -11    1    1    2    0    0 -0.25553571673E+02 -0.68524102546E+01 -0.14470892528E+02  0.30155385624E+02  0.00000000000E+00 0. -1.
         11    1    1    2    0    0  0.55108385593E+02  0.15362171721E+02 -0.47360881817E+02  0.74269668164E+02  0.00000000000E+00 0.  1.
</event>
<event>
 7    1  0.2899775E-009  0.1199537E+03  0.7561462E-02  0.1243173E+00
          1   -1    0    0  501    0  0.00000000000E+00  0.00000000000E+00  0.78784873168E+03  0.78784873168E+03  0.00000000000E+00 0. -1.
         -1   -1    0    0    0  501 -0.00000000000E+00 -0.00000000000E+00 -0.39967880981E+02  0.39967880981E+02  0.00000000000E+00 0.  1.
         25    2    1    2    0    0 -0.30446471745E+02 -0.41370504349E+02  0.69879255955E+03  0.71175648357E+03  0.12509094431E+03 0.  0.
          5    1    3    3  502    0 -0.50101420188E+01  0.44799394516E+02  0.23839940286E+03  0.24265991625E+03  0.41800000000E+01 0. -1.
         -5    1    3    3    0  502 -0.25436329726E+02 -0.86169898865E+02  0.46039315669E+03  0.46909656732E+03  0.41800000000E+01 0. -1.
        -11    1    1    2    0    0 -0.21521012880E+02  0.47710381765E+02  0.30053339764E+02  0.60354268735E+02  0.00000000000E+00 0. -1.
         11    1    1    2    0    0  0.51967484625E+02 -0.63398774155E+01  0.19034951385E+02  0.55705860357E+02  0.00000000000E+00 0.  1.
</event>
<event>
 7    1  0.2899775E-009  0.1136647E+03  0.7561462E-02  0.1253930E+00
         -2   -1    0    0    0  501 -0.00000000000E+00  0.00000000000E+00  0.36452783344E+03  0.36452783344E+03  0.00000000000E+00 0. -1.
          2   -1    0    0  501    0  0.00000000000E+00 -0.00000000000E+00 -0.10802932300E+03  0.10802932300E+03  0.00000000000E+00 0.  1.
         25    2    1    2    0    0 -0.76400312035E+01  0.94854720663E+02 -0.27892047569E+02  0.15962850787E+03  0.12508999199E+03 0.  0.
          5    1    3    3  502    0  0.85823813412E+01  0.55877039107E+02 -0.76433492772E+02  0.95160138641E+02  0.41800000000E+01 0. -1.
         -5    1    3    3    0  502 -0.16222412545E+02  0.38977681555E+02  0.48541445203E+02  0.64468369226E+02  0.41800000000E+01 0. -1.
        -11    1    1    2    0    0  0.29162804097E+02  0.17781265026E+01  0.42612531303E+02  0.51666804630E+02  0.00000000000E+00 0.  1.
         11    1    1    2    0    0 -0.21522772893E+02 -0.96632847165E+02  0.24177802671E+03  0.26126184395E+03  0.00000000000E+00 0. -1.
</event>
<event>
 7    1  0.2899775E-009  0.8897280E+02  0.7561462E-02  0.1305358E+00
         -1   -1    0    0    0  501 -0.00000000000E+00  0.00000000000E+00  0.12026255621E+03  0.12026255621E+03  0.00000000000E+00 0.  1.
          1   -1    0    0  501    0  0.00000000000E+00 -0.00000000000E+00 -0.11170721414E+03  0.11170721414E+03  0.00000000000E+00 0. -1.
         25    2    1    2    0    0 -0.35195200349E+02 -0.14532574151E+02  0.20365464190E+02  0.13233506936E+03  0.12509164885E+03 0.  0.
          5    1    3    3  502    0 -0.58187406083E+02  0.24570817896E+02  0.47653760249E+02  0.79232900898E+02  0.41800000000E+01 0.  1.
         -5    1    3    3    0  502  0.22992205735E+02 -0.39103392047E+02 -0.27288296059E+02  0.53102168467E+02  0.41800000000E+01 0.  1.
        -11    1    1    2    0    0  0.43484227539E+02  0.29105034048E+02 -0.40660741257E+02  0.66266710581E+02  0.00000000000E+00 0. -1.
         11    1    1    2    0    0 -0.82890271908E+01 -0.14572459897E+02  0.28850619140E+02  0.33367990410E+02  0.00000000000E+00 0.  1.
</event>
<event>
 7    1  0.2899775E-009  0.9241039E+02  0.7561462E-02  0.1297117E+00
          2   -1    0    0  501    0  0.00000000000E+00  0.00000000000E+00  0.32877727607E+03  0.32877727607E+03  0.00000000000E+00 0. -1.
         -2   -1    0    0    0  501 -0.00000000000E+00 -0.00000000000E+00 -0.40229654549E+02  0.40229654549E+02  0.00000000000E+00 0.  1.
         25    2    1    2    0    0  0.31888475868E+02  0.16094989669E+02  0.13885425581E+03  0.19027346283E+03  0.12509021829E+03 0.  0.
          5    1    3    3  502    0  0.56153436319E+02 -0.36379518240E+02  0.47798574560E+02  0.82333795538E+02  0.41800000000E+01 0. -1.
         -5    1    3    3    0  502 -0.24264960451E+02  0.52474507909E+02  0.91055681251E+02  0.10793966729E+03  0.41800000000E+01 0. -1.
        -11    1    1    2    0    0 -0.44410724193E+02 -0.16263317276E+02  0.15718109899E+03  0.16414233394E+03  0.00000000000E+00 0. -1.
         11    1    1    2    0    0  0.12522248325E+02  0.16832760719E+00 -0.74877332829E+01  0.14591133850E+02  0.00000000000E+00 0.  1.
</event>
<event>
 7    1  0.2899775E-009  0.8133344E+02  0.7561462E-02  0.1325309E+00
          2   -1    0    0  501    0  0.00000000000E+00  0.00000000000E+00  0.77980799586E+02  0.77980799586E+02  0.00000000000E+00 0. -1.
         -2   -1    0    0    0  501 -0.00000000000E+00 -0.00000000000E+00 -0.45628923222E+03  0.45628923222E+03  0.00000000000E+00 0.  1.
         25    2    1    2    0    0 -0.30646998562E+02  0.54415840033E+02 -0.39841156274E+03  0.42223212079E+03  0.12509143992E+03 0.  0.
          5    1    3    3  502    0  0.55627561512E+01 -0.33267646324E+01  0.74161388520E+01  0.10699679172E+02  0.41800000000E+01 0.  1.
         -5    1    3    3    0  502 -0.36209754714E+02  0.57742604665E+02 -0.40582770159E+03  0.41153244162E+03  0.41800000000E+01 0.  1.
        -11    1    1    2    0    0  0.51303739528E+01 -0.60271536375E+02  0.45401066614E+02  0.75632239710E+02  0.00000000000E+00 0. -1.
         11    1    1    2    0    0  0.25516624610E+02  0.58556963423E+01 -0.25297936508E+02  0.36405671298E+02  0.00000000000E+00 0.  1.
</event>
<event>
 7    1  0.2899775E-009  0.9270560E+02  0.7561462E-02  0.1296429E+00
          2   -1    0    0  501    0  0.00000000000E+00  0.00000000000E+00  0.10176582532E+04  0.10176582532E+04  0.00000000000E+00 0. -1.
         -2   -1    0    0    0  501 -0.00000000000E+00 -0.00000000000E+00 -0.16389726830E+02  0.16389726830E+02  0.00000000000E+00 0.  1.
         25    2    1    2    0    0  0.61450719990E+02  0.33147985826E+02  0.55418410262E+03  0.57240667009E+03  0.12511753039E+03 0.  0.
          5    1    3    3  502    0  0.21959882891E+02  0.89914171770E+01  0.97510751582E+01  0.25993035725E+02  0.41800000000E+01 0. -1.
         -5    1    3    3    0  502  0.39490837099E+02  0.24156568649E+02  0.54443302746E+03  0.54641363436E+03  0.41800000000E+01 0. -1.
        -11    1    1    2    0    0 -0.85594910290E+02 -0.28744118795E+02  0.36169940575E+03  0.37279910562E+03  0.00000000000E+00 0.  1.
         11    1    1    2    0    0  0.24144190300E+02 -0.44038670311E+01  0.85385017992E+02  0.88842204315E+02  0.00000000000E+00 0. -1.
</event>
<event>
 7    1  0.2899775E-009  0.1455992E+03  0.7561462E-02  0.1205987E+00
         -4   -1    0    0    0  501 -0.00000000000E+00  0.00000000000E+00  0.40758261876E+03  0.40758261876E+03  0.00000000000E+00 0.  1.
          4   -1    0    0  501    0  0.00000000000E+00 -0.00000000000E+00 -0.84479131654E+02  0.84479131654E+02  0.00000000000E+00 0. -1.
         25    2    1    2    0    0  0.96663221671E+02 -0.10716736530E+03  0.10693062972E+03  0.21888292124E+03  0.12508777330E+03 0.  0.
          5    1    3    3  502    0  0.31848904007E+02 -0.53551254005E+02 -0.20857474381E+02  0.65837649787E+02  0.41800000000E+01 0.  1.
         -5    1    3    3    0  502  0.64814317664E+02 -0.53616111290E+02  0.12778810410E+03  0.15304527145E+03  0.41800000000E+01 0.  1.
        -11    1    1    2    0    0 -0.50879426088E+02  0.50589402523E+02  0.17596105733E+03  0.19002709634E+03  0.00000000000E+00 0.  1.
         11    1    1    2    0    0 -0.45783795583E+02  0.56577962772E+02  0.40211800052E+02  0.83151732831E+02  0.00000000000E+00 0. -1.
</event>
<event>
 7    1  0.2899775E-009  0.1129142E+03  0.7561462E-02  0.1255266E+00
          2   -1    0    0  501    0  0.00000000000E+00  0.00000000000E+00  0.66964252104E+03  0.66964252104E+03  0.00000000000E+00 0. -1.
         -2   -1    0    0    0  501 -0.00000000000E+00 -0.00000000000E+00 -0.36060428827E+02  0.36060428827E+02  0.00000000000E+00 0.  1.
         25    2    1    2    0    0 -0.86464898212E+02  0.67854056377E+02  0.32069980330E+03  0.36135482900E+03  0.12509435245E+03 0.  0.
          5    1    3    3  502    0 -0.11349538882E+02 -0.11038128085E+01 -0.97060741566E+01  0.15547048308E+02  0.41800000000E+01 0.  1.
         -5    1    3    3    0  502 -0.75115359329E+02  0.68957869186E+02  0.33040587746E+03  0.34580778069E+03  0.41800000000E+01 0.  1.
        -11    1    1    2    0    0  0.25253321696E+02 -0.31733071509E+02  0.24598512106E+02  0.47432108132E+02  0.00000000000E+00 0.  1.
         11    1    1    2    0    0  0.61211576516E+02 -0.36120984868E+02  0.28828377681E+03  0.29691601273E+03  0.00000000000E+00 0. -1.
</event>
<event>
 7    1  0.2899775E-009  0.3459349E+03  0.7561462E-02  0.1064296E+00
         -1   -1    0    0    0  501 -0.00000000000E+00  0.00000000000E+00  0.20577405203E+03  0.20577405203E+03  0.00000000000E+00 0.  1.
          1   -1    0    0  501    0  0.00000000000E+00 -0.00000000000E+00 -0.62171895827E+03  0.62171895827E+03  0.00000000000E+00 0. -1.
         25    2    1    2    0    0  0.31188753479E+03 -0.12494348995E+03 -0.14676797595E+03  0.38739464793E+03  0.12509622074E+03 0.  0.
          5    1    3    3  502    0  0.20103024879E+03 -0.28536766902E+02 -0.12590078216E+03  0.23894766654E+03  0.41800000000E+01 0. -1.
         -5    1    3    3    0  502  0.11085728600E+03 -0.96406723048E+02 -0.20867193783E+02  0.14844698139E+03  0.41800000000E+01 0. -1.
        -11    1    1    2    0    0 -0.17616682200E+03  0.10373612596E+03 -0.11891560821E+03  0.23650973528E+03  0.00000000000E+00 0.  1.
         11    1    1    2    0    0 -0.13572071279E+03  0.21207363991E+02 -0.15026132208E+03  0.20358862709E+03  0.00000000000E+00 0. -1.
</event>
<event>
 7    1  0.2899775E-009  0.1561179E+03  0.7561462E-02  0.1193151E+00
          2   -1    0    0  501    0  0.00000000000E+00  0.00000000000E+00  0.94399978620E+03  0.94399978620E+03  0.00000000000E+00 0. -1.
         -2   -1    0    0    0  501 -0.00000000000E+00 -0.00000000000E+00 -0.36899872343E+02  0.36899872343E+02  0.00000000000E+00 0.  1.
         25    2    1    2    0    0  0.11965129770E+02 -0.12553699419E+03  0.26945567581E+03  0.32272724451E+03  0.12507522488E+03 0.  0.
          5    1    3    3  502    0  0.45517303876E+02 -0.10216405345E+03  0.10589083135E+03  0.15407679687E+03  0.41800000000E+01 0. -1.
         -5    1    3    3    0  502 -0.33552174107E+02 -0.23372940744E+02  0.16356484446E+03  0.16865044764E+03  0.41800000000E+01 0. -1.
        -11    1    1    2    0    0  0.39645228516E+02  0.26974631110E+02  0.26385288641E+03  0.26817479474E+03  0.00000000000E+00 0. -1.
         11    1    1    2    0    0 -0.51610358285E+02  0.98562363079E+02  0.37379135164E+03  0.38999761930E+03  0.00000000000E+00 0.  1.
</event>
<event>
 7    1  0.3261856E-009  0.1252376E+03  0.7561462E-02  0.1234698E+00
          1   -1    0    0  501    0  0.00000000000E+00  0.00000000000E+00  0.29199810748E+03  0.29199810748E+03  0.00000000000E+00 0. -1.
         -1   -1    0    0    0  501 -0.00000000000E+00 -0.00000000000E+00 -0.71783289237E+02  0.71783289237E+02  0.00000000000E+00 0.  1.
         25    2    1    2    0    0 -0.27205142490E+02 -0.91151871069E+02  0.12306014313E+03  0.19960333809E+03  0.12509560493E+03 0.  0.
          5    1    3    3  502    0 -0.21930325169E+02  0.27540226562E+02  0.13501396387E+02  0.37936306430E+02  0.41800000000E+01 0.  1.
         -5    1    3    3    0  502 -0.52748173206E+01 -0.11869209763E+03  0.10955874674E+03  0.16166703166E+03  0.41800000000E+01 0.  1.
        -11    1    1    2    0    0  0.14227672359E+02  0.69128450433E+02  0.75285516681E+01  0.70977802236E+02  0.00000000000E+00 0.  1.
         11    1    1    2    0    0  0.12977470131E+02  0.22023420636E+02  0.89626123444E+02  0.93200256389E+02  0.00000000000E+00 0. -1.
</event>
<event>
 7    1  0.3229939E-009  0.2114423E+03  0.7561462E-02  0.1140429E+00
          3   -1    0    0  501    0  0.00000000000E+00  0.00000000000E+00  0.12840308465E+03  0.12840308465E+03  0.00000000000E+00 0. -1.
         -3   -1    0    0    0  501 -0.00000000000E+00 -0.00000000000E+00 -0.56289721137E+03  0.56289721137E+03  0.00000000000E+00 0.  1.
         25    2    1    2    0    0  0.15334191318E+03 -0.12213687119E+03 -0.41308749033E+03  0.47404609305E+03  0.12508903239E+03 0.  0.
          5    1    3    3  502    0 -0.14366170632E+02 -0.34318706721E+02 -0.11462531267E+03  0.12058439034E+03  0.41800000000E+01 0. -1.
         -5    1    3    3    0  502  0.16770808381E+03 -0.87818164468E+02 -0.29846217766E+03  0.35346170271E+03  0.41800000000E+01 0. -1.
        -11    1    1    2    0    0 -0.11404949333E+03  0.88293702698E+02 -0.56211434117E+02  0.15479919312E+03  0.00000000000E+00 0.  1.
         11    1    1    2    0    0 -0.39292419850E+02  0.33843168491E+02  0.34804797730E+02  0.62455009857E+02  0.00000000000E+00 0. -1.
</event>
<event>
 7    1  0.2899775E-009  0.1029885E+03  0.7561462E-02  0.1274134E+00
          2   -1    0    0  501    0  0.00000000000E+00  0.00000000000E+00  0.13184320813E+03  0.13184320813E+03  0.00000000000E+00 0. -1.
         -2   -1    0    0    0  501 -0.00000000000E+00 -0.00000000000E+00 -0.99967282319E+02  0.99967282319E+02  0.00000000000E+00 0.  1.
         25    2    1    2    0    0  0.48769825922E+01 -0.31386586574E+02 -0.49883970339E+00  0.12905548656E+03  0.12508463932E+03 0.  0.
          5    1    3    3  502    0  0.13480195835E+01  0.48602993687E+02  0.19739937474E+01  0.48840937782E+02  0.41800000000E+01 0. -1.
         -5    1    3    3    0  502  0.35289630087E+01 -0.79989580262E+02 -0.24728334507E+01  0.80214548778E+02  0.41800000000E+01 0. -1.
        -11    1    1    2    0    0 -0.37533557328E+02  0.19041532341E+02  0.48571120285E+02  0.64268978561E+02  0.00000000000E+00 0. -1.
         11    1    1    2    0    0  0.32656574736E+02  0.12345054234E+02 -0.16196354772E+02  0.38486025326E+02  0.00000000000E+00 0.  1.
</event>
<event>
 7    1  0.2899775E-009  0.1428510E+03  0.7561462E-02  0.1209543E+00
         -2   -1    0    0    0  501 -0.00000000000E+00  0.00000000000E+00  0.33604339880E+02  0.33604339880E+02  0.00000000000E+00 0.  1.
          2   -1    0    0  501    0  0.00000000000E+00 -0.00000000000E+00 -0.66609527406E+03  0.66609527406E+03  0.00000000000E+00 0. -1.
         25    2    1    2    0    0 -0.29523336294E+02 -0.10301578654E+03 -0.31549699424E+03  0.35590811637E+03  0.12509338219E+03 0.  0.
          5    1    3    3  502    0 -0.31136346483E+02 -0.12761393475E+03 -0.21198389445E+03  0.24941818763E+03  0.41800000000E+01 0. -1.
         -5    1    3    3    0  502  0.16130101898E+01  0.24598148207E+02 -0.10351309979E+03  0.10648992875E+03  0.41800000000E+01 0. -1.
        -11    1    1    2    0    0 -0.23098737879E+02  0.17968967755E+02 -0.42117626918E+02  0.51286742839E+02  0.00000000000E+00 0.  1.
         11    1    1    2    0    0  0.52622074173E+02  0.85046818783E+02 -0.27487631303E+03  0.29250475473E+03  0.00000000000E+00 0. -1.
</event>
<event>
 7    1  0.2899775E-009  0.1639190E+03  0.7561462E-02  0.1184342E+00
          2   -1    0    0  501    0  0.00000000000E+00  0.00000000000E+00  0.16094703643E+04  0.16094703643E+04  0.00000000000E+00 0. -1.
         -2   -1    0    0    0  501 -0.00000000000E+00 -0.00000000000E+00 -0.18051359814E+02  0.18051359814E+02  0.00000000000E+00 0.  1.
         25    2    1    2    0    0  0.12349691461E+03 -0.36780599557E+02  0.76721825200E+03  0.78795663027E+03  0.12508998589E+03 0.  0.
          5    1    3    3  502    0 -0.20156063060E+02 -0.38044927591E+01  0.33003322411E+02  0.39082383926E+02  0.41800000000E+01 0. -1.
         -5    1    3    3    0  502  0.14365297767E+03 -0.32976106798E+02  0.73421492959E+03  0.74887424634E+03  0.41800000000E+01 0. -1.
        -11    1    1    2    0    0 -0.11227187865E+03  0.64548721551E+02  0.69201376280E+03  0.70402738589E+03  0.00000000000E+00 0.  1.
         11    1    1    2    0    0 -0.11225035952E+02 -0.27768121994E+02  0.13218698965E+03  0.13553770790E+03  0.00000000000E+00 0. -1.
</event>
<event>
 7    1  0.2899775E-009  0.1246754E+03  0.7561462E-02  0.1235577E+00
         -1   -1    0    0    0  501 -0.00000000000E+00  0.00000000000E+00  0.83890366144E+02  0.83890366144E+02  0.00000000000E+00 0.  1.
          1   -1    0    0  501    0  0.00000000000E+00 -0.00000000000E+00 -0.20477153056E+03  0.20477153056E+03  0.00000000000E+00 0. -1.
         25    2    1    2    0    0 -0.26806144890E+02 -0.65523409319E+02 -0.44996052139E+02  0.15061075796E+03  0.12508824538E+03 0.  0.
          5    1    3    3  502    0 -0.71811888723E+02 -0.65770196352E+02 -0.22101284202E+02  0.99943010029E+02  0.41800000000E+01 0.  1.
         -5    1    3    3    0  502  0.45005743833E+02  0.24678703330E+00 -0.22894767937E+02  0.50667747934E+02  0.41800000000E+01 0.  1.
        -11    1    1    2    0    0 -0.28684075851E+02  0.21398462135E+02 -0.52228984149E+02  0.63313009519E+02  0.00000000000E+00 0. -1.
         11    1    1    2    0    0  0.55490220741E+02  0.44124947183E+02 -0.23656128130E+02  0.74738129224E+02  0.00000000000E+00 0.  1.
</event>
<event>
 7    1  0.2899775E-009  0.1069422E+03  0.7561462E-02  0.1266339E+00
         -2   -1    0    0    0  501 -0.00000000000E+00  0.00000000000E+00  0.31495401099E+02  0.31495401099E+02  0.00000000000E+00 0.  1.
          2   -1    0    0  501    0  0.00000000000E+00 -0.00000000000E+00 -0.38107555821E+03  0.38107555821E+03  0.00000000000E+00 0. -1.
         25    2    1    2    0    0 -0.16655842774E+02  0.65301961469E+01 -0.22705919879E+03  0.25985372744E+03  0.12509204350E+03 0.  0.
          5    1    3    3  502    0 -0.33564375849E+02 -0.52086508312E+02 -0.85719595891E+02  0.10585316809E+03  0.41800000000E+01 0. -1.
         -5    1    3    3    0  502  0.16908533075E+02  0.58616704459E+02 -0.14133960290E+03  0.15400055935E+03  0.41800000000E+01 0. -1.
        -11    1    1    2    0    0  0.38372863431E+02 -0.36938369700E+02 -0.80020181813E+02  0.96125695323E+02  0.00000000000E+00 0. -1.
         11    1    1    2    0    0 -0.21717020658E+02  0.30408173554E+02 -0.42500776504E+02  0.56591536545E+02  0.00000000000E+00 0.  1.
</event>
<event>
 7    1  0.2899775E-009  0.1072366E+03  0.7561462E-02  0.1265775E+00
          2   -1    0    0  501    0  0.00000000000E+00  0.00000000000E+00  0.32916275129E+03  0.32916275129E+03  0.00000000000E+00 0. -1.
         -2   -1    0    0    0  501 -0.00000000000E+00 -0.00000000000E+00 -0.54101862750E+02  0.54101862750E+02  0.00000000000E+00 0.  1.
         25    2    1    2    0    0 -0.70649096549E+02 -0.23933560198E+02  0.11997544374E+03  0.18869469568E+03  0.12508985143E+03 0.  0.
          5    1    3    3  502    0 -0.84719325964E+02  0.10490961533E+02  0.12448443322E+03  0.15100089728E+03  0.41800000000E+01 0. -1.
         -5    1    3    3    0  502  0.14070229416E+02 -0.34424521731E+02 -0.45089894713E+01  0.37693798406E+02  0.41800000000E+01 0. -1.
        -11    1    1    2    0    0  0.20458814073E+02 -0.17169109564E+02  0.11555588581E+03  0.11860229400E+03  0.00000000000E+00 0. -1.
         11    1    1    2    0    0  0.50190282476E+02  0.41102669762E+02  0.39529558984E+02  0.75967624354E+02  0.00000000000E+00 0.  1.
</event>
<event>
 7    1  0.2899775E-009  0.1725378E+03  0.7561462E-02  0.1175227E+00
         -1   -1    0    0    0  501 -0.00000000000E+00  0.00000000000E+00  0.43905681287E+03  0.43905681287E+03  0.00000000000E+00 0.  1.
          1   -1    0    0  501    0  0.00000000000E+00 -0.00000000000E+00 -0.68562677325E+02  0.68562677325E+02  0.00000000000E+00 0. -1.
         25    2    1    2    0    0 -0.66242808157E+02  0.11705991095E+03  0.21803926003E+03  0.28507927846E+03  0.12505176413E+03 0.  0.
          5    1    3    3  502    0 -0.96503699375E+02  0.48599101399E+02  0.11773945935E+03  0.15985896702E+03  0.41800000000E+01 0.  1.
         -5    1    3    3    0  502  0.30260891218E+02  0.68460809546E+02  0.10029980068E+03  0.12522031144E+03  0.41800000000E+01 0.  1.
        -11    1    1    2    0    0  0.27575331075E+02 -0.12006731064E+03  0.11981236959E+03  0.17184749598E+03  0.00000000000E+00 0. -1.
         11    1    1    2    0    0  0.38667477082E+02  0.30073996941E+01  0.32642505921E+02  0.50692715745E+02  0.00000000000E+00 0.  1.
</event>
<event>
 7    1  0.2899775E-009  0.1594962E+03  0.7561462E-02  0.1189267E+00
         -2   -1    0    0    0  501 -0.00000000000E+00  0.00000000000E+00  0.16723582258E+03  0.16723582258E+03  0.00000000000E+00 0.  1.
          2   -1    0    0  501    0  0.00000000000E+00 -0.00000000000E+00 -0.30979819833E+03  0.30979819833E+03  0.00000000000E+00 0. -1.
         25    2    1    2    0    0 -0.80215816967E+02 -0.11397750012E+03  0.76065840562E+02  0.20213504701E+03  0.12508843792E+03 0.  0.
          5    1    3    3  502    0  0.26026462955E+02 -0.13763510180E+02 -0.11399809398E+02  0.31847119819E+02  0.41800000000E+01 0.  1.
         -5    1    3    3    0  502 -0.10624227992E+03 -0.10021398994E+03  0.87465649960E+02  0.17028792719E+03  0.41800000000E+01 0.  1.
        -11    1    1    2    0    0  0.66998239826E+02  0.68623257104E+02 -0.69427671945E+02  0.11839813000E+03  0.00000000000E+00 0.  1.
         11    1    1    2    0    0  0.13217577141E+02  0.45354243018E+02 -0.14920054436E+03  0.15650084391E+03  0.00000000000E+00 0. -1.
</event>
<event>
 7    1  0.2899775E-009  0.1097112E+03  0.7561462E-02  0.1261106E+00
         -1   -1    0    0    0  501 -0.00000000000E+00  0.00000000000E+00  0.96939520005E+02  0.96939520005E+02  0.00000000000E+00 0.  1.
          1   -1    0    0  501    0  0.00000000000E+00 -0.00000000000E+00 -0.21016828632E+03  0.21016828632E+03  0.00000000000E+00 0. -1.
         25    2    1    2    0    0 -0.49285010923E+02  0.70177698397E+02 -0.47600241407E+02  0.15895713164E+03  0.12509062740E+03 0.  0.
          5    1    3    3  502    0  0.54692895628E+01  0.47467768922E+02  0.33435597629E+02  0.58468057976E+02  0.41800000000E+01 0.  1.
         -5    1    3    3    0  502 -0.54754300485E+02  0.22709929475E+02 -0.81035839035E+02  0.10048907367E+03  0.41800000000E+01 0.  1.
        -11    1    1    2    0    0  0.56573464943E+02 -0.18026798063E+02 -0.73952250678E+02  0.94839115160E+02  0.00000000000E+00 0.  1.
         11    1    1    2    0    0 -0.72884540199E+01 -0.52150900334E+02  0.83237257710E+01  0.53311559519E+02  0.00000000000E+00 0. -1.
</event>
<event>
 7    1  0.2899775E-009  0.1084494E+03  0.7561462E-02  0.1263468E+00
         -1   -1    0    0    0  501 -0.00000000000E+00  0.00000000000E+00  0.52049708223E+02  0.52049708223E+02  0.00000000000E+00 0.  1.
          1   -1    0    0  501    0  0.00000000000E+00 -0.00000000000E+00 -0.32787511238E+03  0.32787511238E+03  0.00000000000E+00 0. -1.
         25    2    1    2    0    0 -0.34113981972E+02  0.62222670536E+02 -0.12863881123E+03  0.19295214157E+03  0.12508861133E+03 0.  0.
          5    1    3    3  502    0  0.51377664489E+01  0.62292589207E+02 -0.46325336591E+01  0.62814775987E+02  0.41800000000E+01 0.  1.
         -5    1    3    3    0  502 -0.39251748421E+02 -0.69918671019E-01 -0.12400627757E+03  0.13013736558E+03  0.41800000000E+01 0.  1.
        -11    1    1    2    0    0 -0.10460619767E+02 -0.68917503635E+02 -0.97924671246E+02  0.12020103207E+03  0.00000000000E+00 0.  1.
         11    1    1    2    0    0  0.44574601739E+02  0.66948330993E+01 -0.49261921677E+02  0.66771646959E+02  0.00000000000E+00 0. -1.
</event>
<event>
 7    1  0.2899775E-009  0.9869026E+02  0.7561462E-02  0.1283074E+00
          2   -1    0    0  501    0  0.00000000000E+00  0.00000000000E+00  0.35604681819E+03  0.35604681819E+03  0.00000000000E+00 0. -1.
         -2   -1    0    0    0  501 -0.00000000000E+00 -0.00000000000E+00 -0.35397302898E+02  0.35397302898E+02  0.00000000000E+00 0.  1.
         25    2    1    2    0    0  0.17122331729E+02  0.16729128904E+02  0.20469810070E+03  0.24108810543E+03  0.12509645940E+03 0.  0.
          5    1    3    3  502    0 -0.14096422177E+02 -0.50137895244E+02  0.68816795258E+02  0.86404521683E+02  0.41800000000E+01 0. -1.
         -5    1    3    3    0  502  0.31218753906E+02  0.66867024148E+02  0.13588130544E+03  0.15468358375E+03  0.41800000000E+01 0. -1.
        -11    1    1    2    0    0 -0.43146308708E+02 -0.11796550284E+02  0.11550657033E+03  0.12386496819E+03  0.00000000000E+00 0. -1.
         11    1    1    2    0    0  0.26023976978E+02 -0.49325786197E+01  0.44484426066E+00  0.26491047469E+02  0.00000000000E+00 0.  1.
</event>
<event>
 7    1  0.2899775E-009  0.1843804E+03  0.7561462E-02  0.1163630E+00
         -1   -1    0    0    0  501 -0.00000000000E+00  0.00000000000E+00  0.40216150280E+03  0.40216150280E+03  0.00000000000E+00 0.  1.
          1   -1    0    0  501    0  0.00000000000E+00 -0.00000000000E+00 -0.85608738450E+02  0.85608738450E+02  0.00000000000E+00 0. -1.
         25    2    1    2    0    0 -0.14718033296E+03 -0.24020385841E+02  0.18744703450E+03  0.27022783369E+03  0.12509061521E+03 0.  0.
          5    1    3    3  502    0  0.20831023004E+02 -0.15409029792E+02  0.22190409461E+02  0.34369410681E+02  0.41800000000E+01 0.  1.
         -5    1    3    3    0  502 -0.16801135596E+03 -0.86113560492E+01  0.16525662504E+03  0.23585842301E+03  0.41800000000E+01 0.  1.
        -11    1    1    2    0    0  0.14701970556E+03  0.44611688670E+02  0.12035867942E+03  0.19516969104E+03  0.00000000000E+00 0.  1.
         11    1    1    2    0    0  0.16062739738E+00 -0.20591302829E+02  0.87470504333E+01  0.22372716523E+02  0.00000000000E+00 0. -1.
</event>
<event>
 7    1  0.2899775E-009  0.9492993E+02  0.7561462E-02  0.1291334E+00
         -2   -1    0    0    0  501 -0.00000000000E+00  0.00000000000E+00  0.10758611720E+02  0.10758611720E+02  0.00000000000E+00 0.  1.
          2   -1    0    0  501    0  0.00000000000E+00 -0.00000000000E+00 -0.12113935795E+04  0.12113935795E+04  0.00000000000E+00 0. -1.
         25    2    1    2    0    0 -0.20378576685E+01 -0.32740348224E+02 -0.78061278682E+03  0.79125218292E+03  0.12509041035E+03 0.  0.
          5    1    3    3  502    0 -0.29067043123E+01 -0.64274051382E+02 -0.20818313001E+03  0.21793873137E+03  0.41800000000E+01 0.  1.
         -5    1    3    3    0  502  0.86884664380E+00  0.31533703158E+02 -0.57242965682E+03  0.57331345155E+03  0.41800000000E+01 0.  1.
        -11    1    1    2    0    0  0.18021569408E+02 -0.26587601039E+02 -0.99968634158E+02  0.10500193002E+03  0.00000000000E+00 0.  1.
         11    1    1    2    0    0 -0.15983711739E+02  0.59327949263E+02 -0.32005354676E+03  0.32589807824E+03  0.00000000000E+00 0. -1.
</event>
<event>
 7    1  0.2899775E-009  0.1236054E+03  0.7561462E-02  0.1237265E+00
          1   -1    0    0  501    0  0.00000000000E+00  0.00000000000E+00  0.11125324875E+03  0.11125324875E+03  0.00000000000E+00 0. -1.
         -1   -1    0    0    0  501 -0.00000000000E+00 -0.00000000000E+00 -0.16401652045E+03  0.16401652045E+03  0.00000000000E+00 0.  1.
         25    2    1    2    0    0 -0.75341452881E+02 -0.30751989445E+02 -0.13075909875E+02  0.14979087253E+03  0.12507720295E+03 0.  0.
          5    1    3    3  502    0 -0.90293340668E+02 -0.57256327210E+02 -0.34406599100E+02  0.11239422065E+03  0.41800000000E+01 0. -1.
         -5    1    3    3    0  502  0.14951887787E+02  0.26504337765E+02  0.21330689225E+02  0.37396651877E+02  0.41800000000E+01 0. -1.
        -11    1    1    2    0    0  0.69980468226E+02 -0.79442232144E+01 -0.91105755496E+00  0.70435833505E+02  0.00000000000E+00 0. -1.
         11    1    1    2    0    0  0.53609846547E+01  0.38696212660E+02 -0.38776304265E+02  0.55043063170E+02  0.00000000000E+00 0.  1.
</event>
<event>
 7    1  0.2899775E-009  0.1435424E+03  0.7561462E-02  0.1208640E+00
          1   -1    0    0  501    0  0.00000000000E+00  0.00000000000E+00  0.37586622249E+02  0.37586622249E+02  0.00000000000E+00 0.  1.
         -1   -1    0    0    0  501 -0.00000000000E+00 -0.00000000000E+00 -0.74649483541E+03  0.74649483541E+03  0.00000000000E+00 0. -1.
         25    2    1    2    0    0  0.13859480669E+03 -0.21779544863E+02 -0.35744947766E+03  0.40385721803E+03  0.12509058502E+03 0.  0.
          5    1    3    3  502    0 -0.19569945280E+00  0.15922394281E+01 -0.16673410761E+03  0.16679421023E+03  0.41800000000E+01 0.  1.
         -5    1    3    3    0  502  0.13879050614E+03 -0.23371784291E+02 -0.19071537005E+03  0.23706300780E+03  0.41800000000E+01 0.  1.
        -11    1    1    2    0    0 -0.26450665054E+02 -0.39474131833E+01 -0.10304218664E+03  0.10645615051E+03  0.00000000000E+00 0. -1.
         11    1    1    2    0    0 -0.11214414164E+03  0.25726958047E+02 -0.24841654886E+03  0.27376808912E+03  0.00000000000E+00 0.  1.
</event>
<event>
 6    1  0.2899775E-009  0.1720867E+03  0.7561462E-02  0.1175689E+00
         -1   -1    0    0    0  501 -0.00000000000E+00  0.00000000000E+00  0.36625338803E+02  0.36625338803E+02  0.00000000000E+00 0.  1.
          1   -1    0    0  501    0  0.00000000000E+00 -0.00000000000E+00 -0.10924900373E+04  0.10924900373E+04  0.00000000000E+00 0. -1.
          5    1    1    2  502    0 -0.64055376716E+02  0.12900262473E+03 -0.30503578521E+03  0.33735600059E+03  0.41800000000E+01 0.  1.
         -5    1    1    2    0  502  0.14271155215E+02  0.29657791728E+02 -0.31139917796E+03  0.31316157317E+03  0.41800000000E+01 0.  1.
        -11    1    1    2    0    0  0.32090259212E+02 -0.78318808917E+02 -0.33570134239E+03  0.34620660284E+03  0.00000000000E+00 0. -1.
         11    1    1    2    0    0  0.17693962289E+02 -0.80341607542E+02 -0.10372839294E+03  0.13239119951E+03  0.00000000000E+00 0.  1.
</event>
<event>
 7    1  0.2899775E-009  0.1791750E+03  0.7561462E-02  0.1168604E+00
          2   -1    0    0  501    0  0.00000000000E+00  0.00000000000E+00  0.49022562474E+03  0.49022562474E+03  0.00000000000E+00 0. -1.
         -2   -1    0    0    0  501 -0.00000000000E+00 -0.00000000000E+00 -0.10993285208E+03  0.10993285208E+03  0.00000000000E+00 0.  1.
         25    2    1    2    0    0 -0.11521264615E+03  0.11245552737E+03  0.35750766788E+03  0.41155765602E+03  0.12509105548E+03 0.  0.
          5    1    3    3  502    0 -0.11097103148E+03  0.12898389229E+03  0.35515496510E+03  0.39383237035E+03  0.41800000000E+01 0. -1.
         -5    1    3    3    0  502 -0.42416146729E+01 -0.16528364913E+02  0.23527027824E+01  0.17725285671E+02  0.41800000000E+01 0. -1.
        -11    1    1    2    0    0 -0.27577432418E+01 -0.21342666380E+02 -0.24130877859E+02  0.32332859791E+02  0.00000000000E+00 0.  1.
         11    1    1    2    0    0  0.11797038939E+03 -0.91112860993E+02  0.46915982637E+02  0.15626796101E+03  0.00000000000E+00 0. -1.
</event>
<event>
 7    1  0.2899775E-009  0.1192869E+03  0.7561462E-02  0.1244278E+00
          2   -1    0    0  501    0  0.00000000000E+00  0.00000000000E+00  0.49973662990E+02  0.49973662990E+02  0.00000000000E+00 0. -1.
         -2   -1    0    0    0  501 -0.00000000000E+00 -0.00000000000E+00 -0.34273789997E+03  0.34273789997E+03  0.00000000000E+00 0.  1.
         25    2    1    2    0    0  0.45672300749E+02  0.48817167006E+02 -0.11760614881E+03  0.18424927021E+03  0.12509001753E+03 0.  0.
          5    1    3    3  502    0  0.79438292010E+02  0.46940923464E+02 -0.42296321382E+02  0.10158909260E+03  0.41800000000E+01 0.  1.
         -5    1    3    3    0  502 -0.33765991261E+02  0.18762435416E+01 -0.75309827428E+02  0.82660177612E+02  0.41800000000E+01 0.  1.
        -11    1    1    2    0    0  0.16114354983E+02  0.15913520195E+02 -0.25625214130E+02  0.34198891221E+02  0.00000000000E+00 0. -1.
         11    1    1    2    0    0 -0.61786655732E+02 -0.64730687201E+02 -0.14953287404E+03  0.17426340152E+03  0.00000000000E+00 0.  1.
</event>
<event>
 7    1  0.2899775E-009  0.8371593E+02  0.7561462E-02  0.1318825E+00
         -2   -1    0    0    0  501 -0.00000000000E+00  0.00000000000E+00  0.15194486284E+03  0.15194486284E+03  0.00000000000E+00 0.  1.
          2   -1    0    0  501    0  0.00000000000E+00 -0.00000000000E+00 -0.78919051411E+02  0.78919051411E+02  0.00000000000E+00 0. -1.
         25    2    1    2    0    0 -0.32134085795E+01 -0.12613972135E+02  0.48434807446E+02  0.13476904655E+03  0.12508927631E+03 0.  0.
          5    1    3    3  502    0 -0.13176602575E+02  0.55290270100E+02  0.20947653613E+02  0.60719958951E+02  0.41800000000E+01 0. -1.
         -5    1    3    3    0  502  0.99631939954E+01 -0.67904242235E+02  0.27487153833E+02  0.74049087597E+02  0.41800000000E+01 0. -1.
        -11    1    1    2    0    0  0.20651193780E+02  0.12698932996E+02 -0.30124330605E+02  0.38667945357E+02  0.00000000000E+00 0. -1.
         11    1    1    2    0    0 -0.17437785200E+02 -0.84960861386E-01  0.54715334583E+02  0.57426922341E+02  0.00000000000E+00 0.  1.
</event>
<event>
 7    1  0.2899775E-009  0.1534940E+03  0.7561462E-02  0.1196244E+00
         -1   -1    0    0    0  501 -0.00000000000E+00  0.00000000000E+00  0.68208113227E+02  0.68208113227E+02  0.00000000000E+00 0.  1.
          1   -1    0    0  501    0  0.00000000000E+00 -0.00000000000E+00 -0.60191699912E+03  0.60191699912E+03  0.00000000000E+00 0. -1.
         25    2    1    2    0    0 -0.13691988415E+03 -0.28081245770E+02 -0.11772695147E+03  0.22148008861E+03  0.12513266364E+03 0.  0.
          5    1    3    3  502    0  0.27315492232E+01  0.53153546611E+01 -0.69602088712E+02  0.69983123033E+02  0.41800000000E+01 0.  1.
         -5    1    3    3    0  502 -0.13965143338E+03 -0.33396600431E+02 -0.48124862758E+02  0.15149696558E+03  0.41800000000E+01 0.  1.
        -11    1    1    2    0    0  0.75303631776E+02  0.50285779221E+02 -0.31912245702E+03  0.33172042314E+03  0.00000000000E+00 0. -1.
         11    1    1    2    0    0  0.61616252376E+02 -0.22204533451E+02 -0.96859477400E+02  0.11692460060E+03  0.00000000000E+00 0.  1.
</event>
<event>
 7    1  0.2899775E-009  0.9417458E+02  0.7561462E-02  0.1293046E+00
          1   -1    0    0  501    0  0.00000000000E+00  0.00000000000E+00  0.35021058703E+03  0.35021058703E+03  0.00000000000E+00 0.  1.
         -1   -1    0    0    0  501 -0.00000000000E+00 -0.00000000000E+00 -0.69671475936E+02  0.69671475936E+02  0.00000000000E+00 0. -1.
         25    2    1    2    0    0  0.36855422580E+02 -0.48318843490E+02  0.27881961635E+03  0.31157925077E+03  0.12509283848E+03 0.  0.
          5    1    3    3  502    0 -0.33384089573E+02 -0.21170355195E+02  0.25395771934E+02  0.47170955129E+02  0.41800000000E+01 0.  1.
         -5    1    3    3    0  502  0.70239512153E+02 -0.27148488295E+02  0.25342384442E+03  0.26440829564E+03  0.41800000000E+01 0.  1.
        -11    1    1    2    0    0 -0.24855660223E+02  0.15601117485E+01 -0.38240782182E+02  0.45635460069E+02  0.00000000000E+00 0. -1.
         11    1    1    2    0    0 -0.11999762357E+02  0.46758731741E+02  0.39960276923E+02  0.62667352126E+02  0.00000000000E+00 0.  1.
</event>
<event>
 7    1  0.2899775E-009  0.1112871E+03  0.7561462E-02  0.1258205E+00
         -1   -1    0    0    0  501 -0.00000000000E+00  0.00000000000E+00  0.30536128853E+03  0.30536128853E+03  0.00000000000E+00 0.  1.
          1   -1    0    0  501    0  0.00000000000E+00 -0.00000000000E+00 -0.65337898793E+02  0.65337898793E+02  0.00000000000E+00 0. -1.
         25    2    1    2    0    0 -0.56270602045E+02  0.58523997435E+02  0.18510993104E+03  0.23770694216E+03  0.12508982713E+03 0.  0.
          5    1    3    3  502    0 -0.77783353791E+02  0.19830821957E+02  0.17430331651E+03  0.19194434134E+03  0.41800000000E+01 0.  1.
         -5    1    3    3    0  502  0.21512751746E+02  0.38693175478E+02  0.10806614529E+02  0.45762600820E+02  0.41800000000E+01 0.  1.
        -11    1    1    2    0    0  0.67040209579E+02 -0.53831570426E+02  0.99880042588E+01  0.86556270160E+02  0.00000000000E+00 0. -1.
         11    1    1    2    0    0 -0.10769607534E+02 -0.46924270090E+01  0.44925454437E+02  0.46435974998E+02  0.00000000000E+00 0.  1.
</event>
<event>
 7    1  0.2899775E-009  0.1676149E+03  0.7561462E-02  0.1180358E+00
          2   -1    0    0  501    0  0.00000000000E+00  0.00000000000E+00  0.90242560943E+03  0.90242560943E+03  0.00000000000E+00 0. -1.
         -2   -1    0    0    0  501 -0.00000000000E+00 -0.00000000000E+00 -0.33572173412E+02  0.33572173412E+02  0.00000000000E+00 0.  1.
         25    2    1    2    0    0  0.14989011651E+02 -0.13490748446E+03  0.44623872590E+03  0.48290992995E+03  0.12509316576E+03 0.  0.
          5    1    3    3  502    0  0.52053839465E+02 -0.13753508274E+03  0.36143939156E+03  0.39023250423E+03  0.41800000000E+01 0.  1.
         -5    1    3    3    0  502 -0.37064827814E+02  0.26275982834E+01  0.84799334339E+02  0.92677425720E+02  0.41800000000E+01 0.  1.
        -11    1    1    2    0    0 -0.34271261463E+02  0.35052864537E+02  0.65744252896E+02  0.82009325466E+02  0.00000000000E+00 0.  1.
         11    1    1    2    0    0  0.19282249812E+02  0.99854619921E+02  0.35687045722E+03  0.37107852743E+03  0.00000000000E+00 0. -1.
</event>
<event>
 7    1  0.2899775E-009  0.7819278E+02  0.7561462E-02  0.1334260E+00
         -2   -1    0    0    0  501 -0.00000000000E+00  0.00000000000E+00  0.13460047204E+03  0.13460047204E+03  0.00000000000E+00 0.  1.
          2   -1    0    0  501    0  0.00000000000E+00 -0.00000000000E+00 -0.10652848162E+03  0.10652848162E+03  0.00000000000E+00 0. -1.
         25    2    1    2    0    0 -0.21671983790E+02 -0.66514120842E+01  0.62679110082E+02  0.14172998888E+03  0.12507918589E+03 0.  0.
          5    1    3    3  502    0 -0.16704079111E+02 -0.34305006709E+02  0.92741155878E+02  0.10037058403E+03  0.41800000000E+01 0. -1.
         -5    1    3    3    0  502 -0.49679046790E+01  0.27653594625E+02 -0.30062045796E+02  0.41359404856E+02  0.41800000000E+01 0. -1.
        -11    1    1    2    0    0 -0.24693709258E+02 -0.23661939566E+02 -0.26812231082E+02  0.43457593083E+02  0.00000000000E+00 0. -1.
         11    1    1    2    0    0  0.46365693048E+02  0.30313351651E+02 -0.77948885790E+01  0.55941371704E+02  0.00000000000E+00 0.  1.
</event>
<event>
 7    1  0.2899775E-009  0.1393286E+03  0.7561462E-02  0.1214235E+00
          1   -1    0    0  501    0  0.00000000000E+00  0.00000000000E+00  0.65318367060E+02  0.65318367060E+02  0.00000000000E+00 0. -1.
         -1   -1    0    0    0  501 -0.00000000000E+00 -0.00000000000E+00 -0.41621687242E+03  0.41621687242E+03  0.00000000000E+00 0.  1.
         25    2    1    2    0    0  0.44904954634E+02 -0.11428242151E+03 -0.16666675025E+03  0.24187286871E+03  0.12509097556E+03 0.  0.
          5    1    3    3  502    0 -0.24544270197E+02 -0.60339981384E+02 -0.13199808001E+03  0.14725589998E+03  0.41800000000E+01 0.  1.
         -5    1    3    3    0  502  0.69449224832E+02 -0.53942440121E+02 -0.34668670239E+02  0.94616968732E+02  0.41800000000E+01 0.  1.
        -11    1    1    2    0    0 -0.37434879425E+02  0.61207041327E+02 -0.16952535702E+03  0.18408291279E+03  0.00000000000E+00 0.  1.
         11    1    1    2    0    0 -0.74700752096E+01  0.53075380178E+02 -0.14706398088E+02  0.55579457981E+02  0.00000000000E+00 0. -1.
</event>
<event>
 7    1  0.2899775E-009  0.9497153E+02  0.7561462E-02  0.1291240E+00
          2   -1    0    0  501    0  0.00000000000E+00  0.00000000000E+00  0.88938687386E+03  0.88938687386E+03  0.00000000000E+00 0. -1.
         -2   -1    0    0    0  501 -0.00000000000E+00 -0.00000000000E+00 -0.20332530980E+02  0.20332530980E+02  0.00000000000E+00 0.  1.
         25    2    1    2    0    0  0.60686992434E+02  0.52630941209E+02  0.43138853638E+03  0.45628627775E+03  0.12509264934E+03 0.  0.
          5    1    3    3  502    0  0.20790539350E+02  0.24839868379E+02  0.39257734979E+03  0.39393364106E+03  0.41800000000E+01 0.  1.
         -5    1    3    3    0  502  0.39896453084E+02  0.27791072830E+02  0.38811186586E+02  0.62352636688E+02  0.41800000000E+01 0.  1.
        -11    1    1    2    0    0 -0.45441522977E+02  0.78444220813E+01  0.10086250892E+03  0.11090406969E+03  0.00000000000E+00 0.  1.
         11    1    1    2    0    0 -0.15245469458E+02 -0.60475363290E+02  0.33680329759E+03  0.34252905741E+03  0.00000000000E+00 0. -1.
</event>
<event>
 7    1  0.2899775E-009  0.2532813E+03  0.7561462E-02  0.1111249E+00
          2   -1    0    0  501    0  0.00000000000E+00  0.00000000000E+00  0.21440506883E+04  0.21440506883E+04  0.00000000000E+00 0. -1.
         -2   -1    0    0    0  501 -0.00000000000E+00 -0.00000000000E+00 -0.38423034152E+02  0.38423034152E+02  0.00000000000E+00 0.  1.
         25    2    1    2    0    0 -0.21071136874E+02 -0.24574646736E+03  0.14671190949E+04  0.14929576032E+04  0.12509455384E+03 0.  0.
          5    1    3    3  502    0  0.22254243026E+02 -0.58832789012E+02  0.16251817323E+03  0.17431631429E+03  0.41800000000E+01 0.  1.
         -5    1    3    3    0  502 -0.43325379900E+02 -0.18691367835E+03  0.13046009217E+04  0.13186412890E+04  0.41800000000E+01 0.  1.
        -11    1    1    2    0    0 -0.13543282737E+02  0.13247802061E+03  0.42477134637E+03  0.44515676244E+03  0.00000000000E+00 0.  1.
         11    1    1    2    0    0  0.34614419611E+02  0.11326844675E+03  0.21373721286E+03  0.24435935676E+03  0.00000000000E+00 0. -1.
</event>
<event>
 7    1  0.2899775E-009  0.1527379E+03  0.7561462E-02  0.1197148E+00
          2   -1    0    0  501    0  0.00000000000E+00  0.00000000000E+00  0.30059304701E+03  0.30059304701E+03  0.00000000000E+00 0. -1.
         -2   -1    0    0    0  501 -0.00000000000E+00 -0.00000000000E+00 -0.79760284931E+02  0.79760284931E+02  0.00000000000E+00 0.  1.
         25    2    1    2    0    0 -0.14179103673E+02  0.10544926254E+03  0.89655879449E+02  0.18710143082E+03  0.12509266463E+03 0.  0.
          5    1    3    3  502    0 -0.65952171656E+02  0.30708916670E+02  0.33958875197E+02  0.80395299078E+02  0.41800000000E+01 0.  1.
         -5    1    3    3    0  502  0.51773067984E+02  0.74740345871E+02  0.55697004252E+02  0.10670613174E+03  0.41800000000E+01 0.  1.
        -11    1    1    2    0    0 -0.31273343592E+02 -0.54513173185E+01  0.35020997538E+02  0.47267421640E+02  0.00000000000E+00 0.  1.
         11    1    1    2    0    0  0.45452447265E+02 -0.99997945222E+02  0.96155885096E+02  0.14598447948E+03  0.00000000000E+00 0. -1.
</event>
<event>
 7    1  0.2899775E-009  0.1075650E+03  0.7561462E-02  0.1265147E+00
         -2   -1    0    0    0  501 -0.00000000000E+00  0.00000000000E+00  0.31897520723E+03  0.31897520723E+03  0.00000000000E+00 0.  1.
          2   -1    0    0  501    0  0.00000000000E+00 -0.00000000000E+00 -0.39622202180E+02  0.39622202180E+02  0.00000000000E+00 0. -1.
         25    2    1    2    0    0  0.20632607584E+02  0.22945365800E+02  0.15784293046E+03  0.20374934537E+03  0.12508881138E+03 0.  0.
          5    1    3    3  502    0  0.45528669480E+02 -0.40059001948E+02  0.79931971517E+02  0.10041999727E+03  0.41800000000E+01 0.  1.
         -5    1    3    3    0  502 -0.24896061896E+02  0.63004367748E+02  0.77910958946E+02  0.10332934809E+03  0.41800000000E+01 0.  1.
        -11    1    1    2    0    0 -0.51925546295E+02 -0.11787245115E+02  0.39301476508E+02  0.66180114545E+02  0.00000000000E+00 0. -1.
         11    1    1    2    0    0  0.31292938711E+02 -0.11158120685E+02  0.82208598075E+02  0.88667949496E+02  0.00000000000E+00 0.  1.
</event>
<event>
 7    1  0.2899775E-009  0.1463854E+03  0.7561462E-02  0.1204986E+00
          2   -1    0    0  501    0  0.00000000000E+00  0.00000000000E+00  0.13498338958E+03  0.13498338958E+03  0.00000000000E+00 0.  1.
         -2   -1    0    0    0  501 -0.00000000000E+00 -0.00000000000E+00 -0.17731530575E+03  0.17731530575E+03  0.00000000000E+00 0. -1.
         25    2    1    2    0    0  0.69236685897E+02 -0.84878546487E+02 -0.34806180122E+02  0.16986754882E+03  0.12508168386E+03 0.  0.
          5    1    3    3  502    0 -0.23394107890E+01 -0.80703897554E+02  0.15320671530E+02  0.82284793852E+02  0.41800000000E+01 0.  1.
         -5    1    3    3    0  502  0.71576096686E+02 -0.41746489328E+01 -0.50126851651E+02  0.87582754963E+02  0.41800000000E+01 0.  1.
        -11    1    1    2    0    0  0.32897767475E+01  0.64755451701E+02  0.87454418420E+01  0.65426095016E+02  0.00000000000E+00 0.  1.
         11    1    1    2    0    0 -0.72526462644E+02  0.20123094786E+02 -0.16271177891E+02  0.77005051506E+02  0.00000000000E+00 0. -1.
</event>
<event>
 7    1  0.2899775E-009  0.5955711E+02  0.7561462E-02  0.1399700E+00
         -2   -1    0    0    0  501 -0.00000000000E+00  0.00000000000E+00  0.12342770297E+03  0.12342770297E+03  0.00000000000E+00 0.  1.
          2   -1    0    0  501    0  0.00000000000E+00 -0.00000000000E+00 -0.10183168986E+03  0.10183168986E+03  0.00000000000E+00 0. -1.
         25    2    1    2    0    0  0.10370271013E+02 -0.16870461948E+02  0.52785158417E+02  0.13720438419E+03  0.12508643046E+03 0.  0.
          5    1    3    3  502    0 -0.13008782471E+02  0.76223486944E+01 -0.37529672541E+02  0.40660513302E+02  0.41800000000E+01 0. -1.
         -5    1    3    3    0  502  0.23379053484E+02 -0.24492810643E+02  0.90314830958E+02  0.96543870887E+02  0.41800000000E+01 0. -1.
        -11    1    1    2    0    0  0.24652479466E+02  0.23094153469E+02 -0.39041919513E+02  0.51627087343E+02  0.00000000000E+00 0. -1.
         11    1    1    2    0    0 -0.35022750479E+02 -0.62236915205E+01  0.78527742131E+01  0.36427921298E+02  0.00000000000E+00 0.  1.
</event>
<event>
 7    1  0.2899775E-009  0.1872688E+03  0.7561462E-02  0.1160948E+00
         -2   -1    0    0    0  501 -0.00000000000E+00  0.00000000000E+00  0.77197099222E+02  0.77197099222E+02  0.00000000000E+00 0.  1.
          2   -1    0    0  501    0  0.00000000000E+00 -0.00000000000E+00 -0.58063695446E+03  0.58063695446E+03  0.00000000000E+00 0. -1.
         25    2    1    2    0    0 -0.17257159708E+03 -0.27567260590E+02 -0.33221446736E+03  0.39566924655E+03  0.12508713109E+03 0.  0.
          5    1    3    3  502    0 -0.78032124197E+01 -0.92376296336E+01  0.94354495689E+01  0.15897296433E+02  0.41800000000E+01 0. -1.
         -5    1    3    3    0  502 -0.16476838466E+03 -0.18329630957E+02 -0.34164991693E+03  0.37977195011E+03  0.41800000000E+01 0. -1.
        -11    1    1    2    0    0  0.10418755277E+03  0.59990609143E+02 -0.12525086811E+03  0.17361364952E+03  0.00000000000E+00 0. -1.
         11    1    1    2    0    0  0.68384044307E+02 -0.32423348553E+02 -0.45974519775E+02  0.88551157619E+02  0.00000000000E+00 0.  1.
</event>
<event>
 7    1  0.2899775E-009  0.1051397E+03  0.7561462E-02  0.1269845E+00
         -1   -1    0    0    0  501 -0.00000000000E+00  0.00000000000E+00  0.95283850259E+02  0.95283850259E+02  0.00000000000E+00 0.  1.
          1   -1    0    0  501    0  0.00000000000E+00 -0.00000000000E+00 -0.12729271312E+03  0.12729271312E+03  0.00000000000E+00 0. -1.
         25    2    1    2    0    0  0.53002415859E+01 -0.39053312524E+01  0.26297517893E+01  0.12529314922E+03  0.12509241973E+03 0.  0.
          5    1    3    3  502    0 -0.50045813203E+02  0.31597432013E+02  0.29243657538E+01  0.59405432782E+02  0.41800000000E+01 0. -1.
         -5    1    3    3    0  502  0.55346054789E+02 -0.35502763266E+02 -0.29461396448E+00  0.65887716439E+02  0.41800000000E+01 0. -1.
        -11    1    1    2    0    0  0.39692411669E+02  0.52998925965E+01 -0.33573363151E+02  0.52256550966E+02  0.00000000000E+00 0. -1.
         11    1    1    2    0    0 -0.44992653255E+02 -0.13945613441E+01 -0.10652515026E+01  0.45026863193E+02  0.00000000000E+00 0.  1.
</event>
<event>
 7    1  0.2899775E-009  0.2273761E+03  0.7561462E-02  0.1128500E+00
          2   -1    0    0  501    0  0.00000000000E+00  0.00000000000E+00  0.19109292348E+03  0.19109292348E+03  0.00000000000E+00 0. -1.
         -2   -1    0    0    0  501 -0.00000000000E+00 -0.00000000000E+00 -0.31275954785E+03  0.31275954785E+03  0.00000000000E+00 0.  1.
         25    2    1    2    0    0 -0.79061943330E+02 -0.20118818718E+03 -0.97953391149E+02  0.26826737525E+03  0.12508013528E+03 0.  0.
          5    1    3    3  502    0 -0.83864198019E+02 -0.18009553268E+03 -0.35256716712E+02  0.20181207366E+03  0.41800000000E+01 0.  1.
         -5    1    3    3    0  502  0.48022546895E+01 -0.21092654499E+02 -0.62696674437E+02  0.66455301590E+02  0.41800000000E+01 0.  1.
        -11    1    1    2    0    0  0.11422227048E+02  0.14672825152E+03 -0.84469109484E+01  0.14741437301E+03  0.00000000000E+00 0.  1.
         11    1    1    2    0    0  0.67639716281E+02  0.54459935663E+02 -0.15266322274E+02  0.88170723071E+02  0.00000000000E+00 0. -1.
</event>
<event>
 7    1  0.2899775E-009  0.1549328E+03  0.7561462E-02  0.1194539E+00
          1   -1    0    0  501    0  0.00000000000E+00  0.00000000000E+00  0.21695296948E+03  0.21695296948E+03  0.00000000000E+00 0. -1.
         -1   -1    0    0    0  501 -0.00000000000E+00 -0.00000000000E+00 -0.14012685106E+03  0.14012685106E+03  0.00000000000E+00 0.  1.
         25    2    1    2    0    0  0.62142054099E+02 -0.11613129471E+03  0.76930974959E+02  0.19726716145E+03  0.12509134895E+03 0.  0.
          5    1    3    3  502    0 -0.29211942122E+02 -0.11863447622E+02 -0.10293423097E+02  0.33429117713E+02  0.41800000000E+01 0.  1.
         -5    1    3    3    0  502  0.91353996221E+02 -0.10426784708E+03  0.87224398056E+02  0.16383804374E+03  0.41800000000E+01 0.  1.
        -11    1    1    2    0    0 -0.28827974808E+02  0.96475716359E+02  0.35968016103E+02  0.10692200036E+03  0.00000000000E+00 0.  1.
         11    1    1    2    0    0 -0.33314079291E+02  0.19655578346E+02 -0.36072872645E+02  0.52890658721E+02  0.00000000000E+00 0. -1.
</event>
<event>
 7    1  0.2899775E-009  0.1070442E+03  0.7561462E-02  0.1266144E+00
          4   -1    0    0  501    0  0.00000000000E+00  0.00000000000E+00  0.80467030579E+02  0.80467030579E+02  0.00000000000E+00 0. -1.
         -4   -1    0    0    0  501 -0.00000000000E+00 -0.00000000000E+00 -0.27954019041E+03  0.27954019041E+03  0.00000000000E+00 0.  1.
         25    2    1    2    0    0 -0.44563081814E+02  0.56657552849E+02 -0.19642592377E+03  0.24377552279E+03  0.12508962957E+03 0.  0.
          5    1    3    3  502    0 -0.84702391645E+02  0.53460045776E+02 -0.11308786715E+03  0.15112514596E+03  0.41800000000E+01 0.  1.
         -5    1    3    3    0  502  0.40139309831E+02  0.31975070725E+01 -0.83338056627E+02  0.92650376834E+02  0.41800000000E+01 0.  1.
        -11    1    1    2    0    0  0.20780170319E+01 -0.10166592518E+02 -0.41134682204E+02  0.42423340724E+02  0.00000000000E+00 0.  1.
         11    1    1    2    0    0  0.42485064782E+02 -0.46490960331E+02  0.38487446146E+02  0.73808357473E+02  0.00000000000E+00 0. -1.
</event>
<event>
 7    1  0.2899775E-009  0.1107876E+03  0.7561462E-02  0.1259118E+00
          1   -1    0    0  501    0  0.00000000000E+00  0.00000000000E+00  0.34650647129E+02  0.34650647129E+02  0.00000000000E+00 0. -1.
         -1   -1    0    0    0  501 -0.00000000000E+00 -0.00000000000E+00 -0.42334060803E+03  0.42334060803E+03  0.00000000000E+00 0.  1.
         25    2    1    2    0    0 -0.44960787406E+02 -0.17021460454E+02 -0.25981265475E+03  0.29233908998E+03  0.12509326698E+03 0.  0.
          5    1    3    3  502    0  0.78397404230E+01 -0.52975801301E+02 -0.19075654689E+03  0.19817524980E+03  0.41800000000E+01 0. -1.
         -5    1    3    3    0  502 -0.52800527829E+02  0.35954340848E+02 -0.69056107858E+02  0.94163840179E+02  0.41800000000E+01 0. -1.
        -11    1    1    2    0    0  0.67814981604E+02 -0.98950428376E+01 -0.90180486443E+02  0.11326651640E+03  0.00000000000E+00 0.  1.
         11    1    1    2    0    0 -0.22854194198E+02  0.26916503291E+02 -0.38696819713E+02  0.52385648777E+02  0.00000000000E+00 0. -1.
</event>
<event>
 7    1  0.2899775E-009  0.1915910E+03  0.7561462E-02  0.1157034E+00
         -4   -1    0    0    0  501 -0.00000000000E+00  0.00000000000E+00  0.36692057339E+03  0.36692057339E+03  0.00000000000E+00 0.  1.
          4   -1    0    0  501    0  0.00000000000E+00 -0.00000000000E+00 -0.13887599084E+03  0.13887599084E+03  0.00000000000E+00 0. -1.
         25    2    1    2    0    0  0.17769833321E+02  0.17459764441E+03  0.21972681460E+03  0.30777787822E+03  0.12508894778E+03 0.  0.
          5    1    3    3  502    0  0.64578476755E+02  0.10296792124E+03  0.85953117654E+02  0.14892341421E+03  0.41800000000E+01 0.  1.
         -5    1    3    3    0  502 -0.46808643434E+02  0.71629723171E+02  0.13377369695E+03  0.15885446401E+03  0.41800000000E+01 0.  1.
        -11    1    1    2    0    0 -0.19512806047E+02 -0.15538556996E+03  0.39354682873E+02  0.16147512507E+03  0.00000000000E+00 0.  1.
         11    1    1    2    0    0  0.17429727261E+01 -0.19212074450E+02 -0.31036914920E+02  0.36543560942E+02  0.00000000000E+00 0. -1.
</event>
<event>
 7    1  0.2899775E-009  0.1116314E+03  0.7561462E-02  0.1257578E+00
          1   -1    0    0  501    0  0.00000000000E+00  0.00000000000E+00  0.11723672947E+04  0.11723672947E+04  0.00000000000E+00 0. -1.
         -1   -1    0    0    0  501 -0.00000000000E+00 -0.00000000000E+00 -0.14475307495E+02  0.14475307495E+02  0.00000000000E+00 0.  1.
         25    2    1    2    0    0 -0.27547472398E+01 -0.33069080986E+02  0.92331206631E+03  0.93233778604E+03  0.12508965882E+03 0.  0.
          5    1    3    3  502    0 -0.49580953105E+02  0.23819463573E+02  0.35690227801E+03  0.36114034142E+03  0.41800000000E+01 0.  1.
         -5    1    3    3    0  502  0.46826205865E+02 -0.56888544559E+02  0.56640978830E+03  0.57119744462E+03  0.41800000000E+01 0.  1.
        -11    1    1    2    0    0  0.18100100897E+02 -0.26885702684E+02  0.11976211637E+03  0.12407021874E+03  0.00000000000E+00 0. -1.
         11    1    1    2    0    0 -0.15345353657E+02  0.59954783669E+02  0.11481780447E+03  0.13043459736E+03  0.00000000000E+00 0.  1.
</event>
<event>
 7    1  0.2899775E-009  0.1691603E+03  0.7561462E-02  0.1178726E+00
          1   -1    0    0  501    0  0.00000000000E+00  0.00000000000E+00  0.24349407597E+02  0.24349407597E+02  0.00000000000E+00 0. -1.
         -1   -1    0    0    0  501 -0.00000000000E+00 -0.00000000000E+00 -0.12284665146E+04  0.12284665146E+04  0.00000000000E+00 0.  1.
         25    2    1    2    0    0  0.12490863849E+03  0.39331288060E+02 -0.53973294999E+03  0.56930499682E+03  0.12508958352E+03 0.  0.
          5    1    3    3  502    0  0.27200653393E+01  0.55912927557E+02 -0.20541602817E+03  0.21294804825E+03  0.41800000000E+01 0.  1.
         -5    1    3    3    0  502  0.12218857315E+03 -0.16581639497E+02 -0.33431692182E+03  0.35635694857E+03  0.41800000000E+01 0.  1.
        -11    1    1    2    0    0 -0.88629421067E+02 -0.68693522237E+02 -0.51219460149E+03  0.52432555161E+03  0.00000000000E+00 0. -1.
         11    1    1    2    0    0 -0.36279217425E+02  0.29362234177E+02 -0.15218955554E+03  0.15918537379E+03  0.00000000000E+00 0.  1.
</event>
<event>
 7    1  0.2899775E-009  0.1041054E+03  0.7561462E-02  0.1271892E+00
         -1   -1    0    0    0  501 -0.00000000000E+00  0.00000000000E+00  0.26210409822E+03  0.26210409822E+03  0.00000000000E+00 0.  1.
          1   -1    0    0  501    0  0.00000000000E+00 -0.00000000000E+00 -0.66742936981E+02  0.66742936981E+02  0.00000000000E+00 0. -1.
         25    2    1    2    0    0 -0.25009450702E+02  0.66525482110E+02  0.14456115117E+03  0.20395522513E+03  0.12509474423E+03 0.  0.
          5    1    3    3  502    0 -0.22432150943E+01  0.88372477908E+02  0.44706857413E+02  0.99150907032E+02  0.41800000000E+01 0. -1.
         -5    1    3    3    0  502 -0.22766235608E+02 -0.21846995797E+02  0.99854293759E+02  0.10480431809E+03  0.41800000000E+01 0. -1.
        -11    1    1    2    0    0  0.40016702728E+02 -0.58462494287E+02 -0.48843532975E+00  0.70847994358E+02  0.00000000000E+00 0. -1.
         11    1    1    2    0    0 -0.15007252025E+02 -0.80629878234E+01  0.51288445398E+02  0.54043815718E+02  0.00000000000E+00 0.  1.
</event>
<event>
 7    1  0.2899775E-009  0.9894816E+02  0.7561462E-02  0.1282523E+00
         -1   -1    0    0    0  501 -0.00000000000E+00  0.00000000000E+00  0.18946988396E+03  0.18946988396E+03  0.00000000000E+00 0.  1.
          1   -1    0    0  501    0  0.00000000000E+00 -0.00000000000E+00 -0.85588917780E+02  0.85588917780E+02  0.00000000000E+00 0. -1.
         25    2    1    2    0    0 -0.43202217536E+02 -0.79138974740E+01  0.40539633382E+01  0.13263687682E+03  0.12508814933E+03 0.  0.
          5    1    3    3  502    0  0.16518489838E+02  0.43109324944E+02 -0.19848614889E+02  0.50425334076E+02  0.41800000000E+01 0. -1.
         -5    1    3    3    0  502 -0.59720707374E+02 -0.51023222418E+02  0.23902578227E+02  0.82211542748E+02  0.41800000000E+01 0. -1.
        -11    1    1    2    0    0 -0.14378148707E+02 -0.17907457706E+01  0.79167500297E+02  0.80482488989E+02  0.00000000000E+00 0.  1.
         11    1    1    2    0    0  0.57580366243E+02  0.97046432446E+01  0.20659502540E+02  0.61939435922E+02  0.00000000000E+00 0. -1.
</event>
<event>
 7    1  0.2899775E-009  0.1255466E+03  0.7561462E-02  0.1234217E+00
          4   -1    0    0  501    0  0.00000000000E+00  0.00000000000E+00  0.44549513833E+03  0.44549513833E+03  0.00000000000E+00 0.  1.
         -4   -1    0    0    0  501 -0.00000000000E+00 -0.00000000000E+00 -0.41465908197E+02  0.41465908197E+02  0.00000000000E+00 0. -1.
         25    2    1    2    0    0 -0.69012046509E+01  0.79273205839E+02  0.20683870313E+03  0.25448272055E+03  0.12508932072E+03 0.  0.
          5    1    3    3  502    0 -0.59412675306E+02  0.23001551454E+02  0.13399130356E+03  0.14842533202E+03  0.41800000000E+01 0. -1.
         -5    1    3    3    0  502  0.52511470655E+02  0.56271654385E+02  0.72847399568E+02  0.10605738853E+03  0.41800000000E+01 0. -1.
        -11    1    1    2    0    0 -0.32730615834E+02 -0.54051588059E+02  0.16168241712E+03  0.17359168007E+03  0.00000000000E+00 0.  1.
         11    1    1    2    0    0  0.39631820485E+02 -0.25221617780E+02  0.35508109887E+02  0.58886645907E+02  0.00000000000E+00 0. -1.
</event>
<event>
 6    1  0.2899775E-009  0.2390159E+03  0.7561462E-02  0.1120450E+00
          1   -1    0    0  501    0  0.00000000000E+00  0.00000000000E+00  0.91600572267E+02  0.91600572267E+02  0.00000000000E+00 0. -1.
         -1   -1    0    0    0  501 -0.00000000000E+00 -0.00000000000E+00 -0.73415278618E+03  0.73415278618E+03  0.00000000000E+00 0.  1.
          5    1    1    2  502    0  0.11431806460E+03 -0.21713032954E+02 -0.67099835167E+02  0.13438726121E+03  0.41800000000E+01 0.  1.
         -5    1    1    2    0  502  0.11059263613E+03 -0.46470906812E+02 -0.26711115204E+03  0.29284145248E+03  0.41800000000E+01 0.  1.
        -11    1    1    2    0    0 -0.39049556359E+02  0.35650466660E+02 -0.12369640486E+03  0.13452369383E+03  0.00000000000E+00 0.  1.
         11    1    1    2    0    0 -0.18586114438E+03  0.32533473106E+02 -0.18464482184E+03  0.26400095093E+03  0.00000000000E+00 0. -1.
</event>
<event>
 6    1  0.2899775E-009  0.1196431E+03  0.7561462E-02  0.1243687E+00
          1   -1    0    0  501    0  0.00000000000E+00  0.00000000000E+00  0.45604603330E+03  0.45604603330E+03  0.00000000000E+00 0. -1.
         -1   -1    0    0    0  501 -0.00000000000E+00 -0.00000000000E+00 -0.42756775803E+02  0.42756775803E+02  0.00000000000E+00 0.  1.
          5    1    1    2  502    0  0.52952655001E+02  0.85460160223E+02  0.16442991378E+03  0.19277471723E+03  0.41800000000E+01 0. -1.
         -5    1    1    2    0  502  0.24485908774E+02 -0.41224868059E+02  0.37683971813E+02  0.61127764613E+02  0.41800000000E+01 0. -1.
        -11    1    1    2    0    0 -0.45044650994E+02 -0.16775922186E+02  0.19267320474E+03  0.19857848819E+03  0.00000000000E+00 0. -1.
         11    1    1    2    0    0 -0.32393912781E+02 -0.27459369978E+02  0.18502167161E+02  0.46321839067E+02  0.00000000000E+00 0.  1.
</event>
<event>
 7    1  0.2899775E-009  0.5335478E+02  0.7561462E-02  0.1428043E+00
         -2   -1    0    0    0  501 -0.00000000000E+00  0.00000000000E+00  0.17254601092E+03  0.17254601092E+03  0.00000000000E+00 0.  1.
          2   -1    0    0  501    0  0.00000000000E+00 -0.00000000000E+00 -0.69443271378E+02  0.69443271378E+02  0.00000000000E+00 0. -1.
         25    2    1    2    0    0  0.11759185911E+02 -0.17286657565E+02  0.75973905162E+02  0.14783820382E+03  0.12508794211E+03 0.  0.
          5    1    3    3  502    0  0.19317506343E+02  0.49290047926E+01  0.10688260899E+03  0.10880636766E+03  0.41800000000E+01 0. -1.
         -5    1    3    3    0  502 -0.75583204320E+01 -0.22215662357E+02 -0.30908703826E+02  0.39031836159E+02  0.41800000000E+01 0. -1.
        -11    1    1    2    0    0  0.23657366100E+02  0.12526316428E+02 -0.21128770888E+02  0.34102852275E+02  0.00000000000E+00 0. -1.
         11    1    1    2    0    0 -0.35416552011E+02  0.47603411371E+01  0.48257605268E+02  0.60048226204E+02  0.00000000000E+00 0.  1.
</event>
<event>
 7    1  0.2899775E-009  0.1064414E+03  0.7561462E-02  0.1267305E+00
         -4   -1    0    0    0  501 -0.00000000000E+00  0.00000000000E+00  0.54948760574E+02  0.54948760574E+02  0.00000000000E+00 0.  1.
          4   -1    0    0  501    0  0.00000000000E+00 -0.00000000000E+00 -0.24761356837E+03  0.24761356837E+03  0.00000000000E+00 0. -1.
         25    2    1    2    0    0 -0.37997627616E+02 -0.19620362920E+02 -0.11208210764E+03  0.17331672354E+03  0.12509000543E+03 0.  0.
          5    1    3    3  502    0 -0.58900781848E+02  0.26583081466E+02 -0.10294538356E+03  0.12161902285E+03  0.41800000000E+01 0.  1.
         -5    1    3    3    0  502  0.20903154231E+02 -0.46203444386E+02 -0.91367240863E+01  0.51697700693E+02  0.41800000000E+01 0.  1.
        -11    1    1    2    0    0  0.21708407674E+01 -0.33280505944E+02 -0.45321226668E+02  0.56270047203E+02  0.00000000000E+00 0. -1.
         11    1    1    2    0    0  0.35826786849E+02  0.52900868865E+02 -0.35261473487E+02  0.72975558203E+02  0.00000000000E+00 0.  1.
</event>
<event>
 7    1  0.2899775E-009  0.1868422E+03  0.7561462E-02  0.1161341E+00
         -1   -1    0    0    0  501 -0.00000000000E+00  0.00000000000E+00  0.24512634124E+02  0.24512634124E+02  0.00000000000E+00 0.  1.
          1   -1    0    0  501    0  0.00000000000E+00 -0.00000000000E+00 -0.15860750748E+04  0.15860750748E+04  0.00000000000E+00 0. -1.
         25    2    1    2    0    0 -0.49606751457E+02  0.15605359963E+03 -0.80509480643E+03  0.83104544904E+03  0.12508131468E+03 0.  0.
          5    1    3    3  502    0  0.37426148998E+01  0.12902108446E+03 -0.37109446179E+03  0.39292368136E+03  0.41800000000E+01 0.  1.
         -5    1    3    3    0  502 -0.53349366357E+02  0.27032515166E+02 -0.43400034464E+03  0.43812176768E+03  0.41800000000E+01 0.  1.
        -11    1    1    2    0    0 -0.23546017796E+02 -0.55069072488E+02 -0.17862776798E+03  0.18840089488E+03  0.00000000000E+00 0.  1.
         11    1    1    2    0    0  0.73152769253E+02 -0.10098452714E+03 -0.57783986623E+03  0.59114136497E+03  0.00000000000E+00 0. -1.
</event>
<event>
 7    1  0.2899775E-009  0.1001747E+03  0.7561462E-02  0.1279929E+00
          2   -1    0    0  501    0  0.00000000000E+00  0.00000000000E+00  0.14892496296E+03  0.14892496296E+03  0.00000000000E+00 0. -1.
         -2   -1    0    0    0  501 -0.00000000000E+00 -0.00000000000E+00 -0.91159424921E+02  0.91159424921E+02  0.00000000000E+00 0.  1.
         25    2    1    2    0    0 -0.34534170690E+02 -0.59995492315E+01  0.11513350406E+02  0.13042623469E+03  0.12509932822E+03 0.  0.
          5    1    3    3  502    0 -0.70497938504E+02  0.28336034249E+02  0.22463753198E+02  0.79340927509E+02  0.41800000000E+01 0. -1.
         -5    1    3    3    0  502  0.35963767814E+02 -0.34335583480E+02 -0.10950402793E+02  0.51085307180E+02  0.41800000000E+01 0. -1.
        -11    1    1    2    0    0  0.37594892834E+02  0.31271317147E+02 -0.81682047679E+01  0.49578128368E+02  0.00000000000E+00 0.  1.
         11    1    1    2    0    0 -0.30607221444E+01 -0.25271767916E+02  0.54420392402E+02  0.60080024823E+02  0.00000000000E+00 0. -1.
</event>
<event>
 7    1  0.2899775E-009  0.1081367E+03  0.7561462E-02  0.1264060E+00
          1   -1    0    0  501    0  0.00000000000E+00  0.00000000000E+00  0.22380374193E+03  0.22380374193E+03  0.00000000000E+00 0. -1.
         -1   -1    0    0    0  501 -0.00000000000E+00 -0.00000000000E+00 -0.65807286963E+02  0.65807286963E+02  0.00000000000E+00 0.  1.
         25    2    1    2    0    0  0.26571060917E+01 -0.41791030299E+02  0.50800400035E+02  0.14135466299E+03  0.12508760802E+03 0.  0.
          5    1    3    3  502    0 -0.13083245478E+02  0.38748945210E+02  0.41905936558E+02  0.58704616393E+02  0.41800000000E+01 0.  1.
         -5    1    3    3    0  502  0.15740351569E+02 -0.80539975509E+02  0.88944634767E+01  0.82650046600E+02  0.41800000000E+01 0.  1.
        -11    1    1    2    0    0  0.38315360968E+02  0.34124916049E+02  0.27249777922E+02  0.58095844759E+02  0.00000000000E+00 0. -1.
         11    1    1    2    0    0 -0.40972467059E+02  0.76661142502E+01  0.79946277008E+02  0.90160521139E+02  0.00000000000E+00 0.  1.
</event>
<event>
 7    1  0.2899775E-009  0.6898745E+02  0.7561462E-02  0.1363570E+00
          2   -1    0    0  501    0  0.00000000000E+00  0.00000000000E+00  0.38474887229E+03  0.38474887229E+03  0.00000000000E+00 0. -1.
         -2   -1    0    0    0  501 -0.00000000000E+00 -0.00000000000E+00 -0.44635513958E+02  0.44635513958E+02  0.00000000000E+00 0.  1.
         25    2    1    2    0    0  0.52274298240E+02  0.43304326666E+01  0.26000991164E+03  0.29326620900E+03  0.12509420566E+03 0.  0.
          5    1    3    3  502    0  0.13351974001E+02  0.15694802897E+02 -0.77596918317E+01  0.22411766218E+02  0.41800000000E+01 0.  1.
         -5    1    3    3    0  502  0.38922324239E+02 -0.11364370230E+02  0.26776960347E+03  0.27085444279E+03  0.41800000000E+01 0.  1.
        -11    1    1    2    0    0 -0.24141805678E+02  0.25546928722E+02  0.87611406999E+02  0.94399316654E+02  0.00000000000E+00 0. -1.
         11    1    1    2    0    0 -0.28132492561E+02 -0.29877361388E+02 -0.75079603006E+01  0.41718860592E+02  0.00000000000E+00 0.  1.
</event>
<event>
 7    1  0.2899775E-009  0.1766995E+03  0.7561462E-02  0.1171036E+00
         -2   -1    0    0    0  501 -0.00000000000E+00  0.00000000000E+00  0.10647718102E+04  0.10647718102E+04  0.00000000000E+00 0.  1.
          2   -1    0    0  501    0  0.00000000000E+00 -0.00000000000E+00 -0.34373386949E+02  0.34373386949E+02  0.00000000000E+00 0. -1.
         25    2    1    2    0    0 -0.71728983644E+02  0.13835873492E+03  0.58637784327E+03  0.61949715509E+03  0.12509821527E+03 0.  0.
          5    1    3    3  502    0 -0.55286393050E+02  0.15897447927E+03  0.54355102272E+03  0.56902957482E+03  0.41800000000E+01 0.  1.
         -5    1    3    3    0  502 -0.16442590594E+02 -0.20615744346E+02  0.42826820551E+02  0.50467580275E+02  0.41800000000E+01 0.  1.
        -11    1    1    2    0    0  0.57019899825E+02 -0.12862297307E+03  0.43945428768E+03  0.46142736063E+03  0.00000000000E+00 0.  1.
         11    1    1    2    0    0  0.14709083819E+02 -0.97357618490E+01  0.45662922729E+01  0.18220681401E+02  0.00000000000E+00 0. -1.
</event>
<event>
 7    1  0.2899775E-009  0.8459693E+02  0.7561462E-02  0.1316490E+00
          3   -1    0    0  501    0  0.00000000000E+00  0.00000000000E+00  0.16622971496E+03  0.16622971496E+03  0.00000000000E+00 0.  1.
         -3   -1    0    0    0  501 -0.00000000000E+00 -0.00000000000E+00 -0.90163927215E+02  0.90163927215E+02  0.00000000000E+00 0. -1.
         25    2    1    2    0    0  0.11782126173E+02 -0.18585306407E+02 -0.39553122188E+01  0.12706899737E+03  0.12508658396E+03 0.  0.
          5    1    3    3  502    0  0.28806570539E+02 -0.37510308865E+02 -0.53304556025E+02  0.71384100963E+02  0.41800000000E+01 0. -1.
         -5    1    3    3    0  502 -0.17024444366E+02  0.18925002459E+02  0.49349243806E+02  0.55684896410E+02  0.41800000000E+01 0. -1.
        -11    1    1    2    0    0  0.36625262383E+02  0.28619839021E+02  0.60215314631E+02  0.76068318939E+02  0.00000000000E+00 0.  1.
         11    1    1    2    0    0 -0.48407388555E+02 -0.10034532614E+02  0.19805785332E+02  0.53256325860E+02  0.00000000000E+00 0. -1.
</event>
<event>
 7    1  0.2899775E-009  0.1767995E+03  0.7561462E-02  0.1170937E+00
         -1   -1    0    0    0  501 -0.00000000000E+00  0.00000000000E+00  0.58567743166E+03  0.58567743166E+03  0.00000000000E+00 0.  1.
          1   -1    0    0  501    0  0.00000000000E+00 -0.00000000000E+00 -0.61899017096E+02  0.61899017096E+02  0.00000000000E+00 0. -1.
         25    2    1    2    0    0  0.15450291051E+03  0.56563862361E+00  0.31566432308E+03  0.37304566049E+03  0.12509048981E+03 0.  0.
          5    1    3    3  502    0  0.12792906366E+03 -0.52483583189E+02  0.23706905728E+03  0.27448056789E+03  0.41800000000E+01 0.  1.
         -5    1    3    3    0  502  0.26573846854E+02  0.53049221813E+02  0.78595265800E+02  0.98565092592E+02  0.41800000000E+01 0.  1.
        -11    1    1    2    0    0 -0.33073437094E+02  0.80684725480E+01  0.72357783099E+00  0.34051080091E+02  0.00000000000E+00 0. -1.
         11    1    1    2    0    0 -0.12142947342E+03 -0.86341111716E+01  0.20739051365E+03  0.24047970817E+03  0.00000000000E+00 0.  1.
</event>
<event>
 7    1  0.2899775E-009  0.2296093E+03  0.7561462E-02  0.1126915E+00
         -2   -1    0    0    0  501 -0.00000000000E+00  0.00000000000E+00  0.38255200733E+02  0.38255200733E+02  0.00000000000E+00 0.  1.
          2   -1    0    0  501    0  0.00000000000E+00 -0.00000000000E+00 -0.16834990215E+04  0.16834990215E+04  0.00000000000E+00 0. -1.
         25    2    1    2    0    0  0.12435175058E+03  0.17996297472E+03 -0.10804054507E+04  0.11094023753E+04  0.12509061595E+03 0.  0.
          5    1    3    3  502    0  0.24601382267E+02  0.11147262314E+03 -0.32810094468E+03  0.34741772554E+03  0.41800000000E+01 0. -1.
         -5    1    3    3    0  502  0.99750368309E+02  0.68490351579E+02 -0.75230450602E+03  0.76198464972E+03  0.41800000000E+01 0. -1.
        -11    1    1    2    0    0 -0.15306407068E+02 -0.59454518105E+02 -0.78997208427E+02  0.10004841208E+03  0.00000000000E+00 0.  1.
         11    1    1    2    0    0 -0.10904534351E+03 -0.12050845662E+03 -0.48584116168E+03  0.51230343493E+03  0.00000000000E+00 0. -1.
</event>
<event>
 7    1  0.2899775E-009  0.3770253E+03  0.7561462E-02  0.1052039E+00
          1   -1    0    0  501    0  0.00000000000E+00  0.00000000000E+00  0.84972938764E+03  0.84972938764E+03  0.00000000000E+00 0. -1.
         -1   -1    0    0    0  501 -0.00000000000E+00 -0.00000000000E+00 -0.19424243674E+03  0.19424243674E+03  0.00000000000E+00 0.  1.
         25    2    1    2    0    0 -0.13334060350E+03 -0.33902545535E+03  0.51404448900E+03  0.64234536482E+03  0.12509138706E+03 0.  0.
          5    1    3    3  502    0 -0.92173922345E+02 -0.32226972610E+03  0.48316359855E+03  0.58806321402E+03  0.41800000000E+01 0.  1.
         -5    1    3    3    0  502 -0.41166681159E+02 -0.16755729249E+02  0.30880890450E+02  0.54282150798E+02  0.41800000000E+01 0.  1.
        -11    1    1    2    0    0  0.41271728388E+02  0.28124912500E+02  0.62820250673E+01  0.50337164265E+02  0.00000000000E+00 0. -1.
         11    1    1    2    0    0  0.92068875115E+02  0.31090054285E+03  0.13516043683E+03  0.35128929530E+03  0.00000000000E+00 0.  1.
</event>
<event>
 7    1  0.2899775E-009  0.1898871E+03  0.7561462E-02  0.1158563E+00
         -1   -1    0    0    0  501 -0.00000000000E+00  0.00000000000E+00  0.47582964564E+03  0.47582964564E+03  0.00000000000E+00 0.  1.
          1   -1    0    0  501    0  0.00000000000E+00 -0.00000000000E+00 -0.10223255425E+03  0.10223255425E+03  0.00000000000E+00 0. -1.
         25    2    1    2    0    0 -0.15532191958E+03 -0.10229434148E+03  0.25336131245E+03  0.33827376941E+03  0.12509259541E+03 0.  0.
          5    1    3    3  502    0 -0.12645801399E+03 -0.98830636731E+02  0.26233364659E+03  0.30756387725E+03  0.41800000000E+01 0.  1.
         -5    1    3    3    0  502 -0.28863905591E+02 -0.34637047513E+01 -0.89723341393E+01  0.30709892160E+02  0.41800000000E+01 0.  1.
        -11    1    1    2    0    0  0.83797234707E+02  0.32383782070E+02  0.10570254059E+03  0.13872171053E+03  0.00000000000E+00 0.  1.
         11    1    1    2    0    0  0.71524684870E+02  0.69910559412E+02  0.14533238352E+02  0.10106671994E+03  0.00000000000E+00 0. -1.
</event>
<event>
 7    1  0.2899775E-009  0.1213675E+03  0.7561462E-02  0.1240858E+00
          2   -1    0    0  501    0  0.00000000000E+00  0.00000000000E+00  0.80451978734E+03  0.80451978734E+03  0.00000000000E+00 0. -1.
         -2   -1    0    0    0  501 -0.00000000000E+00 -0.00000000000E+00 -0.20691928922E+02  0.20691928922E+02  0.00000000000E+00 0.  1.
         25    2    1    2    0    0  0.65430432073E+02 -0.49386371231E+01  0.49407804479E+03  0.51387375741E+03  0.12509033789E+03 0.  0.
          5    1    3    3  502    0  0.55691632474E+02  0.50416015500E+02  0.18526454760E+03  0.19995938974E+03  0.41800000000E+01 0. -1.
         -5    1    3    3    0  502  0.97387995985E+01 -0.55354652623E+02  0.30881349719E+03  0.31391436767E+03  0.41800000000E+01 0. -1.
        -11    1    1    2    0    0  0.18985405749E+02 -0.15236701218E+02  0.38815648472E+02  0.45817652294E+02  0.00000000000E+00 0.  1.
         11    1    1    2    0    0 -0.84415837822E+02  0.20175338341E+02  0.25093416515E+03  0.26552030656E+03  0.00000000000E+00 0. -1.
</event>
<event>
 7    1  0.2899775E-009  0.1079009E+03  0.7561462E-02  0.1264507E+00
         -1   -1    0    0    0  501 -0.00000000000E+00  0.00000000000E+00  0.44739702700E+03  0.44739702700E+03  0.00000000000E+00 0.  1.
          1   -1    0    0  501    0  0.00000000000E+00 -0.00000000000E+00 -0.40770940635E+02  0.40770940635E+02  0.00000000000E+00 0. -1.
         25    2    1    2    0    0 -0.65454696825E+01 -0.57682753699E+02  0.32224896565E+03  0.35051703998E+03  0.12509059200E+03 0.  0.
          5    1    3    3  502    0 -0.38416832475E+02 -0.86364004166E+02  0.21228071968E+03  0.23241164037E+03  0.41800000000E+01 0.  1.
         -5    1    3    3    0  502  0.31871362793E+02  0.28681250467E+02  0.10996824596E+03  0.11810539960E+03  0.41800000000E+01 0.  1.
        -11    1    1    2    0    0 -0.22916636993E+02  0.29293816379E+02 -0.67134911818E+01  0.37793794371E+02  0.00000000000E+00 0. -1.
         11    1    1    2    0    0  0.29462106676E+02  0.28388937320E+02  0.91090611905E+02  0.99857133291E+02  0.00000000000E+00 0.  1.
</event>
<event>
 7    1  0.2899775E-009  0.1391685E+03  0.7561462E-02  0.1214452E+00
         -1   -1    0    0    0  501 -0.00000000000E+00  0.00000000000E+00  0.37872358719E+02  0.37872358719E+02  0.00000000000E+00 0.  1.
          1   -1    0    0  501    0  0.00000000000E+00 -0.00000000000E+00 -0.89807921886E+03  0.89807921886E+03  0.00000000000E+00 0. -1.
         25    2    1    2    0    0  0.62761010787E+02  0.88447598786E+02 -0.19564300081E+03  0.25628169261E+03  0.12506878106E+03 0.  0.
          5    1    3    3  502    0  0.40208990049E+02  0.10873646184E+03 -0.91559220812E+02  0.14778682056E+03  0.41800000000E+01 0.  1.
         -5    1    3    3    0  502  0.22552020738E+02 -0.20288863054E+02 -0.10408378000E+03  0.10849487205E+03  0.41800000000E+01 0.  1.
        -11    1    1    2    0    0 -0.79405974847E+02 -0.81136224779E+02 -0.63418843935E+03  0.64426964264E+03  0.00000000000E+00 0.  1.
         11    1    1    2    0    0  0.16644964060E+02 -0.73113740068E+01 -0.30375419982E+02  0.35400242337E+02  0.00000000000E+00 0. -1.
</event>
<event>
 7    1  0.2899775E-009  0.1042058E+03  0.7561462E-02  0.1271692E+00
          2   -1    0    0  501    0  0.00000000000E+00  0.00000000000E+00  0.13127142320E+03  0.13127142320E+03  0.00000000000E+00 0. -1.
         -2   -1    0    0    0  501 -0.00000000000E+00 -0.00000000000E+00 -0.14923159682E+03  0.14923159682E+03  0.00000000000E+00 0.  1.
         25    2    1    2    0    0  0.50649305249E+02  0.30304374068E+02  0.56787181709E+02  0.14952433709E+03  0.12509610772E+03 0.  0.
          5    1    3    3  502    0  0.33012371189E+02 -0.25701542813E+02  0.76627356007E+02  0.87404862812E+02  0.41800000000E+01 0. -1.
         -5    1    3    3    0  502  0.17636934059E+02  0.56005916882E+02 -0.19840174297E+02  0.62119474281E+02  0.41800000000E+01 0. -1.
        -11    1    1    2    0    0 -0.45139998582E+02  0.25216813262E+02 -0.38064779993E+02  0.64206188322E+02  0.00000000000E+00 0. -1.
         11    1    1    2    0    0 -0.55093066670E+01 -0.55521187330E+02 -0.36682575339E+02  0.66772494607E+02  0.00000000000E+00 0.  1.
</event>
<event>
 7    1  0.2899775E-009  0.9044806E+02  0.7561462E-02  0.1301770E+00
         -2   -1    0    0    0  501 -0.00000000000E+00  0.00000000000E+00  0.17302679266E+03  0.17302679266E+03  0.00000000000E+00 0.  1.
          2   -1    0    0  501    0  0.00000000000E+00 -0.00000000000E+00 -0.84693755793E+02  0.84693755793E+02  0.00000000000E+00 0. -1.
         25    2    1    2    0    0  0.51133778506E+02  0.94192556501E+00  0.27164897199E+02  0.13784289862E+03  0.12508869866E+03 0.  0.
          5    1    3    3  502    0  0.23125636358E+02 -0.32079706994E+02 -0.40912057133E+02  0.57054110077E+02  0.41800000000E+01 0. -1.
         -5    1    3    3    0  502  0.28008142148E+02  0.33021632559E+02  0.68076954332E+02  0.80788788545E+02  0.41800000000E+01 0. -1.
        -11    1    1    2    0    0  0.15741327260E+02 -0.22415206815E+02  0.10269657836E+01  0.27409588454E+02  0.00000000000E+00 0. -1.
         11    1    1    2    0    0 -0.66875105766E+02  0.21473281250E+02  0.60141173889E+02  0.92468061382E+02  0.00000000000E+00 0.  1.
</event>
<event>
 7    1  0.2899775E-009  0.1285332E+03  0.7561462E-02  0.1229649E+00
         -1   -1    0    0    0  501 -0.00000000000E+00  0.00000000000E+00  0.19450547837E+04  0.19450547837E+04  0.00000000000E+00 0.  1.
          1   -1    0    0  501    0  0.00000000000E+00 -0.00000000000E+00 -0.11780145965E+02  0.11780145965E+02  0.00000000000E+00 0. -1.
         25    2    1    2    0    0 -0.63908692638E+02  0.56077660572E+02  0.14452369544E+04  0.14531298014E+04  0.12508932920E+03 0.  0.
          5    1    3    3  502    0 -0.79188470222E+02 -0.51683311429E+00  0.51827587932E+03  0.52430758188E+03  0.41800000000E+01 0.  1.
         -5    1    3    3    0  502  0.15279777584E+02  0.56594493686E+02  0.92696107508E+03  0.92882221949E+03  0.41800000000E+01 0.  1.
        -11    1    1    2    0    0  0.80363607014E+01 -0.62265896854E+02  0.33118999570E+03  0.33708817579E+03  0.00000000000E+00 0.  1.
         11    1    1    2    0    0  0.55872331936E+02  0.61882362814E+01  0.15684768767E+03  0.16661695253E+03  0.00000000000E+00 0. -1.
</event>
<event>
 7    1  0.2899775E-009  0.2244292E+03  0.7561462E-02  0.1130623E+00
         -2   -1    0    0    0  501 -0.00000000000E+00  0.00000000000E+00  0.41951258242E+03  0.41951258242E+03  0.00000000000E+00 0.  1.
          2   -1    0    0  501    0  0.00000000000E+00 -0.00000000000E+00 -0.13584335772E+03  0.13584335772E+03  0.00000000000E+00 0. -1.
         25    2    1    2    0    0  0.12373524500E+02  0.20839317341E+03  0.19217029262E+03  0.31009245936E+03  0.12508834140E+03 0.  0.
          5    1    3    3  502    0  0.40941522359E+02  0.60470845800E+02  0.12556588555E+03  0.14531756762E+03  0.41800000000E+01 0.  1.
         -5    1    3    3    0  502 -0.28567997859E+02  0.14792232761E+03  0.66604407068E+02  0.16477489174E+03  0.41800000000E+01 0.  1.
        -11    1    1    2    0    0  0.36116666564E+02 -0.97141551070E+02  0.60509158563E+02  0.12000938637E+03  0.00000000000E+00 0. -1.
         11    1    1    2    0    0 -0.48490191065E+02 -0.11125162234E+03  0.30989773516E+02  0.12525409440E+03  0.00000000000E+00 0.  1.
</event>
<event>
 7    1  0.2899775E-009  0.1053443E+03  0.7561462E-02  0.1269443E+00
          1   -1    0    0  501    0  0.00000000000E+00  0.00000000000E+00  0.76718549444E+03  0.76718549444E+03  0.00000000000E+00 0. -1.
         -1   -1    0    0    0  501 -0.00000000000E+00 -0.00000000000E+00 -0.20572829088E+02  0.20572829088E+02  0.00000000000E+00 0.  1.
         25    2    1    2    0    0 -0.19922862949E+02 -0.39251218642E+02  0.50381462364E+03  0.52097429033E+03  0.12508979797E+03 0.  0.
          5    1    3    3  502    0 -0.37361625153E+02 -0.73749501362E+02  0.23061178477E+03  0.24501866798E+03  0.41800000000E+01 0. -1.
         -5    1    3    3    0  502  0.17438762205E+02  0.34498282720E+02  0.27320283887E+03  0.27595562234E+03  0.41800000000E+01 0. -1.
        -11    1    1    2    0    0 -0.51398178283E+01  0.57687237022E+02  0.68370468316E+02  0.89603325722E+02  0.00000000000E+00 0.  1.
         11    1    1    2    0    0  0.25062680777E+02 -0.18436018381E+02  0.17442757340E+03  0.17718070748E+03  0.00000000000E+00 0. -1.
</event>
<event>
 7    1  0.2899775E-009  0.9738054E+02  0.7561462E-02  0.1285903E+00
          2   -1    0    0  501    0  0.00000000000E+00  0.00000000000E+00  0.33677530294E+03  0.33677530294E+03  0.00000000000E+00 0. -1.
         -2   -1    0    0    0  501 -0.00000000000E+00 -0.00000000000E+00 -0.73882288244E+02  0.73882288244E+02  0.00000000000E+00 0.  1.
         25    2    1    2    0    0  0.23349405228E+02  0.50587565473E+01  0.28615843851E+03  0.31321178874E+03  0.12507672419E+03 0.  0.
          5    1    3    3  502    0 -0.29546786445E+02 -0.31586648005E+02  0.20499309414E+03  0.20954801352E+03  0.41800000000E+01 0.  1.
         -5    1    3    3    0  502  0.52896191673E+02  0.36645404552E+02  0.81165344369E+02  0.10366377523E+03  0.41800000000E+01 0.  1.
        -11    1    1    2    0    0  0.26654331911E+02 -0.21436285752E+02  0.94509795639E+01  0.35486458983E+02  0.00000000000E+00 0.  1.
         11    1    1    2    0    0 -0.50003737139E+02  0.16377529205E+02 -0.32716403384E+02  0.61959343453E+02  0.00000000000E+00 0. -1.
</event>
<event>
 7    1  0.2899775E-009  0.1210826E+03  0.7561462E-02  0.1241322E+00
         -2   -1    0    0    0  501 -0.00000000000E+00  0.00000000000E+00  0.36362849143E+02  0.36362849143E+02  0.00000000000E+00 0.  1.
          2   -1    0    0  501    0  0.00000000000E+00 -0.00000000000E+00 -0.43991508891E+03  0.43991508891E+03  0.00000000000E+00 0. -1.
         25    2    1    2    0    0  0.57147863961E+02 -0.46994612749E+01 -0.16526576278E+03  0.21505003605E+03  0.12508310184E+03 0.  0.
          5    1    3    3  502    0  0.83124763446E+02 -0.40988866302E+02 -0.11169251676E+03  0.14519815480E+03  0.41800000000E+01 0.  1.
         -5    1    3    3    0  502 -0.25976899486E+02  0.36289405028E+02 -0.53573246021E+02  0.69851881244E+02  0.41800000000E+01 0.  1.
        -11    1    1    2    0    0 -0.16048651185E+02  0.44529348436E+02 -0.13623368296E+03  0.14422218432E+03  0.00000000000E+00 0.  1.
         11    1    1    2    0    0 -0.41099212776E+02 -0.39829887161E+02 -0.10205279403E+03  0.11700571769E+03  0.00000000000E+00 0. -1.
</event>
<event>
 7    1  0.2899775E-009  0.2349188E+03  0.7561462E-02  0.1123225E+00
         -1   -1    0    0    0  501 -0.00000000000E+00  0.00000000000E+00  0.19502113431E+03  0.19502113431E+03  0.00000000000E+00 0.  1.
          1   -1    0    0  501    0  0.00000000000E+00 -0.00000000000E+00 -0.32345549761E+03  0.32345549761E+03  0.00000000000E+00 0. -1.
         25    2    1    2    0    0 -0.12228592767E+03 -0.18975166039E+03 -0.80127597532E+02  0.27023765069E+03  0.12509362589E+03 0.  0.
          5    1    3    3  502    0 -0.81299343445E+02 -0.52668786134E+02  0.15363855007E+02  0.98168756323E+02  0.41800000000E+01 0.  1.
         -5    1    3    3    0  502 -0.40986584226E+02 -0.13708287426E+03 -0.95491452539E+02  0.17206889437E+03  0.41800000000E+01 0.  1.
        -11    1    1    2    0    0  0.38204734005E+02  0.98530938355E+02 -0.63441991125E+02  0.12325921366E+03  0.00000000000E+00 0.  1.
         11    1    1    2    0    0  0.84081193666E+02  0.91220722035E+02  0.15135225361E+02  0.12497976758E+03  0.00000000000E+00 0. -1.
</event>
<event>
 7    1  0.2899775E-009  0.2461139E+03  0.7561462E-02  0.1115786E+00
         -1   -1    0    0    0  501 -0.00000000000E+00  0.00000000000E+00  0.42322717493E+03  0.42322717493E+03  0.00000000000E+00 0.  1.
          1   -1    0    0  501    0  0.00000000000E+00 -0.00000000000E+00 -0.18230795820E+03  0.18230795820E+03  0.00000000000E+00 0. -1.
         25    2    1    2    0    0 -0.86359820447E+02  0.21349757839E+03  0.24577201363E+03  0.35929243133E+03  0.12509170221E+03 0.  0.
          5    1    3    3  502    0 -0.69554580543E+02  0.21760328794E+03  0.25225469589E+03  0.34035119303E+03  0.41800000000E+01 0. -1.
         -5    1    3    3    0  502 -0.16805239904E+02 -0.41057095474E+01 -0.64826822641E+01  0.18941238303E+02  0.41800000000E+01 0. -1.
        -11    1    1    2    0    0  0.68185201154E+02 -0.58376664058E+02 -0.71328442683E+01  0.90044067158E+02  0.00000000000E+00 0. -1.
         11    1    1    2    0    0  0.18174619293E+02 -0.15512091433E+03  0.22800473743E+01  0.15619863465E+03  0.00000000000E+00 0.  1.
</event>
<event>
 7    1  0.2899775E-009  0.9043865E+02  0.7561462E-02  0.1301793E+00
         -2   -1    0    0    0  501 -0.00000000000E+00  0.00000000000E+00  0.18841619465E+02  0.18841619465E+02  0.00000000000E+00 0.  1.
          2   -1    0    0  501    0  0.00000000000E+00 -0.00000000000E+00 -0.67588194285E+03  0.67588194285E+03  0.00000000000E+00 0. -1.
         25    2    1    2    0    0 -0.53876782206E+01 -0.28765127087E+01 -0.29361561317E+03  0.31921257798E+03  0.12509692339E+03 0.  0.
          5    1    3    3  502    0  0.30479453930E+02  0.31892029514E+02 -0.36946054198E+02  0.57693864312E+02  0.41800000000E+01 0. -1.
         -5    1    3    3    0  502 -0.35867132150E+02 -0.34768542223E+02 -0.25666955897E+03  0.26151871367E+03  0.41800000000E+01 0. -1.
        -11    1    1    2    0    0  0.37177881261E+02 -0.24466250416E+02 -0.26211375692E+03  0.26586540548E+03  0.00000000000E+00 0. -1.
         11    1    1    2    0    0 -0.31790203041E+02  0.27342763125E+02 -0.10131095331E+03  0.10964557886E+03  0.00000000000E+00 0.  1.
</event>
<event>
 7    1  0.2899775E-009  0.1456851E+03  0.7561462E-02  0.1205878E+00
          2   -1    0    0  501    0  0.00000000000E+00  0.00000000000E+00  0.67592183099E+02  0.67592183099E+02  0.00000000000E+00 0. -1.
         -2   -1    0    0    0  501 -0.00000000000E+00 -0.00000000000E+00 -0.66698240473E+03  0.66698240473E+03  0.00000000000E+00 0.  1.
         25    2    1    2    0    0 -0.11066096917E+03  0.54692983962E+01 -0.56245851994E+03  0.58675619663E+03  0.12508990488E+03 0.  0.
          5    1    3    3  502    0 -0.95117451972E+02  0.45184369891E+02 -0.50015978352E+03  0.51114209219E+03  0.41800000000E+01 0.  1.
         -5    1    3    3    0  502 -0.15543517202E+02 -0.39715071495E+02 -0.62298736416E+02  0.75614104438E+02  0.41800000000E+01 0.  1.
        -11    1    1    2    0    0  0.40408506776E+02 -0.46634272031E+02 -0.15840658918E+02  0.63706586965E+02  0.00000000000E+00 0.  1.
         11    1    1    2    0    0  0.70252462399E+02  0.41164973635E+02 -0.21091042776E+02  0.84111804242E+02  0.00000000000E+00 0. -1.
</event>
<event>
 7    1  0.2899775E-009  0.1007604E+03  0.7561462E-02  0.1278705E+00
         -2   -1    0    0    0  501 -0.00000000000E+00  0.00000000000E+00  0.12955649366E+03  0.12955649366E+03  0.00000000000E+00 0.  1.
          2   -1    0    0  501    0  0.00000000000E+00 -0.00000000000E+00 -0.14213825741E+03  0.14213825741E+03  0.00000000000E+00 0. -1.
         25    2    1    2    0    0 -0.81403918165E+02 -0.21694984612E+02 -0.37291684380E+02  0.15535312246E+03  0.12508658076E+03 0.  0.
          5    1    3    3  502    0 -0.32937166563E+02 -0.39558954199E+02  0.37880929458E+02  0.64048458336E+02  0.41800000000E+01 0. -1.
         -5    1    3    3    0  502 -0.48466751602E+02  0.17863969588E+02 -0.75172613838E+02  0.91304664128E+02  0.41800000000E+01 0. -1.
        -11    1    1    2    0    0  0.22682358443E+02  0.31192632550E+02  0.39332089477E+02  0.55086141384E+02  0.00000000000E+00 0.  1.
         11    1    1    2    0    0  0.58721559722E+02 -0.94976479384E+01 -0.14622168844E+02  0.61255487218E+02  0.00000000000E+00 0. -1.
</event>
<event>
 7    1  0.2899775E-009  0.2534826E+03  0.7561462E-02  0.1111123E+00
         -1   -1    0    0    0  501 -0.00000000000E+00  0.00000000000E+00  0.62116749620E+02  0.62116749620E+02  0.00000000000E+00 0.  1.
          1   -1    0    0  501    0  0.00000000000E+00 -0.00000000000E+00 -0.19982852590E+04  0.19982852590E+04  0.00000000000E+00 0. -1.
         25    2    1    2    0    0  0.20199622639E+03  0.12156165450E+03 -0.16780155905E+04  0.16991069625E+04  0.12509371306E+03 0.  0.
          5    1    3    3  502    0  0.19146845805E+03  0.64754814450E+02 -0.11206361098E+04  0.11387256559E+04  0.41800000000E+01 0. -1.
         -5    1    3    3    0  502  0.10527768341E+02  0.56806840046E+02 -0.55737948067E+03  0.56038130666E+03  0.41800000000E+01 0. -1.
        -11    1    1    2    0    0 -0.13832248298E+03 -0.12009723826E+03 -0.15450299142E+03  0.23964062739E+03  0.00000000000E+00 0.  1.
         11    1    1    2    0    0 -0.63673743403E+02 -0.14644162335E+01 -0.10364992749E+03  0.12165441867E+03  0.00000000000E+00 0. -1.
</event>
<event>
 7    1  0.2899775E-009  0.1393035E+03  0.7561462E-02  0.1214269E+00
          2   -1    0    0  501    0  0.00000000000E+00  0.00000000000E+00  0.12679849395E+04  0.12679849395E+04  0.00000000000E+00 0.  1.
         -2   -1    0    0    0  501 -0.00000000000E+00 -0.00000000000E+00 -0.20503144063E+02  0.20503144063E+02  0.00000000000E+00 0. -1.
         25    2    1    2    0    0 -0.10418026987E+03  0.36837278478E+02  0.85067970349E+03  0.86689943901E+03  0.12509262849E+03 0.  0.
          5    1    3    3  502    0 -0.17102424824E+02  0.70164197290E+02  0.42453349845E+03  0.43065261084E+03  0.41800000000E+01 0.  1.
         -5    1    3    3    0  502 -0.87077845050E+02 -0.33326918812E+02  0.42614620504E+03  0.43624682816E+03  0.41800000000E+01 0.  1.
        -11    1    1    2    0    0  0.86497418331E+02 -0.39436905353E+02  0.39160081303E+03  0.40297427914E+03  0.00000000000E+00 0.  1.
         11    1    1    2    0    0  0.17682851544E+02  0.25996268750E+01  0.52012789570E+01  0.18614365458E+02  0.00000000000E+00 0. -1.
</event>
<event>
 7    1  0.2899775E-009  0.1220324E+03  0.7561462E-02  0.1239781E+00
         -2   -1    0    0    0  501 -0.00000000000E+00  0.00000000000E+00  0.15399464012E+02  0.15399464012E+02  0.00000000000E+00 0. -1.
          2   -1    0    0  501    0  0.00000000000E+00 -0.00000000000E+00 -0.12720521237E+04  0.12720521237E+04  0.00000000000E+00 0.  1.
         25    2    1    2    0    0  0.18632597772E+02  0.62511750158E+02 -0.97700533889E+03  0.98713713387E+03  0.12508155830E+03 0.  0.
          5    1    3    3  502    0 -0.47199467113E+02  0.53957605001E+01 -0.21938552471E+03  0.22450920867E+03  0.41800000000E+01 0. -1.
         -5    1    3    3    0  502  0.65832064885E+02  0.57115989658E+02 -0.75761981418E+03  0.76262792519E+03  0.41800000000E+01 0. -1.
        -11    1    1    2    0    0 -0.16647788422E+02 -0.84963550307E+02 -0.21143527567E+03  0.22847500856E+03  0.00000000000E+00 0.  1.
         11    1    1    2    0    0 -0.19848093500E+01  0.22451800148E+02 -0.68212045088E+02  0.71839445246E+02  0.00000000000E+00 0. -1.
</event>
<event>
 6    1  0.2899775E-009  0.1221164E+03  0.7561462E-02  0.1239646E+00
         -1   -1    0    0    0  501 -0.00000000000E+00  0.00000000000E+00  0.49856910942E+03  0.49856910942E+03  0.00000000000E+00 0.  1.
          1   -1    0    0  501    0  0.00000000000E+00 -0.00000000000E+00 -0.39438867914E+02  0.39438867914E+02  0.00000000000E+00 0. -1.
          5    1    1    2  502    0 -0.23786986445E+01  0.11173901679E+03  0.24289780982E+03  0.26740995586E+03  0.41800000000E+01 0. -1.
         -5    1    1    2    0  502 -0.50933114388E+01 -0.34209236726E+02  0.95544750142E+02  0.10169801069E+03  0.41800000000E+01 0. -1.
        -11    1    1    2    0    0  0.32460648832E+02 -0.31805939139E+02  0.10511127828E+03  0.11451503093E+03  0.00000000000E+00 0.  1.
         11    1    1    2    0    0 -0.24988638749E+02 -0.45723840921E+02  0.15576403270E+02  0.54384979856E+02  0.00000000000E+00 0. -1.
</event>
<event>
 7    1  0.2899775E-009  0.1065535E+03  0.7561462E-02  0.1267089E+00
          2   -1    0    0  501    0  0.00000000000E+00  0.00000000000E+00  0.72580962876E+03  0.72580962876E+03  0.00000000000E+00 0. -1.
         -2   -1    0    0    0  501 -0.00000000000E+00 -0.00000000000E+00 -0.33057287619E+02  0.33057287619E+02  0.00000000000E+00 0.  1.
         25    2    1    2    0    0 -0.37813175735E+02  0.77711531702E+02  0.53886419145E+03  0.55990282200E+03  0.12509050659E+03 0.  0.
          5    1    3    3  502    0 -0.28757090048E+02  0.66209676603E+02  0.53982722876E+03  0.54464814405E+03  0.41800000000E+01 0.  1.
         -5    1    3    3    0  502 -0.90560856865E+01  0.11501855099E+02 -0.96303730740E+00  0.15254677956E+02  0.41800000000E+01 0.  1.
        -11    1    1    2    0    0  0.55534084058E+02 -0.11079528311E+02  0.78602601083E+02  0.96877032040E+02  0.00000000000E+00 0. -1.
         11    1    1    2    0    0 -0.17720908323E+02 -0.66632003391E+02  0.75285548605E+02  0.10208706234E+03  0.00000000000E+00 0.  1.
</event>
<event>
 7    1  0.2899775E-009  0.9709997E+02  0.7561462E-02  0.1286515E+00
          2   -1    0    0  501    0  0.00000000000E+00  0.00000000000E+00  0.71282395499E+02  0.71282395499E+02  0.00000000000E+00 0. -1.
         -2   -1    0    0    0  501 -0.00000000000E+00 -0.00000000000E+00 -0.16943115973E+03  0.16943115973E+03  0.00000000000E+00 0.  1.
         25    2    1    2    0    0  0.33402620693E+01  0.18664430176E+02 -0.40772241172E+02  0.13292108384E+03  0.12508445377E+03 0.  0.
          5    1    3    3  502    0 -0.30322654844E+02  0.57496511976E+02  0.31145401296E+01  0.65211080703E+02  0.41800000000E+01 0.  1.
         -5    1    3    3    0  502  0.33662916914E+02 -0.38832081799E+02 -0.43886781301E+02  0.67710003139E+02  0.41800000000E+01 0.  1.
        -11    1    1    2    0    0  0.34668207528E+02 -0.18914722607E+02 -0.63596417058E+00  0.39497541631E+02  0.00000000000E+00 0. -1.
         11    1    1    2    0    0 -0.38008469597E+02  0.25029243084E+00 -0.56740558888E+02  0.68294929756E+02  0.00000000000E+00 0.  1.
</event>
<event>
 7    1  0.2899775E-009  0.1268816E+03  0.7561462E-02  0.1232158E+00
          1   -1    0    0  501    0  0.00000000000E+00  0.00000000000E+00  0.89643907868E+03  0.89643907868E+03  0.00000000000E+00 0. -1.
         -1   -1    0    0    0  501 -0.00000000000E+00 -0.00000000000E+00 -0.22414741853E+02  0.22414741853E+02  0.00000000000E+00 0.  1.
         25    2    1    2    0    0 -0.58551517516E+02 -0.47763144398E+02  0.31463959219E+03  0.34690334330E+03  0.12503702835E+03 0.  0.
          5    1    3    3  502    0 -0.34933698916E+02  0.40485736724E+02  0.97233958838E+02  0.11104671697E+03  0.41800000000E+01 0. -1.
         -5    1    3    3    0  502 -0.23617818600E+02 -0.88248881122E+02  0.21740563335E+03  0.23585662634E+03  0.41800000000E+01 0. -1.
        -11    1    1    2    0    0 -0.12118977027E+02 -0.11303215626E+02  0.27172364714E+02  0.31827184792E+02  0.00000000000E+00 0.  1.
         11    1    1    2    0    0  0.70670494542E+02  0.59066360025E+02  0.53221237993E+03  0.54012329244E+03  0.00000000000E+00 0. -1.
</event>
<event>
 7    1  0.2899775E-009  0.8611556E+02  0.7561462E-02  0.1312541E+00
          2   -1    0    0  501    0  0.00000000000E+00  0.00000000000E+00  0.77962475421E+03  0.77962475421E+03  0.00000000000E+00 0.  1.
         -2   -1    0    0    0  501 -0.00000000000E+00 -0.00000000000E+00 -0.20544509943E+02  0.20544509943E+02  0.00000000000E+00 0. -1.
         25    2    1    2    0    0  0.35376592215E+02  0.36614584602E+02  0.54937100162E+03  0.56572838141E+03  0.12509185836E+03 0.  0.
          5    1    3    3  502    0 -0.18294398764E+01  0.57704368434E+02  0.48431317231E+03  0.48776004578E+03  0.41800000000E+01 0. -1.
         -5    1    3    3    0  502  0.37206032091E+02 -0.21089783831E+02  0.65057829309E+02  0.77968335627E+02  0.41800000000E+01 0. -1.
        -11    1    1    2    0    0  0.12199271602E+02 -0.14387583820E+02  0.63614470701E+00  0.18874042383E+02  0.00000000000E+00 0. -1.
         11    1    1    2    0    0 -0.47575863816E+02 -0.22227000783E+02  0.20907309794E+03  0.21556684036E+03  0.00000000000E+00 0.  1.
</event>
<event>
 7    1  0.2899775E-009  0.8116140E+02  0.7561462E-02  0.1325787E+00
         -1   -1    0    0    0  501 -0.00000000000E+00  0.00000000000E+00  0.12870019532E+03  0.12870019532E+03  0.00000000000E+00 0.  1.
          1   -1    0    0  501    0  0.00000000000E+00 -0.00000000000E+00 -0.10394444182E+03  0.10394444182E+03  0.00000000000E+00 0. -1.
         25    2    1    2    0    0 -0.35796399863E+02 -0.15648975210E+02  0.21340956261E+02  0.13278437492E+03  0.12509988466E+03 0.  0.
          5    1    3    3  502    0  0.24651173886E+02 -0.41020066507E+02  0.42117239465E+02  0.63887874361E+02  0.41800000000E+01 0.  1.
         -5    1    3    3    0  502 -0.60447573750E+02  0.25371091297E+02 -0.20776283204E+02  0.68896500561E+02  0.41800000000E+01 0.  1.
        -11    1    1    2    0    0  0.89740041582E+01 -0.86042429084E+01 -0.40851344887E+02  0.42701266090E+02  0.00000000000E+00 0. -1.
         11    1    1    2    0    0  0.26822395705E+02  0.24253218118E+02  0.44266142119E+02  0.57158996130E+02  0.00000000000E+00 0.  1.
</event>
<event>
 7    1  0.2899775E-009  0.1482437E+03  0.7561462E-02  0.1202648E+00
         -1   -1    0    0    0  501 -0.00000000000E+00  0.00000000000E+00  0.22232882811E+02  0.22232882811E+02  0.00000000000E+00 0. -1.
          1   -1    0    0  501    0  0.00000000000E+00 -0.00000000000E+00 -0.12042046570E+04  0.12042046570E+04  0.00000000000E+00 0.  1.
         25    2    1    2    0    0 -0.89536989019E+02 -0.57698260407E+02 -0.40616062600E+03  0.43813330793E+03  0.12509348402E+03 0.  0.
          5    1    3    3  502    0  0.29388759264E+02 -0.12491597396E+02 -0.46122356991E+02  0.56253741129E+02  0.41800000000E+01 0. -1.
         -5    1    3    3    0  502 -0.11892574828E+03 -0.45206663011E+02 -0.36003826901E+03  0.38187956680E+03  0.41800000000E+01 0. -1.
        -11    1    1    2    0    0 -0.15178162308E+02 -0.36654565702E+01 -0.48964555053E+02  0.51393966907E+02  0.00000000000E+00 0. -1.
         11    1    1    2    0    0  0.10471515133E+03  0.61363716977E+02 -0.72684659315E+03  0.73691026500E+03  0.00000000000E+00 0.  1.
</event>
<event>
 7    1  0.2899775E-009  0.7154553E+02  0.7561462E-02  0.1354915E+00
          1   -1    0    0  501    0  0.00000000000E+00  0.00000000000E+00  0.21872421950E+03  0.21872421950E+03  0.00000000000E+00 0. -1.
         -1   -1    0    0    0  501 -0.00000000000E+00 -0.00000000000E+00 -0.60390745026E+02  0.60390745026E+02  0.00000000000E+00 0.  1.
         25    2    1    2    0    0 -0.19615353587E+02 -0.23337471584E+02  0.60729930982E+02  0.14236861272E+03  0.12510514656E+03 0.  0.
          5    1    3    3  502    0 -0.18955769042E+02  0.11570352164E+02  0.92352749568E+02  0.95077321070E+02  0.41800000000E+01 0. -1.
         -5    1    3    3    0  502 -0.65958454576E+00 -0.34907823748E+02 -0.31622818586E+02  0.47291291650E+02  0.41800000000E+01 0. -1.
        -11    1    1    2    0    0 -0.18711637026E+01  0.50590618523E+02  0.25409698679E+02  0.56644194081E+02  0.00000000000E+00 0.  1.
         11    1    1    2    0    0  0.21486517290E+02 -0.27253146938E+02  0.72193844813E+02  0.80102157725E+02  0.00000000000E+00 0. -1.
</event>
<event>
 7    1  0.2899775E-009  0.1189986E+03  0.7561462E-02  0.1244758E+00
         -2   -1    0    0    0  501 -0.00000000000E+00  0.00000000000E+00  0.23065197925E+03  0.23065197925E+03  0.00000000000E+00 0.  1.
          2   -1    0    0  501    0  0.00000000000E+00 -0.00000000000E+00 -0.90952180464E+02  0.90952180464E+02  0.00000000000E+00 0. -1.
         25    2    1    2    0    0  0.63146624322E+02 -0.53603905169E+02  0.23454157095E+02  0.15185046285E+03  0.12509033044E+03 0.  0.
          5    1    3    3  502    0  0.77515325129E+02 -0.12459204250E+01 -0.22244043360E+02  0.80761672918E+02  0.41800000000E+01 0.  1.
         -5    1    3    3    0  502 -0.14368700807E+02 -0.52357984744E+02  0.45698200455E+02  0.71088789932E+02  0.41800000000E+01 0.  1.
        -11    1    1    2    0    0 -0.58734972495E+02  0.70662321194E+01  0.10675952455E+03  0.12205459726E+03  0.00000000000E+00 0.  1.
         11    1    1    2    0    0 -0.44116518277E+01  0.46537673049E+02  0.94861171442E+01  0.47699099605E+02  0.00000000000E+00 0. -1.
</event>
<event>
 7    1  0.3008665E-009  0.1062291E+03  0.7561462E-02  0.1267717E+00
          4   -1    0    0  501    0  0.00000000000E+00  0.00000000000E+00  0.12279276236E+03  0.12279276236E+03  0.00000000000E+00 0. -1.
         -4   -1    0    0    0  501 -0.00000000000E+00 -0.00000000000E+00 -0.15878198672E+03  0.15878198672E+03  0.00000000000E+00 0.  1.
         25    2    1    2    0    0  0.52110764495E+02 -0.70042936815E+02 -0.10592991995E+02  0.15292264056E+03  0.12510626580E+03 0.  0.
          5    1    3    3  502    0 -0.13212017188E+02 -0.10647610924E+02 -0.52334009730E+02  0.55174722391E+02  0.41800000000E+01 0. -1.
         -5    1    3    3    0  502  0.65322781683E+02 -0.59395325891E+02  0.41741017735E+02  0.97747918167E+02  0.41800000000E+01 0. -1.
        -11    1    1    2    0    0 -0.88941596314E+01  0.62001910474E+02 -0.48289252536E+02  0.79089790040E+02  0.00000000000E+00 0.  1.
         11    1    1    2    0    0 -0.43216604864E+02  0.80410263411E+01  0.22893020168E+02  0.49562318479E+02  0.00000000000E+00 0. -1.
</event>
<event>
 7    1  0.2899775E-009  0.1014415E+03  0.7561462E-02  0.1277293E+00
          2   -1    0    0  501    0  0.00000000000E+00  0.00000000000E+00  0.16872556828E+04  0.16872556828E+04  0.00000000000E+00 0. -1.
         -2   -1    0    0    0  501 -0.00000000000E+00 -0.00000000000E+00 -0.19327319001E+02  0.19327319001E+02  0.00000000000E+00 0.  1.
         25    2    1    2    0    0  0.66522741885E+02  0.14120867248E+02  0.14876190273E+04  0.14944169255E+04  0.12508757964E+03 0.  0.
          5    1    3    3  502    0  0.77793701533E+02  0.15806516703E+02  0.14741238743E+04  0.14762656858E+04  0.41800000000E+01 0. -1.
         -5    1    3    3    0  502 -0.11270959648E+02 -0.16856494547E+01  0.13495153047E+02  0.18151239661E+02  0.41800000000E+01 0. -1.
        -11    1    1    2    0    0 -0.42467441375E+01 -0.42572379922E+02  0.79923423070E+02  0.90654265885E+02  0.00000000000E+00 0. -1.
         11    1    1    2    0    0 -0.62275997748E+02  0.28451512674E+02  0.10038591341E+03  0.12151181045E+03  0.00000000000E+00 0.  1.
</event>
<event>
 7    1  0.2899775E-009  0.1189882E+03  0.7561462E-02  0.1244776E+00
          2   -1    0    0  501    0  0.00000000000E+00  0.00000000000E+00  0.20233994240E+03  0.20233994240E+03  0.00000000000E+00 0. -1.
         -2   -1    0    0    0  501 -0.00000000000E+00 -0.00000000000E+00 -0.12658098417E+03  0.12658098417E+03  0.00000000000E+00 0.  1.
         25    2    1    2    0    0  0.21525996522E+02 -0.10284629604E+03  0.29263896361E+02  0.16596205450E+03  0.12508516606E+03 0.  0.
          5    1    3    3  502    0  0.14520686333E+02 -0.10082759729E+03  0.70450668423E+02  0.12392668715E+03  0.41800000000E+01 0.  1.
         -5    1    3    3    0  502  0.70053101887E+01 -0.20186987511E+01 -0.41186772062E+02  0.42035367351E+02  0.41800000000E+01 0.  1.
        -11    1    1    2    0    0  0.15468843855E+00  0.10574540210E+03 -0.61767446896E+01  0.10592575781E+03  0.00000000000E+00 0.  1.
         11    1    1    2    0    0 -0.21680684960E+02 -0.28991060571E+01  0.52671806560E+02  0.57033114263E+02  0.00000000000E+00 0. -1.
</event>
<event>
 7    1  0.2899775E-009  0.9006158E+02  0.7561462E-02  0.1302703E+00
         -1   -1    0    0    0  501 -0.00000000000E+00  0.00000000000E+00  0.34247045319E+03  0.34247045319E+03  0.00000000000E+00 0.  1.
          1   -1    0    0  501    0  0.00000000000E+00 -0.00000000000E+00 -0.40321049582E+02  0.40321049582E+02  0.00000000000E+00 0. -1.
         25    2    1    2    0    0  0.23605510361E+02  0.32617390376E+02  0.14212125594E+03  0.19356354073E+03  0.12508908280E+03 0.  0.
          5    1    3    3  502    0  0.43981860542E+02 -0.60149661657E+01 -0.24620527393E+00  0.44588304428E+02  0.41800000000E+01 0.  1.
         -5    1    3    3    0  502 -0.20376350181E+02  0.38632356541E+02  0.14236746122E+03  0.14897523630E+03  0.41800000000E+01 0.  1.
        -11    1    1    2    0    0  0.29546869640E+02 -0.23451121326E+02  0.29154731361E+02  0.47675685183E+02  0.00000000000E+00 0.  1.
         11    1    1    2    0    0 -0.53152380001E+02 -0.91662690496E+01  0.13087341630E+03  0.14155227685E+03  0.00000000000E+00 0. -1.
</event>
<event>
 7    1  0.2899775E-009  0.1234213E+03  0.7561462E-02  0.1237557E+00
          1   -1    0    0  501    0  0.00000000000E+00  0.00000000000E+00  0.89411390170E+03  0.89411390170E+03  0.00000000000E+00 0. -1.
         -1   -1    0    0    0  501 -0.00000000000E+00 -0.00000000000E+00 -0.22700521441E+02  0.22700521441E+02  0.00000000000E+00 0.  1.
         25    2    1    2    0    0  0.86202578124E+02  0.25285832984E+02  0.52657481983E+03  0.54863326666E+03  0.12508861894E+03 0.  0.
          5    1    3    3  502    0  0.10214461055E+03  0.30655037718E+02  0.25405102122E+03  0.27555878970E+03  0.41800000000E+01 0.  1.
         -5    1    3    3    0  502 -0.15942032424E+02 -0.53692047341E+01  0.27252379861E+03  0.27307447696E+03  0.41800000000E+01 0.  1.
        -11    1    1    2    0    0 -0.10194939158E+03 -0.30127091395E+02  0.24612401981E+03  0.26810138606E+03  0.00000000000E+00 0.  1.
         11    1    1    2    0    0  0.15746813458E+02  0.48412584114E+01  0.98714540624E+02  0.10007977042E+03  0.00000000000E+00 0. -1.
</event>
<event>
 7    1  0.2899775E-009  0.1171037E+03  0.7561462E-02  0.1247953E+00
         -1   -1    0    0    0  501 -0.00000000000E+00  0.00000000000E+00  0.41317018907E+02  0.41317018907E+02  0.00000000000E+00 0.  1.
          1   -1    0    0  501    0  0.00000000000E+00 -0.00000000000E+00 -0.36281449634E+03  0.36281449634E+03  0.00000000000E+00 0. -1.
         25    2    1    2    0    0 -0.52399235726E+02 -0.35404750518E+01 -0.23099091836E+03  0.26788574340E+03  0.12509097602E+03 0.  0.
          5    1    3    3  502    0  0.72087822989E+01 -0.55539609468E+02 -0.87206548206E+02  0.10372593317E+03  0.41800000000E+01 0. -1.
         -5    1    3    3    0  502 -0.59608018025E+02  0.51999134416E+02 -0.14378437016E+03  0.16415981023E+03  0.41800000000E+01 0. -1.
        -11    1    1    2    0    0  0.43633078879E+01  0.38927442865E+02 -0.52509702932E+02  0.65510710313E+02  0.00000000000E+00 0. -1.
         11    1    1    2    0    0  0.48035927838E+02 -0.35386967813E+02 -0.37996856141E+02  0.70735061538E+02  0.00000000000E+00 0.  1.
</event>
<event>
 7    1  0.2899775E-009  0.9815175E+02  0.7561462E-02  0.1284231E+00
          2   -1    0    0  501    0  0.00000000000E+00  0.00000000000E+00  0.98457838166E+02  0.98457838166E+02  0.00000000000E+00 0.  1.
         -2   -1    0    0    0  501 -0.00000000000E+00 -0.00000000000E+00 -0.17486579213E+03  0.17486579213E+03  0.00000000000E+00 0. -1.
         25    2    1    2    0    0  0.36819070105E+01  0.32654833028E+02  0.25744817356E+02  0.13186565630E+03  0.12508341669E+03 0.  0.
          5    1    3    3  502    0  0.45654607401E+02 -0.63012543755E+01  0.51238703792E+02  0.69042929761E+02  0.41800000000E+01 0. -1.
         -5    1    3    3    0  502 -0.41972700391E+02  0.38956087404E+02 -0.25493886436E+02  0.62822726537E+02  0.41800000000E+01 0. -1.
        -11    1    1    2    0    0  0.23504706164E+02 -0.53444595762E+02 -0.40877050756E+02  0.71272219739E+02  0.00000000000E+00 0.  1.
         11    1    1    2    0    0 -0.27186613174E+02  0.20789762734E+02 -0.61275720559E+02  0.70185754256E+02  0.00000000000E+00 0. -1.
</event>
<event>
 7    1  0.2899775E-009  0.8057460E+02  0.7561462E-02  0.1327429E+00
          2   -1    0    0  501    0  0.00000000000E+00  0.00000000000E+00  0.17212060456E+03  0.17212060456E+03  0.00000000000E+00 0. -1.
         -2   -1    0    0    0  501 -0.00000000000E+00 -0.00000000000E+00 -0.78133164479E+02  0.78133164479E+02  0.00000000000E+00 0.  1.
         25    2    1    2    0    0  0.23425987057E+02  0.18989357107E+02  0.22925331026E+02  0.13069943753E+03  0.12508956637E+03 0.  0.
          5    1    3    3  502    0 -0.37673261368E+02 -0.19188450211E+02 -0.19758067746E+02  0.46854294197E+02  0.41800000000E+01 0. -1.
         -5    1    3    3    0  502  0.61099248425E+02  0.38177807318E+02  0.42683398772E+02  0.83845143333E+02  0.41800000000E+01 0. -1.
        -11    1    1    2    0    0 -0.26861976007E+02  0.34065720652E+00  0.88996711801E+02  0.92962877073E+02  0.00000000000E+00 0. -1.
         11    1    1    2    0    0  0.34359889495E+01 -0.19330014314E+02 -0.17934602746E+02  0.26591454437E+02  0.00000000000E+00 0.  1.
</event>
<event>
 7    1  0.2899775E-009  0.8188023E+02  0.7561462E-02  0.1323799E+00
         -1   -1    0    0    0  501 -0.00000000000E+00  0.00000000000E+00  0.56183063655E+02  0.56183063655E+02  0.00000000000E+00 0.  1.
          1   -1    0    0  501    0  0.00000000000E+00 -0.00000000000E+00 -0.23753134128E+03  0.23753134128E+03  0.00000000000E+00 0. -1.
         25    2    1    2    0    0  0.10609569549E+02 -0.24753694123E+02 -0.14553165379E+03  0.19377854504E+03  0.12508138921E+03 0.  0.
          5    1    3    3  502    0 -0.34571698627E+02  0.37505947153E+01  0.36984537174E+01  0.35219600603E+02  0.41800000000E+01 0. -1.
         -5    1    3    3    0  502  0.45181268176E+02 -0.28504288838E+02 -0.14923010751E+03  0.15855894444E+03  0.41800000000E+01 0. -1.
        -11    1    1    2    0    0  0.94633807714E+01  0.45387862758E+02  0.84544653818E+01  0.47128458985E+02  0.00000000000E+00 0.  1.
         11    1    1    2    0    0 -0.20072950320E+02 -0.20634168635E+02 -0.44271089220E+02  0.52807400907E+02  0.00000000000E+00 0. -1.
</event>
<event>
 7    1  0.2899775E-009  0.1200831E+03  0.7561462E-02  0.1242960E+00
         -1   -1    0    0    0  501 -0.00000000000E+00  0.00000000000E+00  0.62415502270E+02  0.62415502270E+02  0.00000000000E+00 0.  1.
          1   -1    0    0  501    0  0.00000000000E+00 -0.00000000000E+00 -0.25429943319E+03  0.25429943319E+03  0.00000000000E+00 0. -1.
         25    2    1    2    0    0  0.56325774523E+02 -0.18969902837E+02 -0.14152396929E+03  0.19801287329E+03  0.12509042335E+03 0.  0.
          5    1    3    3  502    0 -0.70109902132E+01 -0.58486484825E+02 -0.37676984136E+02  0.70048914513E+02  0.41800000000E+01 0. -1.
         -5    1    3    3    0  502  0.63336764737E+02  0.39516581988E+02 -0.10384698516E+03  0.12796395878E+03  0.41800000000E+01 0. -1.
        -11    1    1    2    0    0 -0.36603756714E+02 -0.33914768448E+02 -0.32295087849E+02  0.59439206116E+02  0.00000000000E+00 0. -1.
         11    1    1    2    0    0 -0.19722017809E+02  0.52884671286E+02 -0.18064873781E+02  0.59262856058E+02  0.00000000000E+00 0.  1.
</event>
<event>
 6    1  0.2899775E-009  0.1283184E+03  0.7561462E-02  0.1229973E+00
          2   -1    0    0  501    0  0.00000000000E+00  0.00000000000E+00  0.29992536391E+03  0.29992536391E+03  0.00000000000E+00 0. -1.
         -2   -1    0    0    0  501 -0.00000000000E+00 -0.00000000000E+00 -0.57237410452E+02  0.57237410452E+02  0.00000000000E+00 0.  1.
          5    1    1    2  502    0  0.82557693419E+02  0.54874633488E+02  0.97257715471E+02  0.13893715760E+03  0.41800000000E+01 0. -1.
         -5    1    1    2    0  502 -0.45364896507E+02  0.72532458829E+01  0.33293353729E+02  0.56890273452E+02  0.41800000000E+01 0. -1.
        -11    1    1    2    0    0 -0.55417691238E+02 -0.71764174735E+02  0.70428838377E+02  0.11481044618E+03  0.00000000000E+00 0.  1.
         11    1    1    2    0    0  0.18224894325E+02  0.96362953640E+01  0.41708045882E+02  0.46524897128E+02  0.00000000000E+00 0. -1.
</event>
<event>
 7    1  0.2899775E-009  0.2215547E+03  0.7561462E-02  0.1132729E+00
          1   -1    0    0  501    0  0.00000000000E+00  0.00000000000E+00  0.98323244734E+02  0.98323244734E+02  0.00000000000E+00 0. -1.
         -1   -1    0    0    0  501 -0.00000000000E+00 -0.00000000000E+00 -0.59405730731E+03  0.59405730731E+03  0.00000000000E+00 0.  1.
         25    2    1    2    0    0 -0.60594110762E+02  0.20186416347E+03 -0.19025378994E+03  0.31026519454E+03  0.12508876690E+03 0.  0.
          5    1    3    3  502    0 -0.13109137011E+02 -0.88153101299E+01 -0.50290048282E+02  0.52878355894E+02  0.41800000000E+01 0.  1.
         -5    1    3    3    0  502 -0.47484973751E+02  0.21067947360E+03 -0.13996374166E+03  0.25738683865E+03  0.41800000000E+01 0.  1.
        -11    1    1    2    0    0  0.14640434042E+02 -0.49751374562E+02 -0.15431353694E+03  0.16279499152E+03  0.00000000000E+00 0.  1.
         11    1    1    2    0    0  0.45953676720E+02 -0.15211278891E+03 -0.15116673569E+03  0.21932036598E+03  0.00000000000E+00 0. -1.
</event>
<event>
 7    1  0.2927393E-009  0.8563289E+02  0.7561462E-02  0.1313786E+00
         -2   -1    0    0    0  501 -0.00000000000E+00  0.00000000000E+00  0.50293768556E+02  0.50293768556E+02  0.00000000000E+00 0. -1.
          2   -1    0    0  501    0  0.00000000000E+00 -0.00000000000E+00 -0.35841969546E+03  0.35841969546E+03  0.00000000000E+00 0.  1.
         25    2    1    2    0    0 -0.40543710386E+02 -0.64878970529E+02 -0.14507880415E+03  0.20627175601E+03  0.12508838732E+03 0.  0.
          5    1    3    3  502    0 -0.25313266952E+02 -0.53569451323E+02  0.50425774654E+00  0.59398436635E+02  0.41800000000E+01 0. -1.
         -5    1    3    3    0  502 -0.15230443434E+02 -0.11309519206E+02 -0.14558306190E+03  0.14687331937E+03  0.41800000000E+01 0. -1.
        -11    1    1    2    0    0  0.48210016010E+02  0.30110579345E+02 -0.29125486416E+02  0.63868197024E+02  0.00000000000E+00 0. -1.
         11    1    1    2    0    0 -0.76663056235E+01  0.34768391185E+02 -0.13392163634E+03  0.13857351098E+03  0.00000000000E+00 0.  1.
</event>
<event>
 7    1  0.2899775E-009  0.8318373E+02  0.7561462E-02  0.1320252E+00
          1   -1    0    0  501    0  0.00000000000E+00  0.00000000000E+00  0.74084912510E+03  0.74084912510E+03  0.00000000000E+00 0. -1.
         -1   -1    0    0    0  501 -0.00000000000E+00 -0.00000000000E+00 -0.17106343959E+02  0.17106343959E+02  0.00000000000E+00 0.  1.
         25    2    1    2    0    0  0.12543894616E+00 -0.21244097998E+02  0.32305709644E+03  0.34707993200E+03  0.12508902511E+03 0.  0.
          5    1    3    3  502    0 -0.65348739501E+01 -0.47451264619E+02  0.31487000134E+03  0.31851988515E+03  0.41800000000E+01 0.  1.
         -5    1    3    3    0  502  0.66603128962E+01  0.26207166620E+02  0.81870951058E+01  0.28560046856E+02  0.41800000000E+01 0.  1.
        -11    1    1    2    0    0 -0.37960689661E+02 -0.12766809419E+02  0.17994301858E+03  0.18434612911E+03  0.00000000000E+00 0.  1.
         11    1    1    2    0    0  0.37835250715E+02  0.34010907418E+02  0.22074266612E+03  0.22652940795E+03  0.00000000000E+00 0. -1.
</event>
<event>
 7    1  0.2899775E-009  0.9257665E+02  0.7561462E-02  0.1296729E+00
         -3   -1    0    0    0  501 -0.00000000000E+00  0.00000000000E+00  0.67254720614E+02  0.67254720614E+02  0.00000000000E+00 0.  1.
          3   -1    0    0  501    0  0.00000000000E+00 -0.00000000000E+00 -0.23966872930E+03  0.23966872930E+03  0.00000000000E+00 0. -1.
         25    2    1    2    0    0  0.56860937483E+02 -0.47898446987E+01 -0.13543137168E+03  0.19299119392E+03  0.12509130933E+03 0.  0.
          5    1    3    3  502    0  0.80557143907E+02  0.29039302133E+01 -0.14502010726E+03  0.16597044964E+03  0.41800000000E+01 0.  1.
         -5    1    3    3    0  502 -0.23696206424E+02 -0.76937749121E+01  0.95887355772E+01  0.27020744276E+02  0.41800000000E+01 0.  1.
        -11    1    1    2    0    0  0.91508032558E+01 -0.77373633202E+01  0.21657530398E+02  0.24751820424E+02  0.00000000000E+00 0.  1.
         11    1    1    2    0    0 -0.66011740739E+02  0.12527208019E+02 -0.58640167408E+02  0.89180435577E+02  0.00000000000E+00 0. -1.
</event>
<event>
 7    1  0.2899775E-009  0.1320754E+03  0.7561462E-02  0.1224408E+00
          4   -1    0    0  501    0  0.00000000000E+00  0.00000000000E+00  0.85781514606E+02  0.85781514606E+02  0.00000000000E+00 0. -1.
         -4   -1    0    0    0  501 -0.00000000000E+00 -0.00000000000E+00 -0.26748427859E+03  0.26748427859E+03  0.00000000000E+00 0.  1.
         25    2    1    2    0    0  0.37530201999E+01 -0.92129422863E+02 -0.15768027668E+03  0.22138687943E+03  0.12508862863E+03 0.  0.
          5    1    3    3  502    0 -0.36614320554E+02 -0.10491228175E+03 -0.98844501186E+02  0.14877803314E+03  0.41800000000E+01 0. -1.
         -5    1    3    3    0  502  0.40367340754E+02  0.12782858885E+02 -0.58835775499E+02  0.72608846289E+02  0.41800000000E+01 0. -1.
        -11    1    1    2    0    0  0.28528920886E+02  0.44938587702E+02 -0.46268446065E+02  0.70527619362E+02  0.00000000000E+00 0.  1.
         11    1    1    2    0    0 -0.32281941086E+02  0.47190835161E+02  0.22245958766E+02  0.61351294403E+02  0.00000000000E+00 0. -1.
</event>
<event>
 7    1  0.2899775E-009  0.1141168E+03  0.7561462E-02  0.1253131E+00
         -2   -1    0    0    0  501 -0.00000000000E+00  0.00000000000E+00  0.80069857734E+02  0.80069857734E+02  0.00000000000E+00 0.  1.
          2   -1    0    0  501    0  0.00000000000E+00 -0.00000000000E+00 -0.25787072209E+03  0.25787072209E+03  0.00000000000E+00 0. -1.
         25    2    1    2    0    0  0.89352628599E+02 -0.21979034867E+02 -0.11752579038E+03  0.19474601098E+03  0.12508687851E+03 0.  0.
          5    1    3    3  502    0 -0.20628965490E+02  0.52033666298E+01 -0.67380286109E+02  0.70782798741E+02  0.41800000000E+01 0. -1.
         -5    1    3    3    0  502  0.10998159409E+03 -0.27182401497E+02 -0.50145504274E+02  0.12396321224E+03  0.41800000000E+01 0. -1.
        -11    1    1    2    0    0 -0.50327531242E+02  0.48362236970E+01  0.18327508503E+02  0.53778685634E+02  0.00000000000E+00 0.  1.
         11    1    1    2    0    0 -0.39025097356E+02  0.17142811170E+02 -0.78602582476E+02  0.89415883211E+02  0.00000000000E+00 0. -1.
</event>
<event>
 7    1  0.2899775E-009  0.1254664E+03  0.7561462E-02  0.1234342E+00
          2   -1    0    0  501    0  0.00000000000E+00  0.00000000000E+00  0.12001347063E+04  0.12001347063E+04  0.00000000000E+00 0. -1.
         -2   -1    0    0    0  501 -0.00000000000E+00 -0.00000000000E+00 -0.16018774513E+02  0.16018774513E+02  0.00000000000E+00 0.  1.
         25    2    1    2    0    0  0.61829123089E+02 -0.68562782123E+02  0.60278626757E+03  0.62251308763E+03  0.12509022483E+03 0.  0.
          5    1    3    3  502    0  0.46750288516E+02  0.12904418784E+02  0.40667408623E+03  0.40957709691E+03  0.41800000000E+01 0.  1.
         -5    1    3    3    0  502  0.15078834573E+02 -0.81467200907E+02  0.19611218133E+03  0.21293599072E+03  0.41800000000E+01 0.  1.
        -11    1    1    2    0    0 -0.32184080913E+02  0.80992530623E+02  0.45600985102E+03  0.46426349125E+03  0.00000000000E+00 0. -1.
         11    1    1    2    0    0 -0.29645042176E+02 -0.12429748500E+02  0.12531981322E+03  0.12937690195E+03  0.00000000000E+00 0.  1.
</event>
<event>
 7    1  0.2947782E-009  0.1253444E+03  0.7561462E-02  0.1234532E+00
         -1   -1    0    0    0  501 -0.00000000000E+00  0.00000000000E+00  0.16024891101E+02  0.16024891101E+02  0.00000000000E+00 0.  1.
          1   -1    0    0  501    0  0.00000000000E+00 -0.00000000000E+00 -0.13261621748E+04  0.13261621748E+04  0.00000000000E+00 0. -1.
         25    2    1    2    0    0  0.76950663785E+02 -0.52376972555E+02 -0.59062022426E+03  0.61085464924E+03  0.12508557583E+03 0.  0.
          5    1    3    3  502    0 -0.81712437984E+01 -0.30541999432E+02 -0.31395345533E+02  0.44751794106E+02  0.41800000000E+01 0. -1.
         -5    1    3    3    0  502  0.85121907583E+02 -0.21834973122E+02 -0.55922487873E+03  0.56610285513E+03  0.41800000000E+01 0. -1.
        -11    1    1    2    0    0 -0.82716357772E+02  0.47573884931E+01 -0.44121016814E+03  0.44892208796E+03  0.00000000000E+00 0. -1.
         11    1    1    2    0    0  0.57656939869E+01  0.47619584062E+02 -0.27830689133E+03  0.28241032873E+03  0.00000000000E+00 0.  1.
</event>
<event>
 7    1  0.2899775E-009  0.1737586E+03  0.7561462E-02  0.1173984E+00
         -2   -1    0    0    0  501 -0.00000000000E+00  0.00000000000E+00  0.73184937311E+02  0.73184937311E+02  0.00000000000E+00 0.  1.
          2   -1    0    0  501    0  0.00000000000E+00 -0.00000000000E+00 -0.64658612391E+03  0.64658612391E+03  0.00000000000E+00 0. -1.
         25    2    1    2    0    0 -0.77286962198E+02 -0.12998429093E+03 -0.48073239381E+03  0.51924972222E+03  0.12508976440E+03 0.  0.
          5    1    3    3  502    0 -0.12244162514E+02 -0.95031064263E+02 -0.39285424318E+03  0.40439182914E+03  0.41800000000E+01 0.  1.
         -5    1    3    3    0  502 -0.65042799684E+02 -0.34953226665E+02 -0.87878150621E+02  0.11485789308E+03  0.41800000000E+01 0.  1.
        -11    1    1    2    0    0 -0.73748949672E+01  0.77906578565E+02 -0.36451489215E+02  0.86328066847E+02  0.00000000000E+00 0.  1.
         11    1    1    2    0    0  0.84661857166E+02  0.52077712363E+02 -0.56217303577E+02  0.11419327215E+03  0.00000000000E+00 0. -1.
</event>
<event>
 7    1  0.2899775E-009  0.1851896E+03  0.7561462E-02  0.1162873E+00
         -4   -1    0    0    0  501 -0.00000000000E+00  0.00000000000E+00  0.36021401606E+03  0.36021401606E+03  0.00000000000E+00 0. -1.
          4   -1    0    0  501    0  0.00000000000E+00 -0.00000000000E+00 -0.15596646852E+03  0.15596646852E+03  0.00000000000E+00 0.  1.
         25    2    1    2    0    0  0.69765995246E+02 -0.15450546185E+03  0.24040893446E+03  0.31966167842E+03  0.12509157064E+03 0.  0.
          5    1    3    3  502    0  0.40676975763E+02  0.25687330005E+01  0.95601320874E+02  0.10401105566E+03  0.41800000000E+01 0. -1.
         -5    1    3    3    0  502  0.29089019483E+02 -0.15707419485E+03  0.14480761359E+03  0.21565062276E+03  0.41800000000E+01 0. -1.
        -11    1    1    2    0    0 -0.31561221810E+02  0.76270329201E+02 -0.64719224288E+02  0.10488971270E+03  0.00000000000E+00 0.  1.
         11    1    1    2    0    0 -0.38204773437E+02  0.78235132651E+02  0.28557837359E+02  0.91629093463E+02  0.00000000000E+00 0. -1.
</event>
<event>
 7    1  0.2899775E-009  0.8036195E+02  0.7561462E-02  0.1328027E+00
          1   -1    0    0  501    0  0.00000000000E+00  0.00000000000E+00  0.32397659376E+03  0.32397659376E+03  0.00000000000E+00 0. -1.
         -1   -1    0    0    0  501 -0.00000000000E+00 -0.00000000000E+00 -0.11510850944E+03  0.11510850944E+03  0.00000000000E+00 0.  1.
         25    2    1    2    0    0 -0.63664095451E+02  0.16135673318E+02 -0.55326444912E+02  0.15172653006E+03  0.12508576024E+03 0.  0.
          5    1    3    3  502    0 -0.45686667097E+02  0.10622462590E+01  0.35378168185E+02  0.57943827123E+02  0.41800000000E+01 0. -1.
         -5    1    3    3    0  502 -0.17977428354E+02  0.15073427059E+02 -0.90704613097E+02  0.93782702939E+02  0.41800000000E+01 0. -1.
        -11    1    1    2    0    0  0.16564419550E+01  0.19443594603E+02  0.75179098665E+01  0.20912105102E+02  0.00000000000E+00 0.  1.
         11    1    1    2    0    0  0.62007653496E+02 -0.35579267921E+02  0.25667661936E+03  0.26644646803E+03  0.00000000000E+00 0. -1.
</event>
<event>
 7    1  0.2899775E-009  0.9785245E+02  0.7561462E-02  0.1284878E+00
          2   -1    0    0  501    0  0.00000000000E+00  0.00000000000E+00  0.34878149857E+03  0.34878149857E+03  0.00000000000E+00 0.  1.
         -2   -1    0    0    0  501 -0.00000000000E+00 -0.00000000000E+00 -0.44347339441E+02  0.44347339441E+02  0.00000000000E+00 0. -1.
         25    2    1    2    0    0 -0.37896396812E+02  0.45658717247E+02  0.14818516289E+03  0.20279945638E+03  0.12509165302E+03 0.  0.
          5    1    3    3  502    0  0.10674015861E+02  0.52486548860E+02  0.81175524574E+01  0.54333594430E+02  0.41800000000E+01 0. -1.
         -5    1    3    3    0  502 -0.48570412673E+02 -0.68278316129E+01  0.14006761043E+03  0.14846586195E+03  0.41800000000E+01 0. -1.
        -11    1    1    2    0    0  0.44615428851E+02 -0.61250728799E+02  0.72488502009E+02  0.10486549096E+03  0.00000000000E+00 0. -1.
         11    1    1    2    0    0 -0.67190320394E+01  0.15592011553E+02  0.83760494231E+02  0.85463890677E+02  0.00000000000E+00 0.  1.
</event>
<event>
 7    1  0.2899775E-009  0.9642860E+02  0.7561462E-02  0.1287991E+00
          2   -1    0    0  501    0  0.00000000000E+00  0.00000000000E+00  0.83996317226E+03  0.83996317226E+03  0.00000000000E+00 0. -1.
         -2   -1    0    0    0  501 -0.00000000000E+00 -0.00000000000E+00 -0.18322434420E+02  0.18322434420E+02  0.00000000000E+00 0.  1.
         25    2    1    2    0    0  0.21424496259E+02  0.10443386038E+02  0.63918870333E+03  0.65175056953E+03  0.12509409683E+03 0.  0.
          5    1    3    3  502    0  0.57652191455E+01 -0.48654589022E+02  0.45468855040E+03  0.45733976107E+03  0.41800000000E+01 0. -1.
         -5    1    3    3    0  502  0.15659277113E+02  0.59097975059E+02  0.18450015293E+03  0.19441080846E+03  0.41800000000E+01 0. -1.
        -11    1    1    2    0    0  0.12043858181E+02  0.28568325067E+02  0.21906323030E+02  0.37961700511E+02  0.00000000000E+00 0.  1.
         11    1    1    2    0    0 -0.33468354440E+02 -0.39011711105E+02  0.16054571147E+03  0.16857333664E+03  0.00000000000E+00 0. -1.
</event>
<event>
 7    1  0.3333873E-009  0.1305762E+03  0.7561462E-02  0.1226603E+00
         -1   -1    0    0    0  501 -0.00000000000E+00  0.00000000000E+00  0.74660512764E+02  0.74660512764E+02  0.00000000000E+00 0.  1.
          1   -1    0    0  501    0  0.00000000000E+00 -0.00000000000E+00 -0.34079197917E+03  0.34079197917E+03  0.00000000000E+00 0. -1.
         25    2    1    2    0    0  0.84303945769E+01 -0.11624436424E+03 -0.14954122956E+03  0.22714114488E+03  0.12508675624E+03 0.  0.
          5    1    3    3  502    0  0.41961660654E+02 -0.77205564795E+02 -0.23682355372E+02  0.91103274124E+02  0.41800000000E+01 0. -1.
         -5    1    3    3    0  502 -0.33531266077E+02 -0.39038799446E+02 -0.12585887419E+03  0.13603787075E+03  0.41800000000E+01 0. -1.
        -11    1    1    2    0    0 -0.21956699971E+02  0.69306105313E+02 -0.13099882158E+02  0.73871779590E+02  0.00000000000E+00 0.  1.
         11    1    1    2    0    0  0.13526305394E+02  0.46938258928E+02 -0.10349035469E+03  0.11443956747E+03  0.00000000000E+00 0. -1.
</event>
<event>
 7    1  0.2899775E-009  0.1557763E+03  0.7561462E-02  0.1193550E+00
         -1   -1    0    0    0  501 -0.00000000000E+00  0.00000000000E+00  0.28171667713E+02  0.28171667713E+02  0.00000000000E+00 0.  1.
          1   -1    0    0  501    0  0.00000000000E+00 -0.00000000000E+00 -0.11077099950E+04  0.11077099950E+04  0.00000000000E+00 0. -1.
         25    2    1    2    0    0 -0.11582121559E+03 -0.76515665179E+02 -0.58769788679E+03  0.61668944586E+03  0.12509142854E+03 0.  0.
          5    1    3    3  502    0 -0.97503897988E+02 -0.30375410151E+02 -0.53296955672E+03  0.54268194778E+03  0.41800000000E+01 0.  1.
         -5    1    3    3    0  502 -0.18317317603E+02 -0.46140255028E+02 -0.54728330076E+02  0.74007498074E+02  0.41800000000E+01 0.  1.
        -11    1    1    2    0    0  0.54739517615E+02 -0.79198105342E+01 -0.10646414771E+03  0.11997396774E+03  0.00000000000E+00 0.  1.
         11    1    1    2    0    0  0.61081697976E+02  0.84435475714E+02 -0.38537629283E+03  0.39921824916E+03  0.00000000000E+00 0. -1.
</event>
<event>
 7    1  0.2899775E-009  0.3622394E+03  0.7561462E-02  0.1057701E+00
         -1   -1    0    0    0  501 -0.00000000000E+00  0.00000000000E+00  0.21679800968E+04  0.21679800968E+04  0.00000000000E+00 0.  1.
          1   -1    0    0  501    0  0.00000000000E+00 -0.00000000000E+00 -0.65142907902E+02  0.65142907902E+02  0.00000000000E+00 0. -1.
         25    2    1    2    0    0 -0.34734970191E+03  0.79140520888E+02  0.91834486183E+03  0.99293413522E+03  0.12508346887E+03 0.  0.
          5    1    3    3  502    0 -0.22142344175E+03  0.95380079026E+02  0.48948951069E+03  0.54565845866E+03  0.41800000000E+01 0.  1.
         -5    1    3    3    0  502 -0.12592626016E+03 -0.16239558138E+02  0.42885535113E+03  0.44727567656E+03  0.41800000000E+01 0.  1.
        -11    1    1    2    0    0  0.26809191362E+03 -0.63904005776E+02  0.76813437651E+03  0.81608052083E+03  0.00000000000E+00 0. -1.
         11    1    1    2    0    0  0.79257788286E+02 -0.15236515112E+02  0.41635795055E+03  0.42410834863E+03  0.00000000000E+00 0.  1.
</event>
<event>
 7    1  0.2899775E-009  0.6908950E+02  0.7561462E-02  0.1363217E+00
         -2   -1    0    0    0  501 -0.00000000000E+00  0.00000000000E+00  0.34366091489E+02  0.34366091489E+02  0.00000000000E+00 0. -1.
          2   -1    0    0  501    0  0.00000000000E+00 -0.00000000000E+00 -0.36706081890E+03  0.36706081890E+03  0.00000000000E+00 0.  1.
         25    2    1    2    0    0  0.20161873872E+02  0.71949329295E+01 -0.22626504024E+03  0.25941130724E+03  0.12506034412E+03 0.  0.
          5    1    3    3  502    0  0.38988833170E+02  0.13719869566E+01 -0.23441785069E+03  0.23767880129E+03  0.41800000000E+01 0.  1.
         -5    1    3    3    0  502 -0.18826959298E+02  0.58229459729E+01  0.81528104594E+01  0.21732505944E+02  0.41800000000E+01 0.  1.
        -11    1    1    2    0    0 -0.48955063961E+02 -0.96595848678E+01 -0.10094026439E+03  0.11260036786E+03  0.00000000000E+00 0.  1.
         11    1    1    2    0    0  0.28793190089E+02  0.24646519382E+01 -0.54894227846E+01  0.29415235290E+02  0.00000000000E+00 0. -1.
</event>
<event>
 7    1  0.2899775E-009  0.1012459E+03  0.7561462E-02  0.1277698E+00
          2   -1    0    0  501    0  0.00000000000E+00  0.00000000000E+00  0.31934389101E+03  0.31934389101E+03  0.00000000000E+00 0.  1.
         -2   -1    0    0    0  501 -0.00000000000E+00 -0.00000000000E+00 -0.42663351169E+02  0.42663351169E+02  0.00000000000E+00 0. -1.
         25    2    1    2    0    0 -0.43096142399E+02 -0.42870113896E+01  0.14525958095E+03  0.19652805060E+03  0.12508905971E+03 0.  0.
          5    1    3    3  502    0 -0.17033573268E+02  0.59414409458E+02  0.83419867284E+02  0.10390650281E+03  0.41800000000E+01 0.  1.
         -5    1    3    3    0  502 -0.26062569131E+02 -0.63701420847E+02  0.61839713669E+02  0.92621547786E+02  0.41800000000E+01 0.  1.
        -11    1    1    2    0    0  0.23517337204E+02  0.30724086400E+02  0.12641421827E+03  0.13220283361E+03  0.00000000000E+00 0.  1.
         11    1    1    2    0    0  0.19578805195E+02 -0.26437075010E+02  0.50067406195E+01  0.33276357968E+02  0.00000000000E+00 0. -1.
</event>
<event>
 7    1  0.2927035E-009  0.1366621E+03  0.7561462E-02  0.1217892E+00
         -2   -1    0    0    0  501 -0.00000000000E+00  0.00000000000E+00  0.28363280895E+03  0.28363280895E+03  0.00000000000E+00 0.  1.
          2   -1    0    0  501    0  0.00000000000E+00 -0.00000000000E+00 -0.10585918366E+03  0.10585918366E+03  0.00000000000E+00 0. -1.
         25    2    1    2    0    0  0.98619998255E+02  0.87517422608E+02  0.60385541131E+02  0.19151580330E+03  0.12508671401E+03 0.  0.
          5    1    3    3  502    0  0.22505733458E+01  0.23758060540E+02  0.71367351554E+02  0.75367644177E+02  0.41800000000E+01 0. -1.
         -5    1    3    3    0  502  0.96369424909E+02  0.63759362068E+02 -0.10981810423E+02  0.11614815913E+03  0.41800000000E+01 0. -1.
        -11    1    1    2    0    0 -0.72716693865E+02 -0.51511667728E+02  0.12444685485E+03  0.15306269683E+03  0.00000000000E+00 0.  1.
         11    1    1    2    0    0 -0.25903304390E+02 -0.36005754880E+02 -0.70587706971E+01  0.44913492478E+02  0.00000000000E+00 0. -1.
</event>
<event>
 7    1  0.2899775E-009  0.9161849E+02  0.7561462E-02  0.1298979E+00
         -1   -1    0    0    0  501 -0.00000000000E+00  0.00000000000E+00  0.31686801136E+02  0.31686801136E+02  0.00000000000E+00 0.  1.
          1   -1    0    0  501    0  0.00000000000E+00 -0.00000000000E+00 -0.39759949112E+03  0.39759949112E+03  0.00000000000E+00 0. -1.
         25    2    1    2    0    0  0.14113596419E+02  0.23271197261E+02 -0.25912007617E+03  0.28901786627E+03  0.12508945170E+03 0.  0.
          5    1    3    3  502    0 -0.31609062944E+02 -0.35572396944E+02 -0.14492696934E+03  0.15259694338E+03  0.41800000000E+01 0. -1.
         -5    1    3    3    0  502  0.45722659363E+02  0.58843594205E+02 -0.11419310682E+03  0.13642092290E+03  0.41800000000E+01 0. -1.
        -11    1    1    2    0    0 -0.33438940151E+02 -0.42390043652E+01 -0.39830173174E+01  0.33941071041E+02  0.00000000000E+00 0.  1.
         11    1    1    2    0    0  0.19325343732E+02 -0.19032192896E+02 -0.10280959650E+03  0.10632735495E+03  0.00000000000E+00 0. -1.
</event>
<event>
 7    1  0.2899775E-009  0.2647339E+03  0.7561462E-02  0.1104332E+00
         -1   -1    0    0    0  501 -0.00000000000E+00  0.00000000000E+00  0.86649645743E+02  0.86649645743E+02  0.00000000000E+00 0.  1.
          1   -1    0    0  501    0  0.00000000000E+00 -0.00000000000E+00 -0.10152511189E+04  0.10152511189E+04  0.00000000000E+00 0. -1.
         25    2    1    2    0    0 -0.70287277803E+02 -0.23397274151E+03 -0.23599702445E+03  0.36197398217E+03  0.12508806109E+03 0.  0.
          5    1    3    3  502    0 -0.33220882970E+02  0.38412891053E+01 -0.26978700577E+02  0.43170652672E+02  0.41800000000E+01 0.  1.
         -5    1    3    3    0  502 -0.37066394833E+02 -0.23781403061E+03 -0.20901832387E+03  0.31880332950E+03  0.41800000000E+01 0.  1.
        -11    1    1    2    0    0 -0.10379199881E+02  0.85014681692E+02 -0.16671469445E+03  0.18742735457E+03  0.00000000000E+00 0.  1.
         11    1    1    2    0    0  0.80666477684E+02  0.14895805982E+03 -0.52588975422E+03  0.55249942787E+03  0.00000000000E+00 0. -1.
</event>
<event>
 7    1  0.2899775E-009  0.1219749E+03  0.7561462E-02  0.1239874E+00
         -4   -1    0    0    0  501 -0.00000000000E+00  0.00000000000E+00  0.43533394919E+03  0.43533394919E+03  0.00000000000E+00 0.  1.
          4   -1    0    0  501    0  0.00000000000E+00 -0.00000000000E+00 -0.34926411601E+02  0.34926411601E+02  0.00000000000E+00 0. -1.
         25    2    1    2    0    0 -0.11014576076E+02 -0.49059601990E+02  0.18869049517E+03  0.23191006930E+03  0.12510000736E+03 0.  0.
          5    1    3    3  502    0  0.47907182544E+02  0.12226126652E+02  0.65461938898E+02  0.82142036476E+02  0.41800000000E+01 0. -1.
         -5    1    3    3    0  502 -0.58921758620E+02 -0.61285728643E+02  0.12322855627E+03  0.14976803282E+03  0.41800000000E+01 0. -1.
        -11    1    1    2    0    0  0.51434031423E+02  0.45439309982E+02  0.12479742196E+03  0.14242396922E+03  0.00000000000E+00 0.  1.
         11    1    1    2    0    0 -0.40419455346E+02  0.36202920086E+01  0.86919620463E+02  0.95926322280E+02  0.00000000000E+00 0. -1.
</event>
<event>
 7    1  0.2899775E-009  0.1275632E+03  0.7561462E-02  0.1231117E+00
          1   -1    0    0  501    0  0.00000000000E+00  0.00000000000E+00  0.15710422813E+04  0.15710422813E+04  0.00000000000E+00 0. -1.
         -1   -1    0    0    0  501 -0.00000000000E+00 -0.00000000000E+00 -0.12748125726E+02  0.12748125726E+02  0.00000000000E+00 0.  1.
         25    2    1    2    0    0  0.82257377253E+02 -0.22586533357E+02  0.10283689312E+04  0.10394556574E+04  0.12509587232E+03 0.  0.
          5    1    3    3  502    0  0.38484556625E+02  0.39085766640E+02  0.19379132656E+03  0.20144803028E+03  0.41800000000E+01 0.  1.
         -5    1    3    3    0  502  0.43772820629E+02 -0.61672299997E+02  0.83457760468E+03  0.83800762708E+03  0.41800000000E+01 0.  1.
        -11    1    1    2    0    0  0.82068783561E+00 -0.27402084344E+02  0.11086372650E+03  0.11420294921E+03  0.00000000000E+00 0.  1.
         11    1    1    2    0    0 -0.83078065089E+02  0.49988617701E+02  0.41906149788E+03  0.43013180050E+03  0.00000000000E+00 0. -1.
</event>
<event>
 7    1  0.2899775E-009  0.1675280E+03  0.7561462E-02  0.1180451E+00
          2   -1    0    0  501    0  0.00000000000E+00  0.00000000000E+00  0.33491885598E+03  0.33491885598E+03  0.00000000000E+00 0. -1.
         -2   -1    0    0    0  501 -0.00000000000E+00 -0.00000000000E+00 -0.10016018492E+03  0.10016018492E+03  0.00000000000E+00 0.  1.
         25    2    1    2    0    0  0.83996365498E+02  0.11720351524E+03  0.16103786460E+03  0.24974536360E+03  0.12508996524E+03 0.  0.
          5    1    3    3  502    0  0.37611159627E+02 -0.22096815061E+02  0.41781506002E+02  0.60547792761E+02  0.41800000000E+01 0.  1.
         -5    1    3    3    0  502  0.46385205870E+02  0.13930033030E+03  0.11925635859E+03  0.18919757084E+03  0.41800000000E+01 0.  1.
        -11    1    1    2    0    0 -0.40456826355E+02 -0.62282558520E+02 -0.11328096093E+02  0.75127875357E+02  0.00000000000E+00 0.  1.
         11    1    1    2    0    0 -0.43539539142E+02 -0.54920956722E+02  0.85048902559E+02  0.11020580195E+03  0.00000000000E+00 0. -1.
</event>
<event>
 7    1  0.2899775E-009  0.1318795E+03  0.7561462E-02  0.1224693E+00
          2   -1    0    0  501    0  0.00000000000E+00  0.00000000000E+00  0.13697276577E+03  0.13697276577E+03  0.00000000000E+00 0.  1.
         -2   -1    0    0    0  501 -0.00000000000E+00 -0.00000000000E+00 -0.20506937490E+03  0.20506937490E+03  0.00000000000E+00 0. -1.
         25    2    1    2    0    0 -0.12778302744E+03 -0.20725712707E+01 -0.43441701651E+02  0.18402875164E+03  0.12508637949E+03 0.  0.
          5    1    3    3  502    0 -0.81963391993E+02 -0.22918193770E+02  0.33856778947E+02  0.91689667430E+02  0.41800000000E+01 0.  1.
         -5    1    3    3    0  502 -0.45819635448E+02  0.20845622500E+02 -0.77298480598E+02  0.92339084210E+02  0.41800000000E+01 0.  1.
        -11    1    1    2    0    0  0.43453686822E+02  0.43999774309E+01  0.33928455963E+02  0.55305721439E+02  0.00000000000E+00 0.  1.
         11    1    1    2    0    0  0.84329340619E+02 -0.23274061602E+01 -0.58583363448E+02  0.10270766759E+03  0.00000000000E+00 0. -1.
</event>
<event>
 7    1  0.2899775E-009  0.9051329E+02  0.7561462E-02  0.1301613E+00
         -1   -1    0    0    0  501 -0.00000000000E+00  0.00000000000E+00  0.17085200759E+03  0.17085200759E+03  0.00000000000E+00 0.  1.
          1   -1    0    0  501    0  0.00000000000E+00 -0.00000000000E+00 -0.70026544121E+02  0.70026544121E+02  0.00000000000E+00 0. -1.
         25    2    1    2    0    0 -0.12721144145E+02  0.36175212174E+01  0.51680695271E+02  0.13600113301E+03  0.12510195821E+03 0.  0.
          5    1    3    3  502    0 -0.54980464808E+02 -0.41530241158E+01  0.69914173451E+02  0.89137888516E+02  0.41800000000E+01 0. -1.
         -5    1    3    3    0  502  0.42259320663E+02  0.77705453331E+01 -0.18233478180E+02  0.46863244491E+02  0.41800000000E+01 0. -1.
        -11    1    1    2    0    0  0.78443750897E+01 -0.42578776506E+02  0.49299353521E+02  0.65611833437E+02  0.00000000000E+00 0.  1.
         11    1    1    2    0    0  0.48767690552E+01  0.38961255288E+02 -0.15458531931E+00  0.39265585271E+02  0.00000000000E+00 0. -1.
</event>
<event>
 7    1  0.2899775E-009  0.2029894E+03  0.7561462E-02  0.1147241E+00
          1   -1    0    0  501    0  0.00000000000E+00  0.00000000000E+00  0.10538588834E+04  0.10538588834E+04  0.00000000000E+00 0.  1.
         -1   -1    0    0    0  501 -0.00000000000E+00 -0.00000000000E+00 -0.44525046023E+02  0.44525046023E+02  0.00000000000E+00 0. -1.
         25    2    1    2    0    0  0.16986683751E+03 -0.70163069748E+02  0.61947310415E+03  0.65815824845E+03  0.12509098449E+03 0.  0.
          5    1    3    3  502    0  0.13588729355E+03 -0.10531899188E+03  0.50928784697E+03  0.53753979394E+03  0.41800000000E+01 0. -1.
         -5    1    3    3    0  502  0.33979543968E+02  0.35155922135E+02  0.11018525718E+03  0.12061845451E+03  0.41800000000E+01 0. -1.
        -11    1    1    2    0    0 -0.31414220385E+02  0.46249868274E+01  0.16576677678E+03  0.16878053214E+03  0.00000000000E+00 0.  1.
         11    1    1    2    0    0 -0.13845261713E+03  0.65538082921E+02  0.22409395641E+03  0.27144514880E+03  0.00000000000E+00 0. -1.
</event>
<event>
 7    1  0.2899775E-009  0.1110695E+03  0.7561462E-02  0.1258602E+00
          2   -1    0    0  501    0  0.00000000000E+00  0.00000000000E+00  0.30572747808E+03  0.30572747808E+03  0.00000000000E+00 0. -1.
         -2   -1    0    0    0  501 -0.00000000000E+00 -0.00000000000E+00 -0.46850751397E+02  0.46850751397E+02  0.00000000000E+00 0.  1.
         25    2    1    2    0    0 -0.10859308344E+02  0.48081758411E+02  0.14578733708E+03  0.19831347588E+03  0.12507800364E+03 0.  0.
          5    1    3    3  502    0  0.47529348654E+02  0.52394504895E+02  0.10561564529E+03  0.12718632024E+03  0.41800000000E+01 0.  1.
         -5    1    3    3    0  502 -0.58388656999E+02 -0.43127464835E+01  0.40171691786E+02  0.71127155639E+02  0.41800000000E+01 0.  1.
        -11    1    1    2    0    0 -0.62487476720E+01 -0.66873835199E+02  0.43100351256E+02  0.79804742717E+02  0.00000000000E+00 0.  1.
         11    1    1    2    0    0  0.17108056016E+02  0.18792076788E+02  0.69989038348E+02  0.74460010876E+02  0.00000000000E+00 0. -1.
</event>
<event>
 7    1  0.2899775E-009  0.7545197E+02  0.7561462E-02  0.1342477E+00
          2   -1    0    0  501    0  0.00000000000E+00  0.00000000000E+00  0.27076850755E+03  0.27076850755E+03  0.00000000000E+00 0.  1.
         -2   -1    0    0    0  501 -0.00000000000E+00 -0.00000000000E+00 -0.49035747787E+02  0.49035747787E+02  0.00000000000E+00 0. -1.
         25    2    1    2    0    0  0.20958123744E+02 -0.33198094059E+02  0.15129918470E+03  0.20020422223E+03  0.12509568701E+03 0.  0.
          5    1    3    3  502    0  0.34136567273E+02 -0.63304215846E+02  0.36581151054E+02  0.80798403335E+02  0.41800000000E+01 0.  1.
         -5    1    3    3    0  502 -0.13178443529E+02  0.30106121787E+02  0.11471803365E+03  0.11940581890E+03  0.41800000000E+01 0.  1.
        -11    1    1    2    0    0 -0.42566453651E+01  0.27881754455E+02 -0.15303970240E+02  0.32089293641E+02  0.00000000000E+00 0. -1.
         11    1    1    2    0    0 -0.16701478379E+02  0.53163396041E+01  0.85737545303E+02  0.87510739464E+02  0.00000000000E+00 0.  1.
</event>
<event>
 7    1  0.2899775E-009  0.1332007E+03  0.7561462E-02  0.1222782E+00
         -1   -1    0    0    0  501 -0.00000000000E+00  0.00000000000E+00  0.10329066879E+03  0.10329066879E+03  0.00000000000E+00 0.  1.
          1   -1    0    0  501    0  0.00000000000E+00 -0.00000000000E+00 -0.24069141147E+03  0.24069141147E+03  0.00000000000E+00 0. -1.
         25    2    1    2    0    0  0.62987389156E+02  0.53688606664E+02  0.13979419022E+02  0.15064047218E+03  0.12508896844E+03 0.  0.
          5    1    3    3  502    0 -0.26856618748E+02  0.49542809928E+02  0.21107193630E+02  0.60322085583E+02  0.41800000000E+01 0. -1.
         -5    1    3    3    0  502  0.89844007904E+02  0.41457967357E+01 -0.71277746079E+01  0.90318386599E+02  0.41800000000E+01 0. -1.
        -11    1    1    2    0    0 -0.76769721059E+02 -0.14253372234E+02 -0.10610709502E+03  0.13174013931E+03  0.00000000000E+00 0. -1.
         11    1    1    2    0    0  0.13782331902E+02 -0.39435234430E+02 -0.45273066678E+02  0.61601468762E+02  0.00000000000E+00 0.  1.
</event>
<event>
 7    1  0.2899775E-009  0.1369210E+03  0.7561462E-02  0.1217533E+00
         -1   -1    0    0    0  501 -0.00000000000E+00  0.00000000000E+00  0.80425660304E+02  0.80425660304E+02  0.00000000000E+00 0.  1.
          1   -1    0    0  501    0  0.00000000000E+00 -0.00000000000E+00 -0.33657163931E+03  0.33657163931E+03  0.00000000000E+00 0. -1.
         25    2    1    2    0    0 -0.10403401265E+02 -0.10493926345E+03 -0.56644288776E+02  0.17312709455E+03  0.12507571965E+03 0.  0.
          5    1    3    3  502    0  0.39735891685E+02 -0.87884252127E+02 -0.68901218064E+02  0.11860621025E+03  0.41800000000E+01 0. -1.
         -5    1    3    3    0  502 -0.50139292950E+02 -0.17055011319E+02  0.12256929288E+02  0.54520884294E+02  0.41800000000E+01 0. -1.
        -11    1    1    2    0    0 -0.24307729112E+02  0.17079134336E+02 -0.10925817997E+03  0.11322505207E+03  0.00000000000E+00 0. -1.
         11    1    1    2    0    0  0.34711130377E+02  0.87860129110E+02 -0.90243510258E+02  0.13064515300E+03  0.00000000000E+00 0.  1.
</event>
<event>
 7    1  0.2899775E-009  0.2043228E+03  0.7561462E-02  0.1146142E+00
          4   -1    0    0  501    0  0.00000000000E+00  0.00000000000E+00  0.40992762745E+03  0.40992762745E+03  0.00000000000E+00 0. -1.
         -4   -1    0    0    0  501 -0.00000000000E+00 -0.00000000000E+00 -0.11468629886E+03  0.11468629886E+03  0.00000000000E+00 0.  1.
         25    2    1    2    0    0  0.13953393106E+03 -0.12270594435E+03  0.13186665338E+03  0.25993284196E+03  0.12509916611E+03 0.  0.
          5    1    3    3  502    0 -0.22504162908E+02 -0.15187273030E+02  0.56026492655E+01  0.28034847762E+02  0.41800000000E+01 0. -1.
         -5    1    3    3    0  502  0.16203809397E+03 -0.10751867132E+03  0.12626400412E+03  0.23189799420E+03  0.41800000000E+01 0. -1.
        -11    1    1    2    0    0 -0.91050062896E+02  0.91043491914E+02  0.51439228054E+02  0.13865433840E+03  0.00000000000E+00 0.  1.
         11    1    1    2    0    0 -0.48483868166E+02  0.31662452435E+02  0.11193544715E+03  0.12602674595E+03  0.00000000000E+00 0. -1.
</event>
<event>
 7    1  0.2899775E-009  0.1144340E+03  0.7561462E-02  0.1252572E+00
          3   -1    0    0  501    0  0.00000000000E+00  0.00000000000E+00  0.63681746002E+03  0.63681746002E+03  0.00000000000E+00 0. -1.
         -3   -1    0    0    0  501 -0.00000000000E+00 -0.00000000000E+00 -0.27953866958E+02  0.27953866958E+02  0.00000000000E+00 0.  1.
         25    2    1    2    0    0 -0.12453774073E+02  0.52739485028E+02  0.19944847526E+03  0.24158664030E+03  0.12509140945E+03 0.  0.
          5    1    3    3  502    0  0.46568878880E+02  0.46390329979E+02  0.15137958579E+03  0.16508777844E+03  0.41800000000E+01 0.  1.
         -5    1    3    3    0  502 -0.59022652953E+02  0.63491550484E+01  0.48068889464E+02  0.76498861859E+02  0.41800000000E+01 0.  1.
        -11    1    1    2    0    0  0.34455309844E+02  0.10915310408E+02  0.95139024139E+02  0.10177301357E+03  0.00000000000E+00 0.  1.
         11    1    1    2    0    0 -0.22001535771E+02 -0.63654795436E+02  0.31427609367E+03  0.32141167311E+03  0.00000000000E+00 0. -1.
</event>
<event>
 7    1  0.2899775E-009  0.8884479E+02  0.7561462E-02  0.1305674E+00
          2   -1    0    0  501    0  0.00000000000E+00  0.00000000000E+00  0.69557283665E+02  0.69557283665E+02  0.00000000000E+00 0. -1.
         -2   -1    0    0    0  501 -0.00000000000E+00 -0.00000000000E+00 -0.17268605097E+03  0.17268605097E+03  0.00000000000E+00 0.  1.
         25    2    1    2    0    0  0.32490046455E+01  0.17761768995E+02 -0.63394756402E+02  0.14139706838E+03  0.12509276293E+03 0.  0.
          5    1    3    3  502    0 -0.19586278146E+02  0.65752883824E+02 -0.17196343617E+02  0.70853727189E+02  0.41800000000E+01 0.  1.
         -5    1    3    3    0  502  0.22835282792E+02 -0.47991114829E+02 -0.46198412785E+02  0.70543341192E+02  0.41800000000E+01 0.  1.
        -11    1    1    2    0    0 -0.23807807399E+02 -0.24349752267E+02  0.18488755174E+02  0.38749918665E+02  0.00000000000E+00 0. -1.
         11    1    1    2    0    0  0.20558802753E+02  0.65879832726E+01 -0.58222766081E+02  0.62096347593E+02  0.00000000000E+00 0.  1.
</event>
<event>
 7    1  0.2899775E-009  0.1077148E+03  0.7561462E-02  0.1264861E+00
          1   -1    0    0  501    0  0.00000000000E+00  0.00000000000E+00  0.10755909816E+04  0.10755909816E+04  0.00000000000E+00 0. -1.
         -1   -1    0    0    0  501 -0.00000000000E+00 -0.00000000000E+00 -0.18536360317E+02  0.18536360317E+02  0.00000000000E+00 0.  1.
         25    2    1    2    0    0 -0.53232468369E+01  0.47171191702E+02  0.87667287807E+03  0.88682358481E+03  0.12508907681E+03 0.  0.
          5    1    3    3  502    0  0.57223229521E+02  0.50956291218E+01  0.33529392456E+03  0.34020574904E+03  0.41800000000E+01 0.  1.
         -5    1    3    3    0  502 -0.62546476358E+02  0.42075562580E+02  0.54137895351E+03  0.54661783577E+03  0.41800000000E+01 0.  1.
        -11    1    1    2    0    0 -0.23201433650E+02 -0.48511578238E+02  0.48660174496E+02  0.72522357439E+02  0.00000000000E+00 0.  1.
         11    1    1    2    0    0  0.28524680487E+02  0.13403865362E+01  0.13172156875E+03  0.13478139971E+03  0.00000000000E+00 0. -1.
</event>
<event>
 7    1  0.2899775E-009  0.1673690E+03  0.7561462E-02  0.1180620E+00
         -2   -1    0    0    0  501 -0.00000000000E+00  0.00000000000E+00  0.51928381148E+02  0.51928381148E+02  0.00000000000E+00 0.  1.
          2   -1    0    0  501    0  0.00000000000E+00 -0.00000000000E+00 -0.70127039374E+03  0.70127039374E+03  0.00000000000E+00 0. -1.
         25    2    1    2    0    0 -0.96461276209E+02 -0.10134368311E+03 -0.19628965250E+03  0.27157378907E+03  0.12508946926E+03 0.  0.
          5    1    3    3  502    0 -0.10962997891E+03 -0.31024014456E+02 -0.13932074443E+03  0.18002489822E+03  0.41800000000E+01 0. -1.
         -5    1    3    3    0  502  0.13168702704E+02 -0.70319668658E+02 -0.56968908067E+02  0.91548890858E+02  0.41800000000E+01 0. -1.
        -11    1    1    2    0    0  0.71663765941E+02  0.38168427307E+02 -0.34175137736E+03  0.35126418565E+03  0.00000000000E+00 0. -1.
         11    1    1    2    0    0  0.24797510268E+02  0.63175255807E+02 -0.11130098273E+03  0.13036080016E+03  0.00000000000E+00 0.  1.
</event>
<event>
 7    1  0.2899775E-009  0.2602508E+03  0.7561462E-02  0.1106993E+00
         -2   -1    0    0    0  501 -0.00000000000E+00  0.00000000000E+00  0.18529914178E+03  0.18529914178E+03  0.00000000000E+00 0.  1.
          2   -1    0    0  501    0  0.00000000000E+00 -0.00000000000E+00 -0.40604594594E+03  0.40604594594E+03  0.00000000000E+00 0. -1.
         25    2    1    2    0    0  0.17015164682E+03 -0.17929336897E+03 -0.16796092096E+03  0.32397006798E+03  0.12509212168E+03 0.  0.
          5    1    3    3  502    0  0.49121697599E+02  0.43271169543E+01 -0.63385383735E+02  0.80416692218E+02  0.41800000000E+01 0. -1.
         -5    1    3    3    0  502  0.12102994922E+03 -0.18362048592E+03 -0.10457553722E+03  0.24355337576E+03  0.41800000000E+01 0. -1.
        -11    1    1    2    0    0 -0.10833416779E+03  0.14288484886E+03 -0.17285225538E+01  0.17931915607E+03  0.00000000000E+00 0.  1.
         11    1    1    2    0    0 -0.61817479034E+02  0.36408520106E+02 -0.51057360639E+02  0.88055863665E+02  0.00000000000E+00 0. -1.
</event>
<event>
 7    1  0.2899775E-009  0.7307602E+02  0.7561462E-02  0.1349935E+00
          1   -1    0    0  501    0  0.00000000000E+00  0.00000000000E+00  0.16513047148E+03  0.16513047148E+03  0.00000000000E+00 0. -1.
         -1   -1    0    0    0  501 -0.00000000000E+00 -0.00000000000E+00 -0.96243346489E+02  0.96243346489E+02  0.00000000000E+00 0.  1.
         25    2    1    2    0    0 -0.60471047991E+02 -0.19289577287E+02  0.34832593574E+02  0.14452985951E+03  0.12508691089E+03 0.  0.
          5    1    3    3  502    0 -0.10711673644E+02 -0.25504025762E+02  0.75061707713E+02  0.80105727929E+02  0.41800000000E+01 0.  1.
         -5    1    3    3    0  502 -0.49759374347E+02  0.62144484753E+01 -0.40229114139E+02  0.64424131578E+02  0.41800000000E+01 0.  1.
        -11    1    1    2    0    0  0.34392003924E+02  0.23199799860E+02 -0.27572101949E+02  0.49812262078E+02  0.00000000000E+00 0.  1.
         11    1    1    2    0    0  0.26079044067E+02 -0.39102225730E+01  0.61626633365E+02  0.67031696383E+02  0.00000000000E+00 0. -1.
</event>
<event>
 7    1  0.2899775E-009  0.3324383E+03  0.7561462E-02  0.1070063E+00
         -1   -1    0    0    0  501 -0.00000000000E+00  0.00000000000E+00  0.10372333881E+03  0.10372333881E+03  0.00000000000E+00 0.  1.
          1   -1    0    0  501    0  0.00000000000E+00 -0.00000000000E+00 -0.13667432852E+04  0.13667432852E+04  0.00000000000E+00 0. -1.
         25    2    1    2    0    0  0.49366786475E+02 -0.32222536571E+03 -0.93789220613E+03  0.10007772215E+04  0.12508793268E+03 0.  0.
          5    1    3    3  502    0  0.46479727905E+02 -0.65643849645E+02 -0.12831614108E+03  0.15149912397E+03  0.41800000000E+01 0. -1.
         -5    1    3    3    0  502  0.28870585692E+01 -0.25658151607E+03 -0.80957606505E+03  0.84927809756E+03  0.41800000000E+01 0. -1.
        -11    1    1    2    0    0 -0.31012433863E+02  0.99459271853E+02 -0.51034326600E+02  0.11601043187E+03  0.00000000000E+00 0.  1.
         11    1    1    2    0    0 -0.18354352612E+02  0.22276609386E+03 -0.27409341364E+03  0.35367897059E+03  0.00000000000E+00 0. -1.
</event>
<event>
 7    1  0.2899775E-009  0.2877390E+03  0.7561462E-02  0.1091536E+00
          1   -1    0    0  501    0  0.00000000000E+00  0.00000000000E+00  0.62189958221E+03  0.62189958221E+03  0.00000000000E+00 0. -1.
         -1   -1    0    0    0  501 -0.00000000000E+00 -0.00000000000E+00 -0.14603164834E+03  0.14603164834E+03  0.00000000000E+00 0.  1.
         25    2    1    2    0    0  0.25421624252E+03  0.80829503073E+02  0.13620594716E+03  0.32459044718E+03  0.12509033469E+03 0.  0.
          5    1    3    3  502    0 -0.35459775433E+01  0.30065329138E+02  0.24130237395E+02  0.38938910227E+02  0.41800000000E+01 0.  1.
         -5    1    3    3    0  502  0.25776222006E+03  0.50764173935E+02  0.11207570977E+03  0.28565153696E+03  0.41800000000E+01 0.  1.
        -11    1    1    2    0    0 -0.18842258938E+03 -0.10043379342E+03  0.22888023053E+03  0.31301146780E+03  0.00000000000E+00 0.  1.
         11    1    1    2    0    0 -0.65793653140E+02  0.19604290345E+02  0.11078175619E+03  0.13032931557E+03  0.00000000000E+00 0. -1.
</event>
<event>
 7    1  0.2899775E-009  0.1561419E+03  0.7561462E-02  0.1193123E+00
          2   -1    0    0  501    0  0.00000000000E+00  0.00000000000E+00  0.86792847940E+02  0.86792847940E+02  0.00000000000E+00 0. -1.
         -2   -1    0    0    0  501 -0.00000000000E+00 -0.00000000000E+00 -0.33036818933E+03  0.33036818933E+03  0.00000000000E+00 0.  1.
         25    2    1    2    0    0 -0.12146659975E+03  0.74380129198E+01 -0.18248008715E+03  0.25249950163E+03  0.12509019635E+03 0.  0.
          5    1    3    3  502    0 -0.89453684252E+02 -0.48901495439E+02 -0.14569385519E+03  0.17786930517E+03  0.41800000000E+01 0.  1.
         -5    1    3    3    0  502 -0.32012915501E+02  0.56339508359E+02 -0.36786231962E+02  0.74630196455E+02  0.41800000000E+01 0.  1.
        -11    1    1    2    0    0  0.15878732832E+02  0.29460268857E+02  0.63311571872E+01  0.34060609930E+02  0.00000000000E+00 0.  1.
         11    1    1    2    0    0  0.10558786692E+03 -0.36898281777E+02 -0.67426411427E+02  0.13060092571E+03  0.00000000000E+00 0. -1.
</event>
<event>
 7    1  0.2899775E-009  0.1416840E+03  0.7561462E-02  0.1211081E+00
          2   -1    0    0  501    0  0.00000000000E+00  0.00000000000E+00  0.42132012502E+02  0.42132012502E+02  0.00000000000E+00 0. -1.
         -2   -1    0    0    0  501 -0.00000000000E+00 -0.00000000000E+00 -0.66414977230E+03  0.66414977230E+03  0.00000000000E+00 0.  1.
         25    2    1    2    0    0  0.41664267237E+02  0.10050710446E+03 -0.46164123204E+03  0.49051600987E+03  0.12512289802E+03 0.  0.
          5    1    3    3  502    0 -0.22099257718E+02 -0.18132173738E+02 -0.11580000301E+03  0.11934934442E+03  0.41800000000E+01 0.  1.
         -5    1    3    3    0  502  0.63763524955E+02  0.11863927820E+03 -0.34584122903E+03  0.37116666545E+03  0.41800000000E+01 0.  1.
        -11    1    1    2    0    0 -0.52494881989E+02 -0.71048166110E+02 -0.16180269025E+03  0.18434658965E+03  0.00000000000E+00 0.  1.
         11    1    1    2    0    0  0.10830614752E+02 -0.29458938349E+02  0.14261624899E+01  0.31419185285E+02  0.00000000000E+00 0. -1.
</event>
<event>
 7    1  0.2899775E-009  0.1516851E+03  0.7561462E-02  0.1198418E+00
         -1   -1    0    0    0  501 -0.00000000000E+00  0.00000000000E+00  0.76778334510E+02  0.76778334510E+02  0.00000000000E+00 0.  1.
          1   -1    0    0  501    0  0.00000000000E+00 -0.00000000000E+00 -0.53121410475E+03  0.53121410475E+03  0.00000000000E+00 0. -1.
         25    2    1    2    0    0  0.11572466751E+03 -0.68338551021E+02 -0.80470654900E+02  0.20046247611E+03  0.12508925535E+03 0.  0.
          5    1    3    3  502    0  0.48723203133E+02 -0.67782976135E+02  0.13817091300E+02  0.84716390322E+02  0.41800000000E+01 0. -1.
         -5    1    3    3    0  502  0.67001464373E+02 -0.55557488602E+00 -0.94287746201E+02  0.11574608579E+03  0.41800000000E+01 0. -1.
        -11    1    1    2    0    0 -0.69863984454E+02 -0.58595185129E+00 -0.24077773723E+03  0.25070947012E+03  0.00000000000E+00 0.  1.
         11    1    1    2    0    0 -0.45860683052E+02  0.68924502872E+02 -0.13318737811E+03  0.15682049303E+03  0.00000000000E+00 0. -1.
</event>
<event>
 7    1  0.2899775E-009  0.1924518E+03  0.7561462E-02  0.1156268E+00
         -2   -1    0    0    0  501 -0.00000000000E+00  0.00000000000E+00  0.71154894873E+02  0.71154894873E+02  0.00000000000E+00 0.  1.
          2   -1    0    0  501    0  0.00000000000E+00 -0.00000000000E+00 -0.71427816196E+03  0.71427816196E+03  0.00000000000E+00 0. -1.
         25    2    1    2    0    0 -0.90279609956E+02 -0.11670022299E+03 -0.12774901711E+03  0.23181067511E+03  0.12508807979E+03 0.  0.
          5    1    3    3  502    0 -0.95122503291E+02 -0.35047473592E+02 -0.10671748755E+03  0.14725050284E+03  0.41800000000E+01 0. -1.
         -5    1    3    3    0  502  0.48428933349E+01 -0.81652749395E+02 -0.21031529565E+02  0.84560172276E+02  0.41800000000E+01 0. -1.
        -11    1    1    2    0    0  0.84621053263E+01  0.11937998772E+03 -0.28369211003E+03  0.30790323478E+03  0.00000000000E+00 0. -1.
         11    1    1    2    0    0  0.81817504629E+02 -0.26797647358E+01 -0.23168213995E+03  0.24571914694E+03  0.00000000000E+00 0.  1.
</event>
<event>
 7    1  0.2899775E-009  0.1694623E+03  0.7561462E-02  0.1178410E+00
          1   -1    0    0  501    0  0.00000000000E+00  0.00000000000E+00  0.42938780114E+02  0.42938780114E+02  0.00000000000E+00 0. -1.
         -1   -1    0    0    0  501 -0.00000000000E+00 -0.00000000000E+00 -0.81118073705E+03  0.81118073705E+03  0.00000000000E+00 0.  1.
         25    2    1    2    0    0  0.13550030024E+03 -0.56152252507E+02 -0.44213371003E+03  0.48233116193E+03  0.12509086856E+03 0.  0.
          5    1    3    3  502    0 -0.17333580956E+02 -0.79232440110E+01 -0.11098163786E+02  0.22447103685E+02  0.41800000000E+01 0. -1.
         -5    1    3    3    0  502  0.15283388119E+03 -0.48229008496E+02 -0.43103554625E+03  0.45988405825E+03  0.41800000000E+01 0. -1.
        -11    1    1    2    0    0 -0.73648651965E+02  0.62931124447E+02 -0.10847366615E+03  0.14543378771E+03  0.00000000000E+00 0. -1.
         11    1    1    2    0    0 -0.61851648271E+02 -0.67788719397E+01 -0.21763458075E+03  0.22635456752E+03  0.00000000000E+00 0.  1.
</event>
<event>
 7    1  0.2899775E-009  0.1371427E+03  0.7561462E-02  0.1217226E+00
         -1   -1    0    0    0  501 -0.00000000000E+00  0.00000000000E+00  0.34687740492E+03  0.34687740492E+03  0.00000000000E+00 0.  1.
          1   -1    0    0  501    0  0.00000000000E+00 -0.00000000000E+00 -0.95032363558E+02  0.95032363558E+02  0.00000000000E+00 0. -1.
         25    2    1    2    0    0  0.88194009654E+02  0.93753650124E+02  0.21661387858E+03  0.28131136386E+03  0.12508629340E+03 0.  0.
          5    1    3    3  502    0  0.18482533978E+02  0.68393530099E+02  0.24088275025E+02  0.74946623775E+02  0.41800000000E+01 0. -1.
         -5    1    3    3    0  502  0.69711475677E+02  0.25360120025E+02  0.19252560355E+03  0.20636474009E+03  0.41800000000E+01 0. -1.
        -11    1    1    2    0    0 -0.59980216920E+02 -0.69570369708E+02 -0.20020450187E+02  0.94013196886E+02  0.00000000000E+00 0. -1.
         11    1    1    2    0    0 -0.28213792734E+02 -0.24183280417E+02  0.55251612972E+02  0.66585207728E+02  0.00000000000E+00 0.  1.
</event>
<event>
 7    1  0.2899775E-009  0.9827711E+02  0.7561462E-02  0.1283961E+00
          2   -1    0    0  501    0  0.00000000000E+00  0.00000000000E+00  0.25115763423E+03  0.25115763423E+03  0.00000000000E+00 0. -1.
         -2   -1    0    0    0  501 -0.00000000000E+00 -0.00000000000E+00 -0.57419761281E+02  0.57419761281E+02  0.00000000000E+00 0.  1.
         25    2    1    2    0    0 -0.15066880610E+02 -0.46426887997E+02  0.13201619377E+03  0.18830025077E+03  0.12508493995E+03 0.  0.
          5    1    3    3  502    0  0.33791037496E+02 -0.30394842581E+02  0.12875653267E+03  0.13660672668E+03  0.41800000000E+01 0.  1.
         -5    1    3    3    0  502 -0.48857918106E+02 -0.16032045415E+02  0.32596610995E+01  0.51693524085E+02  0.41800000000E+01 0.  1.
        -11    1    1    2    0    0  0.31973135560E+02 -0.15211420638E+02  0.38420165035E+02  0.52247275495E+02  0.00000000000E+00 0. -1.
         11    1    1    2    0    0 -0.16906254950E+02  0.61638308635E+02  0.23301514142E+02  0.68029869242E+02  0.00000000000E+00 0.  1.
</event>
<event>
 6    1  0.2899775E-009  0.8622381E+02  0.7561462E-02  0.1312263E+00
         -2   -1    0    0    0  501 -0.00000000000E+00  0.00000000000E+00  0.21010348821E+02  0.21010348821E+02  0.00000000000E+00 0.  1.
          2   -1    0    0  501    0  0.00000000000E+00 -0.00000000000E+00 -0.14951837118E+04  0.14951837118E+04  0.00000000000E+00 0. -1.
          5    1    1    2  502    0  0.44434278671E+01 -0.27275443681E+02 -0.89612899941E+03  0.89656474940E+03  0.41800000000E+01 0. -1.
         -5    1    1    2    0  502 -0.52921014313E+02  0.53950792266E+02 -0.43324760143E+03  0.43980936585E+03  0.41800000000E+01 0. -1.
        -11    1    1    2    0    0  0.47244079928E+02 -0.54602878293E+01 -0.15048472545E+03  0.15782100755E+03  0.00000000000E+00 0. -1.
         11    1    1    2    0    0  0.12335065184E+01 -0.21215060756E+02  0.56879632651E+01  0.21998937868E+02  0.00000000000E+00 0.  1.
</event>
<event>
 7    1  0.2899775E-009  0.9484669E+02  0.7561462E-02  0.1291522E+00
          2   -1    0    0  501    0  0.00000000000E+00  0.00000000000E+00  0.24488562764E+02  0.24488562764E+02  0.00000000000E+00 0. -1.
         -2   -1    0    0    0  501 -0.00000000000E+00 -0.00000000000E+00 -0.54081291547E+03  0.54081291547E+03  0.00000000000E+00 0.  1.
         25    2    1    2    0    0  0.23618309074E+02  0.25564130632E+02 -0.23596334006E+03  0.26932852981E+03  0.12509120600E+03 0.  0.
          5    1    3    3  502    0 -0.32366161010E+02  0.20354117344E+02 -0.19717927306E+03  0.20089548675E+03  0.41800000000E+01 0.  1.
         -5    1    3    3    0  502  0.55984470085E+02  0.52100132879E+01 -0.38784066995E+02  0.68433043055E+02  0.41800000000E+01 0.  1.
        -11    1    1    2    0    0 -0.14353501257E+02  0.32774655941E+02 -0.10410177445E+03  0.11007897399E+03  0.00000000000E+00 0. -1.
         11    1    1    2    0    0 -0.92648078168E+01 -0.58338786573E+02 -0.17625923819E+03  0.18589397443E+03  0.00000000000E+00 0.  1.
</event>
<event>
 7    1  0.2899775E-009  0.1022886E+03  0.7561462E-02  0.1275556E+00
         -1   -1    0    0    0  501 -0.00000000000E+00  0.00000000000E+00  0.23572683082E+03  0.23572683082E+03  0.00000000000E+00 0.  1.
          1   -1    0    0  501    0  0.00000000000E+00 -0.00000000000E+00 -0.55787710889E+02  0.55787710889E+02  0.00000000000E+00 0. -1.
         25    2    1    2    0    0 -0.40098355867E+02  0.96297195411E+00  0.10385676621E+03  0.16746464091E+03  0.12509745245E+03 0.  0.
          5    1    3    3  502    0 -0.71011371214E+02  0.27180517752E+02  0.27589418954E+02  0.80994097471E+02  0.41800000000E+01 0.  1.
         -5    1    3    3    0  502  0.30913015347E+02 -0.26217545798E+02  0.76267347257E+02  0.86470543442E+02  0.41800000000E+01 0.  1.
        -11    1    1    2    0    0  0.54627589382E+02 -0.24617340127E+02  0.23064387792E+02  0.64203994742E+02  0.00000000000E+00 0. -1.
         11    1    1    2    0    0 -0.14529233515E+02  0.23654368173E+02  0.53017965933E+02  0.59845906057E+02  0.00000000000E+00 0.  1.
</event>
<event>
 7    1  0.2899775E-009  0.1105858E+03  0.7561462E-02  0.1259489E+00
          1   -1    0    0  501    0  0.00000000000E+00  0.00000000000E+00  0.35902939489E+02  0.35902939489E+02  0.00000000000E+00 0. -1.
         -1   -1    0    0    0  501 -0.00000000000E+00 -0.00000000000E+00 -0.40207725935E+03  0.40207725935E+03  0.00000000000E+00 0.  1.
         25    2    1    2    0    0 -0.45238689720E+02  0.25770028036E+02 -0.20595321755E+03  0.24651032731E+03  0.12505990668E+03 0.  0.
          5    1    3    3  502    0 -0.73124345072E+02 -0.68760323206E+01 -0.61920441450E+02  0.96156451329E+02  0.41800000000E+01 0. -1.
         -5    1    3    3    0  502  0.27885655352E+02  0.32646060357E+02 -0.14403277610E+03  0.15035387598E+03  0.41800000000E+01 0. -1.
        -11    1    1    2    0    0  0.42529837347E+02  0.27813031578E+02 -0.69979090869E+02  0.86483668685E+02  0.00000000000E+00 0. -1.
         11    1    1    2    0    0  0.27088523732E+01 -0.53583059614E+02 -0.90242011442E+02  0.10498620285E+03  0.00000000000E+00 0.  1.
</event>
<event>
 7    1  0.2899775E-009  0.1249728E+03  0.7561462E-02  0.1235112E+00
          1   -1    0    0  501    0  0.00000000000E+00  0.00000000000E+00  0.27975082736E+03  0.27975082736E+03  0.00000000000E+00 0. -1.
         -1   -1    0    0    0  501 -0.00000000000E+00 -0.00000000000E+00 -0.92397391538E+02  0.92397391538E+02  0.00000000000E+00 0.  1.
         25    2    1    2    0    0 -0.65573746644E+02 -0.55872340453E+01  0.21387357098E+03  0.25635410169E+03  0.12507752658E+03 0.  0.
          5    1    3    3  502    0  0.31158971706E+02  0.19799159711E+02  0.88085234317E+02  0.95600047844E+02  0.41800000000E+01 0. -1.
         -5    1    3    3    0  502 -0.96732718351E+02 -0.25386393756E+02  0.12578833666E+03  0.16075405385E+03  0.41800000000E+01 0. -1.
        -11    1    1    2    0    0 -0.97711416284E+01  0.31530919647E+02 -0.67862493845E+01  0.33700553158E+02  0.00000000000E+00 0.  1.
         11    1    1    2    0    0  0.75344888273E+02 -0.25943685601E+02 -0.19733885770E+02  0.82093564053E+02  0.00000000000E+00 0. -1.
</event>
<event>
 7    1  0.2899775E-009  0.1173860E+03  0.7561462E-02  0.1247473E+00
          1   -1    0    0  501    0  0.00000000000E+00  0.00000000000E+00  0.28264088902E+03  0.28264088902E+03  0.00000000000E+00 0. -1.
         -1   -1    0    0    0  501 -0.00000000000E+00 -0.00000000000E+00 -0.12159150860E+03  0.12159150860E+03  0.00000000000E+00 0.  1.
         25    2    1    2    0    0  0.38847857961E+02  0.44492608847E+02 -0.58576631227E+02  0.15022335680E+03  0.12508831637E+03 0.  0.
          5    1    3    3  502    0 -0.30022420576E+02  0.33802488428E+02  0.15928703537E+02  0.48116005212E+02  0.41800000000E+01 0. -1.
         -5    1    3    3    0  502  0.68870278536E+02  0.10690120418E+02 -0.74505334764E+02  0.10210735159E+03  0.41800000000E+01 0. -1.
        -11    1    1    2    0    0 -0.54289666373E+02  0.16412858084E+02  0.60502626571E+02  0.82929594279E+02  0.00000000000E+00 0. -1.
         11    1    1    2    0    0  0.15441808412E+02 -0.60905466930E+02  0.15912338508E+03  0.17107944654E+03  0.00000000000E+00 0.  1.
</event>
<event>
 7    1  0.2899775E-009  0.1252644E+03  0.7561462E-02  0.1234657E+00
         -1   -1    0    0    0  501 -0.00000000000E+00  0.00000000000E+00  0.69150313674E+03  0.69150313674E+03  0.00000000000E+00 0.  1.
          1   -1    0    0  501    0  0.00000000000E+00 -0.00000000000E+00 -0.28705582434E+02  0.28705582434E+02  0.00000000000E+00 0. -1.
         25    2    1    2    0    0 -0.88137776853E+02 -0.21394457566E+02  0.37018771780E+03  0.40113900144E+03  0.12509021362E+03 0.  0.
          5    1    3    3  502    0 -0.78831180101E+02  0.25316518061E+02  0.32480499889E+03  0.33521790039E+03  0.41800000000E+01 0. -1.
         -5    1    3    3    0  502 -0.93065967512E+01 -0.46710975627E+02  0.45382718914E+02  0.65921101047E+02  0.41800000000E+01 0. -1.
        -11    1    1    2    0    0  0.26968825393E+02 -0.29697008561E+02  0.15440664010E+03  0.15953256836E+03  0.00000000000E+00 0.  1.
         11    1    1    2    0    0  0.61168951459E+02  0.51091466127E+02  0.13820319641E+03  0.15953714938E+03  0.00000000000E+00 0. -1.
</event>
<event>
 7    1  0.2899775E-009  0.9819724E+02  0.7561462E-02  0.1284133E+00
         -2   -1    0    0    0  501 -0.00000000000E+00  0.00000000000E+00  0.18908058570E+02  0.18908058570E+02  0.00000000000E+00 0.  1.
          2   -1    0    0  501    0  0.00000000000E+00 -0.00000000000E+00 -0.16019281968E+04  0.16019281968E+04  0.00000000000E+00 0. -1.
         25    2    1    2    0    0 -0.57996215113E+02  0.11232365929E+02 -0.14082511348E+04  0.14150300022E+04  0.12509564930E+03 0.  0.
          5    1    3    3  502    0  0.35609919037E+02 -0.16102441414E+02 -0.31835210167E+03  0.32076921297E+03  0.41800000000E+01 0. -1.
         -5    1    3    3    0  502 -0.93606134149E+02  0.27334807343E+02 -0.10898990331E+04  0.10942607892E+04  0.41800000000E+01 0. -1.
        -11    1    1    2    0    0  0.38522303188E+02 -0.10794692385E+02 -0.18098950358E+03  0.18535828450E+03  0.00000000000E+00 0. -1.
         11    1    1    2    0    0  0.19473911924E+02 -0.43767354368E+00  0.62205000842E+01  0.20447968727E+02  0.00000000000E+00 0.  1.
</event>
<event>
 7    1  0.2899775E-009  0.7400797E+02  0.7561462E-02  0.1346971E+00
         -1   -1    0    0    0  501 -0.00000000000E+00  0.00000000000E+00  0.54528404832E+03  0.54528404832E+03  0.00000000000E+00 0.  1.
          1   -1    0    0  501    0  0.00000000000E+00 -0.00000000000E+00 -0.25444217766E+02  0.25444217766E+02  0.00000000000E+00 0. -1.
         25    2    1    2    0    0  0.28872863692E+02  0.31385305605E+02  0.34306133583E+03  0.36763767740E+03  0.12509077519E+03 0.  0.
          5    1    3    3  502    0 -0.89075303778E+01  0.24939339207E+02  0.32312338619E+03  0.32423372718E+03  0.41800000000E+01 0.  1.
         -5    1    3    3    0  502  0.37780394070E+02  0.64459663981E+01  0.19937949638E+02  0.43403950219E+02  0.41800000000E+01 0.  1.
        -11    1    1    2    0    0  0.23483201880E+02 -0.14686380732E+02  0.13500483959E+02  0.30812556153E+02  0.00000000000E+00 0. -1.
         11    1    1    2    0    0 -0.52356065571E+02 -0.16698924873E+02  0.16327801076E+03  0.17227803253E+03  0.00000000000E+00 0.  1.
</event>
<event>
 7    1  0.2899775E-009  0.1105244E+03  0.7561462E-02  0.1259602E+00
          2   -1    0    0  501    0  0.00000000000E+00  0.00000000000E+00  0.10748386309E+03  0.10748386309E+03  0.00000000000E+00 0. -1.
         -2   -1    0    0    0  501 -0.00000000000E+00 -0.00000000000E+00 -0.14252502159E+03  0.14252502159E+03  0.00000000000E+00 0.  1.
         25    2    1    2    0    0 -0.55102853324E+02  0.15338210824E+02 -0.52529079154E+02  0.14723586758E+03  0.12509001315E+03 0.  0.
          5    1    3    3  502    0 -0.57870113283E+02 -0.42295038610E+02 -0.53231800654E+02  0.89380743470E+02  0.41800000000E+01 0.  1.
         -5    1    3    3    0  502  0.27672599592E+01  0.57633249435E+02  0.70272150017E+00  0.57855124108E+02  0.41800000000E+01 0.  1.
        -11    1    1    2    0    0  0.61611136328E+01  0.26378863170E+02 -0.14741439978E+02  0.30840132879E+02  0.00000000000E+00 0.  1.
         11    1    1    2    0    0  0.48941739691E+02 -0.41717073994E+02  0.32229360627E+02  0.71932884226E+02  0.00000000000E+00 0. -1.
</event>
<event>
 7    1  0.2899775E-009  0.1186135E+03  0.7561462E-02  0.1245402E+00
         -2   -1    0    0    0  501 -0.00000000000E+00  0.00000000000E+00  0.35401155210E+02  0.35401155210E+02  0.00000000000E+00 0.  1.
          2   -1    0    0  501    0  0.00000000000E+00 -0.00000000000E+00 -0.59514411490E+03  0.59514411490E+03  0.00000000000E+00 0. -1.
         25    2    1    2    0    0  0.63241755723E+02  0.57366369457E+02 -0.40079345434E+03  0.42845453586E+03  0.12508987268E+03 0.  0.
          5    1    3    3  502    0 -0.30716452506E+02 -0.96239837023E+01 -0.54689550731E+02  0.63596704914E+02  0.41800000000E+01 0. -1.
         -5    1    3    3    0  502  0.93958208229E+02  0.66990353159E+02 -0.34610390361E+03  0.36485783095E+03  0.41800000000E+01 0. -1.
        -11    1    1    2    0    0 -0.44887757832E+01 -0.18059011996E+02  0.84054887555E+01  0.20418845794E+02  0.00000000000E+00 0.  1.
         11    1    1    2    0    0 -0.58752979940E+02 -0.39307357460E+02 -0.16735499410E+03  0.18167188845E+03  0.00000000000E+00 0. -1.
</event>
<event>
 7    1  0.2899775E-009  0.1246351E+03  0.7561462E-02  0.1235641E+00
          1   -1    0    0  501    0  0.00000000000E+00  0.00000000000E+00  0.15124168125E+03  0.15124168125E+03  0.00000000000E+00 0. -1.
         -1   -1    0    0    0  501 -0.00000000000E+00 -0.00000000000E+00 -0.10568471932E+03  0.10568471932E+03  0.00000000000E+00 0.  1.
         25    2    1    2    0    0  0.16569750347E+02 -0.66344655284E+02  0.28148392999E+02  0.14529237330E+03  0.12506547005E+03 0.  0.
          5    1    3    3  502    0  0.68876428405E+02 -0.26988791725E+02  0.29335407128E+02  0.79689370558E+02  0.41800000000E+01 0. -1.
         -5    1    3    3    0  502 -0.52306678058E+02 -0.39355863558E+02 -0.11870141290E+01  0.65603002740E+02  0.41800000000E+01 0. -1.
        -11    1    1    2    0    0 -0.33236593512E+02 -0.73408287470E+01  0.11197875168E+02  0.35832266510E+02  0.00000000000E+00 0.  1.
         11    1    1    2    0    0  0.16666843165E+02  0.73685484031E+02  0.62106937597E+01  0.75801760764E+02  0.00000000000E+00 0. -1.
</event>
<event>
 7    1  0.2899775E-009  0.1271847E+03  0.7561462E-02  0.1231694E+00
         -1   -1    0    0    0  501 -0.00000000000E+00  0.00000000000E+00  0.84217297490E+02  0.84217297490E+02  0.00000000000E+00 0.  1.
          1   -1    0    0  501    0  0.00000000000E+00 -0.00000000000E+00 -0.21993435455E+03  0.21993435455E+03  0.00000000000E+00 0. -1.
         25    2    1    2    0    0 -0.63151302057E+02  0.34296051293E+02 -0.28638752083E+02  0.14707913610E+03  0.12509111906E+03 0.  0.
          5    1    3    3  502    0  0.33062214707E+02 -0.84195724086E+01 -0.23429007242E+02  0.41597956936E+02  0.41800000000E+01 0. -1.
         -5    1    3    3    0  502 -0.96213516765E+02  0.42715623701E+02 -0.52097448414E+01  0.10548117916E+03  0.41800000000E+01 0. -1.
        -11    1    1    2    0    0  0.16653720184E+02 -0.59478124065E+02 -0.63063982980E+02  0.88272643483E+02  0.00000000000E+00 0. -1.
         11    1    1    2    0    0  0.46497581873E+02  0.25182072773E+02 -0.44014321997E+02  0.68799872457E+02  0.00000000000E+00 0.  1.
</event>
<event>
 7    1  0.2899775E-009  0.9532314E+02  0.7561462E-02  0.1290450E+00
         -1   -1    0    0    0  501 -0.00000000000E+00  0.00000000000E+00  0.23751638901E+02  0.23751638901E+02  0.00000000000E+00 0.  1.
          1   -1    0    0  501    0  0.00000000000E+00 -0.00000000000E+00 -0.60176174714E+03  0.60176174714E+03  0.00000000000E+00 0. -1.
         25    2    1    2    0    0  0.35051813840E+02  0.10837512176E+02 -0.23446318314E+03  0.26826556118E+03  0.12508935105E+03 0.  0.
          5    1    3    3  502    0 -0.16008400267E+02  0.35759067738E+02 -0.16050488536E+02  0.42544921987E+02  0.41800000000E+01 0. -1.
         -5    1    3    3    0  502  0.51060214107E+02 -0.24921555562E+02 -0.21841269460E+03  0.22572063920E+03  0.41800000000E+01 0. -1.
        -11    1    1    2    0    0  0.17864839407E+02 -0.32506895490E+02 -0.90218669291E+02  0.97546189214E+02  0.00000000000E+00 0. -1.
         11    1    1    2    0    0 -0.52916653247E+02  0.21669383314E+02 -0.25332825581E+03  0.25970163564E+03  0.00000000000E+00 0.  1.
</event>
<event>
 7    1  0.2899775E-009  0.1629931E+03  0.7561462E-02  0.1185358E+00
          2   -1    0    0  501    0  0.00000000000E+00  0.00000000000E+00  0.29150689005E+03  0.29150689005E+03  0.00000000000E+00 0. -1.
         -2   -1    0    0    0  501 -0.00000000000E+00 -0.00000000000E+00 -0.99084249361E+02  0.99084249361E+02  0.00000000000E+00 0.  1.
         25    2    1    2    0    0 -0.10894299665E+03  0.61810358638E+02  0.54039376435E+02  0.18508186102E+03  0.12508374842E+03 0.  0.
          5    1    3    3  502    0 -0.13350214454E+03  0.67529197168E+02  0.36414593646E+02  0.15403411991E+03  0.41800000000E+01 0. -1.
         -5    1    3    3    0  502  0.24559147895E+02 -0.57188385298E+01  0.17624782789E+02  0.31047741106E+02  0.41800000000E+01 0. -1.
        -11    1    1    2    0    0  0.79090211446E+02  0.32696826441E+01  0.59859324531E+02  0.99242587151E+02  0.00000000000E+00 0.  1.
         11    1    1    2    0    0  0.29852785202E+02 -0.65080041282E+02  0.78523939728E+02  0.10626669124E+03  0.00000000000E+00 0. -1.
</event>
<event>
 7    1  0.2899775E-009  0.8998044E+02  0.7561462E-02  0.1302899E+00
         -2   -1    0    0    0  501 -0.00000000000E+00  0.00000000000E+00  0.40890889242E+02  0.40890889242E+02  0.00000000000E+00 0.  1.
          2   -1    0    0  501    0  0.00000000000E+00 -0.00000000000E+00 -0.32031116846E+03  0.32031116846E+03  0.00000000000E+00 0. -1.
         25    2    1    2    0    0 -0.22565952802E+02  0.26089819712E+02 -0.16302061259E+03  0.20835691226E+03  0.12508789644E+03 0.  0.
          5    1    3    3  502    0  0.32230953294E+01  0.56144371306E+02 -0.15855525947E+03  0.16828494133E+03  0.41800000000E+01 0.  1.
         -5    1    3    3    0  502 -0.25789048132E+02 -0.30054551595E+02 -0.44653531188E+01  0.40071970922E+02  0.41800000000E+01 0.  1.
        -11    1    1    2    0    0 -0.20329401809E+01  0.26032158429E+02 -0.81237654423E+02  0.85330900701E+02  0.00000000000E+00 0. -1.
         11    1    1    2    0    0  0.24598892983E+02 -0.52121978141E+02 -0.35162012199E+02  0.67514244743E+02  0.00000000000E+00 0.  1.
</event>
<event>
 7    1  0.2899775E-009  0.2973563E+03  0.7561462E-02  0.1086570E+00
         -3   -1    0    0    0  501 -0.00000000000E+00  0.00000000000E+00  0.68324180813E+03  0.68324180813E+03  0.00000000000E+00 0.  1.
          3   -1    0    0  501    0  0.00000000000E+00 -0.00000000000E+00 -0.14988833402E+03  0.14988833402E+03  0.00000000000E+00 0. -1.
         25    2    1    2    0    0  0.25970049512E+03  0.13264403602E+03  0.18023603910E+03  0.36492677529E+03  0.12509090325E+03 0.  0.
          5    1    3    3  502    0  0.25904008402E+03  0.11879628930E+03  0.13113037238E+03  0.31373072919E+03  0.41800000000E+01 0.  1.
         -5    1    3    3    0  502  0.66041110093E+00  0.13847746725E+02  0.49105666716E+02  0.51196046096E+02  0.41800000000E+01 0.  1.
        -11    1    1    2    0    0 -0.80880103988E+02 -0.18164136107E+02  0.45902247417E+02  0.94755176004E+02  0.00000000000E+00 0. -1.
         11    1    1    2    0    0 -0.17882039113E+03 -0.11447989991E+03  0.30721518759E+03  0.37344819086E+03  0.00000000000E+00 0.  1.
</event>
<event>
 7    1  0.2899775E-009  0.2373241E+03  0.7561462E-02  0.1121588E+00
          2   -1    0    0  501    0  0.00000000000E+00  0.00000000000E+00  0.10553737793E+04  0.10553737793E+04  0.00000000000E+00 0. -1.
         -2   -1    0    0    0  501 -0.00000000000E+00 -0.00000000000E+00 -0.69750771575E+02  0.69750771575E+02  0.00000000000E+00 0.  1.
         25    2    1    2    0    0  0.22846334141E+03 -0.17018421218E+02  0.31446714009E+03  0.40868576853E+03  0.12509736276E+03 0.  0.
          5    1    3    3  502    0  0.20528557229E+03 -0.10048439804E+02  0.18389099430E+03  0.27581970110E+03  0.41800000000E+01 0.  1.
         -5    1    3    3    0  502  0.23177769123E+02 -0.69699814140E+01  0.13057614579E+03  0.13286606742E+03  0.41800000000E+01 0.  1.
        -11    1    1    2    0    0 -0.57198868282E+02 -0.33074623687E+02  0.11831949871E+03  0.13551806167E+03  0.00000000000E+00 0. -1.
         11    1    1    2    0    0 -0.17126447313E+03  0.50093044904E+02  0.55283636891E+03  0.58092072066E+03  0.00000000000E+00 0.  1.
</event>
<event>
 7    1  0.2899775E-009  0.1371748E+03  0.7561462E-02  0.1217182E+00
          2   -1    0    0  501    0  0.00000000000E+00  0.00000000000E+00  0.44776916517E+03  0.44776916517E+03  0.00000000000E+00 0. -1.
         -2   -1    0    0    0  501 -0.00000000000E+00 -0.00000000000E+00 -0.54504209483E+02  0.54504209483E+02  0.00000000000E+00 0.  1.
         25    2    1    2    0    0 -0.29644975957E+02 -0.98189663668E+02  0.30572079142E+03  0.34588044840E+03  0.12509215653E+03 0.  0.
          5    1    3    3  502    0 -0.82873352203E+01  0.27908763252E+02  0.93999356946E+02  0.98493301791E+02  0.41800000000E+01 0. -1.
         -5    1    3    3    0  502 -0.21357640736E+02 -0.12609842692E+03  0.21172143447E+03  0.24738714660E+03  0.41800000000E+01 0. -1.
        -11    1    1    2    0    0 -0.10414018604E+02  0.62381660151E+02  0.13105523573E+02  0.64588528817E+02  0.00000000000E+00 0.  1.
         11    1    1    2    0    0  0.40058994560E+02  0.35808003517E+02  0.74438640696E+02  0.91804397442E+02  0.00000000000E+00 0. -1.
</event>
<event>
 7    1  0.2899775E-009  0.1196668E+03  0.7561462E-02  0.1243648E+00
         -1   -1    0    0    0  501 -0.00000000000E+00  0.00000000000E+00  0.20272768846E+03  0.20272768846E+03  0.00000000000E+00 0.  1.
          1   -1    0    0  501    0  0.00000000000E+00 -0.00000000000E+00 -0.14053832354E+03  0.14053832354E+03  0.00000000000E+00 0. -1.
         25    2    1    2    0    0  0.18288513210E+02 -0.59183635754E+02 -0.79791158709E+02  0.16078438961E+03  0.12509124061E+03 0.  0.
          5    1    3    3  502    0  0.62369276607E+02 -0.68588055021E+02 -0.64468361403E+02  0.11299508829E+03  0.41800000000E+01 0.  1.
         -5    1    3    3    0  502 -0.44080763397E+02  0.94044192673E+01 -0.15322797305E+02  0.47789301320E+02  0.41800000000E+01 0.  1.
        -11    1    1    2    0    0  0.18048004276E+02 -0.11773201870E+02  0.76009939729E+02  0.79005377528E+02  0.00000000000E+00 0.  1.
         11    1    1    2    0    0 -0.36336517486E+02  0.70956837625E+02  0.65970583902E+02  0.10347624485E+03  0.00000000000E+00 0. -1.
</event>
<event>
 7    1  0.2899775E-009  0.1030718E+03  0.7561462E-02  0.1273966E+00
          2   -1    0    0  501    0  0.00000000000E+00  0.00000000000E+00  0.14969136396E+04  0.14969136396E+04  0.00000000000E+00 0. -1.
         -2   -1    0    0    0  501 -0.00000000000E+00 -0.00000000000E+00 -0.10994047162E+02  0.10994047162E+02  0.00000000000E+00 0.  1.
         25    2    1    2    0    0  0.33482368196E+02 -0.29033063459E+02  0.11232648612E+04  0.11310775507E+04  0.12509392342E+03 0.  0.
          5    1    3    3  502    0  0.58498879306E+02 -0.48072108417E+02  0.40042256152E+03  0.40753987126E+03  0.41800000000E+01 0. -1.
         -5    1    3    3    0  502 -0.25016511110E+02  0.19039044958E+02  0.72284229963E+03  0.72353767946E+03  0.41800000000E+01 0. -1.
        -11    1    1    2    0    0  0.28248937682E+02 -0.40858335762E+01  0.15693634157E+03  0.15951085174E+03  0.00000000000E+00 0.  1.
         11    1    1    2    0    0 -0.61731305877E+02  0.33118897035E+02  0.20571838970E+03  0.21731928429E+03  0.00000000000E+00 0. -1.
</event>
<event>
 7    1  0.2899775E-009  0.9883648E+02  0.7561462E-02  0.1282762E+00
         -1   -1    0    0    0  501 -0.00000000000E+00  0.00000000000E+00  0.53949896870E+02  0.53949896870E+02  0.00000000000E+00 0.  1.
          1   -1    0    0  501    0  0.00000000000E+00 -0.00000000000E+00 -0.25623045136E+03  0.25623045136E+03  0.00000000000E+00 0. -1.
         25    2    1    2    0    0  0.10383971762E+02  0.15213367767E+02 -0.16673110866E+03  0.20925210060E+03  0.12509158877E+03 0.  0.
          5    1    3    3  502    0  0.54083049074E+02 -0.25695809955E+02 -0.11627247017E+03  0.13085110075E+03  0.41800000000E+01 0.  1.
         -5    1    3    3    0  502 -0.43699077312E+02  0.40909177722E+02 -0.50458638484E+02  0.78400999850E+02  0.41800000000E+01 0.  1.
        -11    1    1    2    0    0 -0.42654498479E+02 -0.17845959284E+01  0.96714986980E+01  0.43773609746E+02  0.00000000000E+00 0. -1.
         11    1    1    2    0    0  0.32270526717E+02 -0.13428771839E+02 -0.45220944529E+02  0.57154637885E+02  0.00000000000E+00 0.  1.
</event>
<event>
 7    1  0.2899775E-009  0.1029903E+03  0.7561462E-02  0.1274131E+00
          3   -1    0    0  501    0  0.00000000000E+00  0.00000000000E+00  0.29096851398E+03  0.29096851398E+03  0.00000000000E+00 0. -1.
         -3   -1    0    0    0  501 -0.00000000000E+00 -0.00000000000E+00 -0.46078103109E+02  0.46078103109E+02  0.00000000000E+00 0.  1.
         25    2    1    2    0    0 -0.25714815001E+02  0.10567058042E+02  0.14147534165E+03  0.19087975182E+03  0.12508754108E+03 0.  0.
          5    1    3    3  502    0 -0.82765705726E+00  0.62506430873E+02  0.40633182898E+02  0.74674405716E+02  0.41800000000E+01 0. -1.
         -5    1    3    3    0  502 -0.24887157944E+02 -0.51939372831E+02  0.10084215875E+03  0.11620534610E+03  0.41800000000E+01 0. -1.
        -11    1    1    2    0    0 -0.29389510510E+02  0.43018049603E+00  0.10713787928E+01  0.29412178359E+02  0.00000000000E+00 0.  1.
         11    1    1    2    0    0  0.55104325512E+02 -0.10997238538E+02  0.10234369042E+03  0.11675468691E+03  0.00000000000E+00 0. -1.
</event>
<event>
 7    1  0.2899775E-009  0.1172926E+03  0.7561462E-02  0.1247631E+00
         -2   -1    0    0    0  501 -0.00000000000E+00  0.00000000000E+00  0.92996493038E+02  0.92996493038E+02  0.00000000000E+00 0.  1.
          2   -1    0    0  501    0  0.00000000000E+00 -0.00000000000E+00 -0.15913482044E+03  0.15913482044E+03  0.00000000000E+00 0. -1.
         25    2    1    2    0    0  0.44757065491E+02 -0.32596569418E+02 -0.44037948729E+02  0.14370979669E+03  0.12508970176E+03 0.  0.
          5    1    3    3  502    0  0.53037687744E+02 -0.72838184722E+02 -0.11086692266E+02  0.90877855500E+02  0.41800000000E+01 0. -1.
         -5    1    3    3    0  502 -0.82806222535E+01  0.40241615304E+02 -0.32951256463E+02  0.52831941188E+02  0.41800000000E+01 0. -1.
        -11    1    1    2    0    0 -0.55150065132E+02  0.55312357207E+02 -0.27602137766E+02  0.82842407938E+02  0.00000000000E+00 0. -1.
         11    1    1    2    0    0  0.10392999641E+02 -0.22715787788E+02  0.55017590957E+01  0.25579108849E+02  0.00000000000E+00 0.  1.
</event>
<event>
 7    1  0.2899775E-009  0.1232506E+03  0.7561462E-02  0.1237829E+00
         -2   -1    0    0    0  501 -0.00000000000E+00  0.00000000000E+00  0.10738647368E+03  0.10738647368E+03  0.00000000000E+00 0.  1.
          2   -1    0    0  501    0  0.00000000000E+00 -0.00000000000E+00 -0.21729258502E+03  0.21729258502E+03  0.00000000000E+00 0. -1.
         25    2    1    2    0    0  0.51662167597E+02  0.78009469111E+02 -0.64553676766E+01  0.15634647817E+03  0.12509233642E+03 0.  0.
          5    1    3    3  502    0  0.57078850575E+01  0.92345127853E+02 -0.36387177058E+02  0.99507294428E+02  0.41800000000E+01 0.  1.
         -5    1    3    3    0  502  0.45954282540E+02 -0.14335658743E+02  0.29931809382E+02  0.56839183740E+02  0.41800000000E+01 0.  1.
        -11    1    1    2    0    0 -0.61362126549E+02 -0.68829075768E+02 -0.35061086563E+02  0.98651062015E+02  0.00000000000E+00 0.  1.
         11    1    1    2    0    0  0.96999589515E+01 -0.91803933426E+01 -0.68389657098E+02  0.69681518523E+02  0.00000000000E+00 0. -1.
</event>
<event>
 7    1  0.2899775E-009  0.1530902E+03  0.7561462E-02  0.1196726E+00
          2   -1    0    0  501    0  0.00000000000E+00  0.00000000000E+00  0.41265859178E+03  0.41265859178E+03  0.00000000000E+00 0. -1.
         -2   -1    0    0    0  501 -0.00000000000E+00 -0.00000000000E+00 -0.10969480635E+03  0.10969480635E+03  0.00000000000E+00 0.  1.
         25    2    1    2    0    0  0.35884636787E+02  0.12441377772E+03  0.31461850840E+03  0.36249076415E+03  0.12509297751E+03 0.  0.
          5    1    3    3  502    0  0.75523193574E+02  0.46889978450E+02  0.12145948318E+03  0.15057324231E+03  0.41800000000E+01 0.  1.
         -5    1    3    3    0  502 -0.39638556787E+02  0.77523799274E+02  0.19315902522E+03  0.21191752184E+03  0.41800000000E+01 0.  1.
        -11    1    1    2    0    0 -0.32040359712E+02 -0.92917761256E+02 -0.49851193879E+02  0.11020633620E+03  0.00000000000E+00 0.  1.
         11    1    1    2    0    0 -0.38442770756E+01 -0.31496016468E+02  0.38196470903E+02  0.49656297778E+02  0.00000000000E+00 0. -1.
</event>
<event>
 7    1  0.2899775E-009  0.1617007E+03  0.7561462E-02  0.1186790E+00
          2   -1    0    0  501    0  0.00000000000E+00  0.00000000000E+00  0.52482017492E+03  0.52482017492E+03  0.00000000000E+00 0. -1.
         -2   -1    0    0    0  501 -0.00000000000E+00 -0.00000000000E+00 -0.54942186935E+02  0.54942186935E+02  0.00000000000E+00 0.  1.
         25    2    1    2    0    0  0.62609119551E+02  0.11233705074E+03  0.27417308133E+03  0.32765581605E+03  0.12509172811E+03 0.  0.
          5    1    3    3  502    0  0.21869896073E+02  0.12607247260E+03  0.15582696686E+03  0.20167319282E+03  0.41800000000E+01 0.  1.
         -5    1    3    3    0  502  0.40739223477E+02 -0.13735421865E+02  0.11834611448E+03  0.12598262323E+03  0.41800000000E+01 0.  1.
        -11    1    1    2    0    0 -0.81666404928E+02 -0.10144480372E+03  0.13510380627E+03  0.18765257356E+03  0.00000000000E+00 0.  1.
         11    1    1    2    0    0  0.19057285378E+02 -0.10892247015E+02  0.60601100380E+02  0.64453972246E+02  0.00000000000E+00 0. -1.
</event>
<event>
 7    1  0.2899775E-009  0.1280578E+03  0.7561462E-02  0.1230366E+00
         -2   -1    0    0    0  501 -0.00000000000E+00  0.00000000000E+00  0.66776607739E+02  0.66776607739E+02  0.00000000000E+00 0.  1.
          2   -1    0    0  501    0  0.00000000000E+00 -0.00000000000E+00 -0.24955373541E+03  0.24955373541E+03  0.00000000000E+00 0. -1.
         25    2    1    2    0    0 -0.62775356807E+02  0.30262470633E+02 -0.87757312149E+02  0.16793956318E+03  0.12508312633E+03 0.  0.
          5    1    3    3  502    0 -0.88392528603E+02 -0.16104830473E+02 -0.58236778792E+02  0.10715222574E+03  0.41800000000E+01 0.  1.
         -5    1    3    3    0  502  0.25617171796E+02  0.46367301106E+02 -0.29520533357E+02  0.60787337434E+02  0.41800000000E+01 0.  1.
        -11    1    1    2    0    0 -0.22027233043E+02 -0.15551064171E+02 -0.14922460841E+02  0.30817437108E+02  0.00000000000E+00 0. -1.
         11    1    1    2    0    0  0.84802589850E+02 -0.14711406462E+02 -0.80097354676E+02  0.11757334286E+03  0.00000000000E+00 0.  1.
</event>
<event>
 7    1  0.2899775E-009  0.1186558E+03  0.7561462E-02  0.1245331E+00
         -4   -1    0    0    0  501 -0.00000000000E+00  0.00000000000E+00  0.94743280023E+02  0.94743280023E+02  0.00000000000E+00 0.  1.
          4   -1    0    0  501    0  0.00000000000E+00 -0.00000000000E+00 -0.28462464143E+03  0.28462464143E+03  0.00000000000E+00 0. -1.
         25    2    1    2    0    0 -0.82988045668E+02 -0.63046155148E+00 -0.20818558744E+03  0.25665809095E+03  0.12507886962E+03 0.  0.
          5    1    3    3  502    0  0.14608726638E+02  0.25520517231E+02 -0.11626334432E+03  0.11999728883E+03  0.41800000000E+01 0.  1.
         -5    1    3    3    0  502 -0.97596772305E+02 -0.26150978782E+02 -0.91922243120E+02  0.13666080212E+03  0.41800000000E+01 0.  1.
        -11    1    1    2    0    0 -0.40506023002E+01 -0.17172036004E+02  0.28257652165E+02  0.33313377274E+02  0.00000000000E+00 0.  1.
         11    1    1    2    0    0  0.87038647968E+02  0.17802497555E+02 -0.99534261361E+01  0.89396453236E+02  0.00000000000E+00 0. -1.
</event>
<event>
 7    1  0.3627451E-009  0.1687068E+03  0.7561462E-02  0.1179203E+00
         -1   -1    0    0    0  501 -0.00000000000E+00  0.00000000000E+00  0.12248002180E+03  0.12248002180E+03  0.00000000000E+00 0.  1.
          1   -1    0    0  501    0  0.00000000000E+00 -0.00000000000E+00 -0.27311025016E+03  0.27311025016E+03  0.00000000000E+00 0. -1.
         25    2    1    2    0    0  0.59982628929E+02 -0.13341515900E+03 -0.66507596666E+02  0.20363754601E+03  0.12508984493E+03 0.  0.
          5    1    3    3  502    0 -0.19647128137E+02 -0.40706126153E+02 -0.67507708808E+02  0.81349625070E+02  0.41800000000E+01 0.  1.
         -5    1    3    3    0  502  0.79629757066E+02 -0.92709032850E+02  0.10001121427E+01  0.12228792094E+03  0.41800000000E+01 0.  1.
        -11    1    1    2    0    0 -0.58696935514E+02  0.29280708116E+02 -0.16030403928E+02  0.67525283833E+02  0.00000000000E+00 0. -1.
         11    1    1    2    0    0 -0.12856934144E+01  0.10413445089E+03 -0.68092227769E+02  0.12442744212E+03  0.00000000000E+00 0.  1.
</event>
<event>
 7    1  0.2899775E-009  0.2433646E+03  0.7561462E-02  0.1117572E+00
          2   -1    0    0  501    0  0.00000000000E+00  0.00000000000E+00  0.18225698066E+04  0.18225698066E+04  0.00000000000E+00 0. -1.
         -2   -1    0    0    0  501 -0.00000000000E+00 -0.00000000000E+00 -0.77432907470E+02  0.77432907470E+02  0.00000000000E+00 0.  1.
         25    2    1    2    0    0  0.76498498137E+02  0.21503247450E+03  0.15870513591E+04  0.16082495207E+04  0.12507405524E+03 0.  0.
          5    1    3    3  502    0 -0.28111089021E+02  0.86364638545E+02  0.69313008269E+03  0.69906785654E+03  0.41800000000E+01 0. -1.
         -5    1    3    3    0  502  0.10460958716E+03  0.12866783595E+03  0.89392127637E+03  0.90918166418E+03  0.41800000000E+01 0. -1.
        -11    1    1    2    0    0 -0.30299014964E+02 -0.49198982819E+02  0.89317163793E+02  0.10637728125E+03  0.00000000000E+00 0. -1.
         11    1    1    2    0    0 -0.46199483173E+02 -0.16583349168E+03  0.68768376266E+02  0.18537591209E+03  0.00000000000E+00 0.  1.
</event>
<event>
 7    1  0.2899775E-009  0.1887805E+03  0.7561462E-02  0.1159566E+00
          1   -1    0    0  501    0  0.00000000000E+00  0.00000000000E+00  0.18440307496E+03  0.18440307496E+03  0.00000000000E+00 0. -1.
         -1   -1    0    0    0  501 -0.00000000000E+00 -0.00000000000E+00 -0.27975227132E+03  0.27975227132E+03  0.00000000000E+00 0.  1.
         25    2    1    2    0    0 -0.10779994079E+03  0.14858195188E+03  0.29775623443E+02  0.22412419098E+03  0.12509053351E+03 0.  0.
          5    1    3    3  502    0 -0.15759527974E+02  0.54276244056E+02 -0.45167955261E+02  0.72469924612E+02  0.41800000000E+01 0. -1.
         -5    1    3    3    0  502 -0.92040412813E+02  0.94305707824E+02  0.74943578704E+02  0.15165426637E+03  0.41800000000E+01 0. -1.
        -11    1    1    2    0    0  0.97891588359E+02 -0.10181496443E+03 -0.47777773086E+02  0.14910320471E+03  0.00000000000E+00 0. -1.
         11    1    1    2    0    0  0.99083524282E+01 -0.46766987452E+02 -0.77347046717E+02  0.90927950593E+02  0.00000000000E+00 0.  1.
</event>
<event>
 7    1  0.2899775E-009  0.1476832E+03  0.7561462E-02  0.1203349E+00
          2   -1    0    0  501    0  0.00000000000E+00  0.00000000000E+00  0.83238202933E+03  0.83238202933E+03  0.00000000000E+00 0. -1.
         -2   -1    0    0    0  501 -0.00000000000E+00 -0.00000000000E+00 -0.30310735316E+02  0.30310735316E+02  0.00000000000E+00 0.  1.
         25    2    1    2    0    0 -0.49902215961E+02  0.75469595054E+02  0.26332456910E+03  0.30524460712E+03  0.12509416673E+03 0.  0.
          5    1    3    3  502    0 -0.68453377960E+02 -0.58940298013E+01  0.94929205257E+02  0.11725882036E+03  0.41800000000E+01 0. -1.
         -5    1    3    3    0  502  0.18551161999E+02  0.81363624855E+02  0.16839536384E+03  0.18798578676E+03  0.41800000000E+01 0. -1.
        -11    1    1    2    0    0  0.76850664447E+02 -0.84814964799E+02  0.41893486782E+03  0.43428795327E+03  0.00000000000E+00 0.  1.
         11    1    1    2    0    0 -0.26948448486E+02  0.93453697454E+01  0.11981185710E+03  0.12316020426E+03  0.00000000000E+00 0. -1.
</event>
<event>
 7    1  0.2899775E-009  0.1198053E+03  0.7561462E-02  0.1243419E+00
         -2   -1    0    0    0  501 -0.00000000000E+00  0.00000000000E+00  0.81768415509E+02  0.81768415509E+02  0.00000000000E+00 0. -1.
          2   -1    0    0  501    0  0.00000000000E+00 -0.00000000000E+00 -0.24386113134E+03  0.24386113134E+03  0.00000000000E+00 0.  1.
         25    2    1    2    0    0 -0.13179984468E+02  0.64783326593E+02 -0.18112727748E+02  0.14263835130E+03  0.12508811679E+03 0.  0.
          5    1    3    3  502    0  0.48365178720E+02  0.58716993751E+02  0.53215008638E+01  0.76371896921E+02  0.41800000000E+01 0.  1.
         -5    1    3    3    0  502 -0.61545163188E+02  0.60663328425E+01 -0.23434228612E+02  0.66266454384E+02  0.41800000000E+01 0.  1.
        -11    1    1    2    0    0 -0.26443590718E+02 -0.54387389039E+02 -0.12278079415E+03  0.13686626680E+03  0.00000000000E+00 0. -1.
         11    1    1    2    0    0  0.39623575186E+02 -0.10395937554E+02 -0.21199193938E+02  0.46124928745E+02  0.00000000000E+00 0.  1.
</event>
<event>
 7    1  0.2899775E-009  0.2291588E+03  0.7561462E-02  0.1127233E+00
         -1   -1    0    0    0  501 -0.00000000000E+00  0.00000000000E+00  0.79236181174E+02  0.79236181174E+02  0.00000000000E+00 0.  1.
          1   -1    0    0  501    0  0.00000000000E+00 -0.00000000000E+00 -0.10926691258E+04  0.10926691258E+04  0.00000000000E+00 0. -1.
         25    2    1    2    0    0  0.89469850795E+02 -0.19976632682E+03 -0.19118986729E+03  0.31640461713E+03  0.12508747681E+03 0.  0.
          5    1    3    3  502    0  0.91823295207E+02 -0.15119923213E+03 -0.19975396476E+03  0.26685547432E+03  0.41800000000E+01 0.  1.
         -5    1    3    3    0  502 -0.23534444116E+01 -0.48567094695E+02  0.85640974708E+01  0.49549142810E+02  0.41800000000E+01 0.  1.
        -11    1    1    2    0    0 -0.84776891062E+02  0.93555434953E+02 -0.51990759339E+03  0.53501742620E+03  0.00000000000E+00 0. -1.
         11    1    1    2    0    0 -0.46929597333E+01  0.10621089187E+03 -0.30233548392E+03  0.32048326361E+03  0.00000000000E+00 0.  1.
</event>
<event>
 7    1  0.2899775E-009  0.8515218E+02  0.7561462E-02  0.1315035E+00
          3   -1    0    0  501    0  0.00000000000E+00  0.00000000000E+00  0.51343720678E+02  0.51343720678E+02  0.00000000000E+00 0. -1.
         -3   -1    0    0    0  501 -0.00000000000E+00 -0.00000000000E+00 -0.24300862789E+03  0.24300862789E+03  0.00000000000E+00 0.  1.
         25    2    1    2    0    0  0.76472081236E+01  0.47731288291E+01 -0.76510941429E+02  0.14691028218E+03  0.12508974499E+03 0.  0.
          5    1    3    3  502    0  0.27598671804E+02 -0.36165099277E+02 -0.88531930014E+02  0.99624174391E+02  0.41800000000E+01 0.  1.
         -5    1    3    3    0  502 -0.19951463680E+02  0.40938228106E+02  0.12020988585E+02  0.47286107791E+02  0.41800000000E+01 0.  1.
        -11    1    1    2    0    0 -0.42299199888E+02  0.57133051235E+01 -0.23118908160E+02  0.48542229874E+02  0.00000000000E+00 0. -1.
         11    1    1    2    0    0  0.34651991765E+02 -0.10486433953E+02 -0.92035057626E+02  0.98899836515E+02  0.00000000000E+00 0.  1.
</event>
<event>
 7    1  0.2899775E-009  0.1189643E+03  0.7561462E-02  0.1244815E+00
          2   -1    0    0  501    0  0.00000000000E+00  0.00000000000E+00  0.82375864699E+03  0.82375864699E+03  0.00000000000E+00 0. -1.
         -2   -1    0    0    0  501 -0.00000000000E+00 -0.00000000000E+00 -0.42520001394E+02  0.42520001394E+02  0.00000000000E+00 0.  1.
         25    2    1    2    0    0  0.79741854610E+02 -0.52490937166E+02  0.66749716316E+03  0.68579428989E+03  0.12508910166E+03 0.  0.
          5    1    3    3  502    0  0.10332597449E+02 -0.25164786248E+02  0.20051871832E+02  0.34052591691E+02  0.41800000000E+01 0.  1.
         -5    1    3    3    0  502  0.69409257161E+02 -0.27326150919E+02  0.64744529133E+03  0.65174169820E+03  0.41800000000E+01 0.  1.
        -11    1    1    2    0    0 -0.95607173478E+02  0.17392135118E+02  0.59456184141E+02  0.11392214805E+03  0.00000000000E+00 0.  1.
         11    1    1    2    0    0  0.15865318868E+02  0.35098802049E+02  0.54285298293E+02  0.66562210441E+02  0.00000000000E+00 0. -1.
</event>
<event>
 7    1  0.2899775E-009  0.1071773E+03  0.7561462E-02  0.1265888E+00
          1   -1    0    0  501    0  0.00000000000E+00  0.00000000000E+00  0.52347270342E+03  0.52347270342E+03  0.00000000000E+00 0. -1.
         -1   -1    0    0    0  501 -0.00000000000E+00 -0.00000000000E+00 -0.28140567618E+02  0.28140567618E+02  0.00000000000E+00 0.  1.
         25    2    1    2    0    0  0.22670369465E+02  0.33830638683E+02  0.34423327585E+03  0.36851021635E+03  0.12507906933E+03 0.  0.
          5    1    3    3  502    0  0.51804373701E+02  0.67968165080E+02  0.20418615705E+03  0.22138840017E+03  0.41800000000E+01 0.  1.
         -5    1    3    3    0  502 -0.29134004236E+02 -0.34137526398E+02  0.14004711880E+03  0.14712181618E+03  0.41800000000E+01 0.  1.
        -11    1    1    2    0    0 -0.43637678426E+02 -0.42607440061E+02  0.48234801770E+02  0.77757552872E+02  0.00000000000E+00 0.  1.
         11    1    1    2    0    0  0.20967308961E+02  0.87768013781E+01  0.10286405818E+03  0.10534550182E+03  0.00000000000E+00 0. -1.
</event>
<event>
 7    1  0.2899775E-009  0.8731228E+02  0.7561462E-02  0.1309494E+00
          1   -1    0    0  501    0  0.00000000000E+00  0.00000000000E+00  0.66592281202E+03  0.66592281202E+03  0.00000000000E+00 0. -1.
         -1   -1    0    0    0  501 -0.00000000000E+00 -0.00000000000E+00 -0.19080559103E+02  0.19080559103E+02  0.00000000000E+00 0.  1.
         25    2    1    2    0    0 -0.20149209849E+01  0.13323983337E+02  0.45440302614E+03  0.47150180645E+03  0.12510097875E+03 0.  0.
          5    1    3    3  502    0 -0.30852628392E+02  0.47205287724E+02  0.38380744673E+03  0.38795083765E+03  0.41800000000E+01 0. -1.
         -5    1    3    3    0  502  0.28837707407E+02 -0.33881304388E+02  0.70595579412E+02  0.83550968803E+02  0.41800000000E+01 0. -1.
        -11    1    1    2    0    0  0.47097278164E+01  0.29805176976E+02  0.21159125152E+02  0.36854289953E+02  0.00000000000E+00 0.  1.
         11    1    1    2    0    0 -0.26948068314E+01 -0.43129160313E+02  0.17128010162E+03  0.17664727472E+03  0.00000000000E+00 0. -1.
</event>
<event>
 7    1  0.2899775E-009  0.1339443E+03  0.7561462E-02  0.1221718E+00
          1   -1    0    0  501    0  0.00000000000E+00  0.00000000000E+00  0.71964835458E+02  0.71964835458E+02  0.00000000000E+00 0. -1.
         -1   -1    0    0    0  501 -0.00000000000E+00 -0.00000000000E+00 -0.33433697505E+03  0.33433697505E+03  0.00000000000E+00 0.  1.
         25    2    1    2    0    0  0.36367488750E+02 -0.82282179919E+02 -0.23100480328E+03  0.27767564566E+03  0.12509034208E+03 0.  0.
          5    1    3    3  502    0 -0.31466838160E+02 -0.68708031766E+02 -0.73067172088E+02  0.10520094852E+03  0.41800000000E+01 0.  1.
         -5    1    3    3    0  502  0.67834326910E+02 -0.13574148153E+02 -0.15793763119E+03  0.17247469713E+03  0.41800000000E+01 0.  1.
        -11    1    1    2    0    0 -0.63623264526E+02  0.52136913344E+02 -0.31230380409E+02  0.87985874903E+02  0.00000000000E+00 0.  1.
         11    1    1    2    0    0  0.27255775776E+02  0.30145266576E+02 -0.13695590367E+00  0.40640289947E+02  0.00000000000E+00 0. -1.
</event>
<event>
 7    1  0.2899775E-009  0.8539636E+02  0.7561462E-02  0.1314399E+00
         -2   -1    0    0    0  501 -0.00000000000E+00  0.00000000000E+00  0.23155681252E+02  0.23155681252E+02  0.00000000000E+00 0.  1.
          2   -1    0    0  501    0  0.00000000000E+00 -0.00000000000E+00 -0.35944705559E+03  0.35944705559E+03  0.00000000000E+00 0. -1.
         25    2    1    2    0    0 -0.18232832503E+02  0.13870558209E+02 -0.20921774834E+03  0.24483074814E+03  0.12508077568E+03 0.  0.
          5    1    3    3  502    0  0.19926012848E+02  0.58032112330E+02 -0.14738141812E+03  0.15969823686E+03  0.41800000000E+01 0. -1.
         -5    1    3    3    0  502 -0.38158845351E+02 -0.44161554121E+02 -0.61836330225E+02  0.85132511278E+02  0.41800000000E+01 0. -1.
        -11    1    1    2    0    0 -0.59229924085E+01 -0.23900905756E+02 -0.82444284971E+02  0.86042984952E+02  0.00000000000E+00 0. -1.
         11    1    1    2    0    0  0.24155824911E+02  0.10030347547E+02 -0.44629341027E+02  0.51729003756E+02  0.00000000000E+00 0.  1.
</event>
<event>
 7    1  0.2899775E-009  0.1641025E+03  0.7561462E-02  0.1184141E+00
          1   -1    0    0  501    0  0.00000000000E+00  0.00000000000E+00  0.58344445217E+03  0.58344445217E+03  0.00000000000E+00 0. -1.
         -1   -1    0    0    0  501 -0.00000000000E+00 -0.00000000000E+00 -0.76566752125E+02  0.76566752125E+02  0.00000000000E+00 0.  1.
         25    2    1    2    0    0 -0.12610184205E+03 -0.20679985536E+02  0.46444711205E+03  0.49767944458E+03  0.12507746918E+03 0.  0.
          5    1    3    3  502    0  0.13134851766E+02  0.22046250810E+02  0.13453835354E+03  0.13702774346E+03  0.41800000000E+01 0. -1.
         -5    1    3    3    0  502 -0.13923669381E+03 -0.42726236346E+02  0.32990875851E+03  0.36065170112E+03  0.41800000000E+01 0. -1.
        -11    1    1    2    0    0  0.10567853701E+03 -0.23114728389E+02  0.25629359107E+02  0.11117152468E+03  0.00000000000E+00 0.  1.
         11    1    1    2    0    0  0.20423305040E+02  0.43794713925E+02  0.16801228892E+02  0.51160235034E+02  0.00000000000E+00 0. -1.
</event>
<event>
 7    1  0.2899775E-009  0.1085296E+03  0.7561462E-02  0.1263317E+00
         -1   -1    0    0    0  501 -0.00000000000E+00  0.00000000000E+00  0.39439354440E+03  0.39439354440E+03  0.00000000000E+00 0.  1.
          1   -1    0    0  501    0  0.00000000000E+00 -0.00000000000E+00 -0.37684476995E+02  0.37684476995E+02  0.00000000000E+00 0. -1.
         25    2    1    2    0    0 -0.55741809253E+02  0.43528272261E+01  0.17318929680E+03  0.22083773136E+03  0.12509466282E+03 0.  0.
          5    1    3    3  502    0 -0.88929343808E+02  0.11642584285E+01  0.16298936441E+03  0.18572234383E+03  0.41800000000E+01 0. -1.
         -5    1    3    3    0  502  0.33187534555E+02  0.31885687976E+01  0.10199932389E+02  0.35115387533E+02  0.41800000000E+01 0. -1.
        -11    1    1    2    0    0 -0.19286724254E+02 -0.42192216955E+00  0.85989968269E+02  0.88127353266E+02  0.00000000000E+00 0.  1.
         11    1    1    2    0    0  0.75028533507E+02 -0.39309050566E+01  0.97529802343E+02  0.12311293677E+03  0.00000000000E+00 0. -1.
</event>
<event>
 7    1  0.2899775E-009  0.1757777E+03  0.7561462E-02  0.1171953E+00
         -1   -1    0    0    0  501 -0.00000000000E+00  0.00000000000E+00  0.24018059112E+02  0.24018059112E+02  0.00000000000E+00 0.  1.
          1   -1    0    0  501    0  0.00000000000E+00 -0.00000000000E+00 -0.14565084060E+04  0.14565084060E+04  0.00000000000E+00 0. -1.
         25    2    1    2    0    0 -0.13863668500E+03 -0.27935281642E+02 -0.97319391830E+03  0.99133991425E+03  0.12509161671E+03 0.  0.
          5    1    3    3  502    0 -0.15831846914E+03 -0.42296034403E+02 -0.83110364232E+03  0.84711535748E+03  0.41800000000E+01 0. -1.
         -5    1    3    3    0  502  0.19681784140E+02  0.14360752762E+02 -0.14209027598E+03  0.14422455677E+03  0.41800000000E+01 0. -1.
        -11    1    1    2    0    0  0.90765316086E+02  0.56740823322E+02 -0.35605943303E+03  0.37180126880E+03  0.00000000000E+00 0.  1.
         11    1    1    2    0    0  0.47871368914E+02 -0.28805541681E+02 -0.10323699557E+03  0.11738528208E+03  0.00000000000E+00 0. -1.
</event>
<event>
 7    1  0.2899775E-009  0.1965115E+03  0.7561462E-02  0.1152716E+00
          2   -1    0    0  501    0  0.00000000000E+00  0.00000000000E+00  0.14062982935E+04  0.14062982935E+04  0.00000000000E+00 0. -1.
         -2   -1    0    0    0  501 -0.00000000000E+00 -0.00000000000E+00 -0.36353259716E+02  0.36353259716E+02  0.00000000000E+00 0.  1.
         25    2    1    2    0    0  0.17175163134E+03 -0.42035270239E+02  0.98741662381E+03  0.10108934146E+04  0.12509324476E+03 0.  0.
          5    1    3    3  502    0  0.13949360224E+03 -0.76437641513E+02  0.86743581877E+03  0.88190903737E+03  0.41800000000E+01 0.  1.
         -5    1    3    3    0  502  0.32258029099E+02  0.34402371274E+02  0.11998080504E+03  0.12898437722E+03  0.41800000000E+01 0.  1.
        -11    1    1    2    0    0 -0.16252616112E+03  0.21365814911E+02  0.26150244800E+03  0.30863373342E+03  0.00000000000E+00 0.  1.
         11    1    1    2    0    0 -0.92254702187E+01  0.20669455328E+02  0.12102596196E+03  0.12312440518E+03  0.00000000000E+00 0. -1.
</event>
<event>
 7    1  0.2899775E-009  0.1056752E+03  0.7561462E-02  0.1268795E+00
          1   -1    0    0  501    0  0.00000000000E+00  0.00000000000E+00  0.39404694158E+03  0.39404694158E+03  0.00000000000E+00 0. -1.
         -1   -1    0    0    0  501 -0.00000000000E+00 -0.00000000000E+00 -0.38458831307E+02  0.38458831307E+02  0.00000000000E+00 0.  1.
         25    2    1    2    0    0  0.46548121106E+02 -0.12206590039E+02  0.26005200710E+03  0.29256153346E+03  0.12509786585E+03 0.  0.
          5    1    3    3  502    0 -0.31901174697E+02 -0.97595811784E+01  0.18143669865E+02  0.38204705574E+02  0.41800000000E+01 0.  1.
         -5    1    3    3    0  502  0.78449295803E+02 -0.24470088605E+01  0.24190833724E+03  0.25435682788E+03  0.41800000000E+01 0.  1.
        -11    1    1    2    0    0 -0.39763707412E+02  0.48210178216E+02  0.42853680145E+02  0.75774742578E+02  0.00000000000E+00 0.  1.
         11    1    1    2    0    0 -0.67844136941E+01 -0.36003588177E+02  0.52682423027E+02  0.64169496856E+02  0.00000000000E+00 0. -1.
</event>
<event>
 7    1  0.2899775E-009  0.1366493E+03  0.7561462E-02  0.1217910E+00
         -1   -1    0    0    0  501 -0.00000000000E+00  0.00000000000E+00  0.32384341763E+02  0.32384341763E+02  0.00000000000E+00 0.  1.
          1   -1    0    0  501    0  0.00000000000E+00 -0.00000000000E+00 -0.81277079280E+03  0.81277079280E+03  0.00000000000E+00 0. -1.
         25    2    1    2    0    0  0.21465457129E+02 -0.10596372922E+03 -0.55305492484E+03  0.57724129014E+03  0.12509468168E+03 0.  0.
          5    1    3    3  502    0 -0.39462042571E+02 -0.94219689915E+02 -0.37257114171E+03  0.38634353988E+03  0.41800000000E+01 0.  1.
         -5    1    3    3    0  502  0.60927499701E+02 -0.11744039308E+02 -0.18048378314E+03  0.19089775026E+03  0.41800000000E+01 0.  1.
        -11    1    1    2    0    0 -0.76961401122E+01  0.69010408174E+02 -0.48285361034E+02  0.84576256119E+02  0.00000000000E+00 0.  1.
         11    1    1    2    0    0 -0.13769317017E+02  0.36953321049E+02 -0.17904616516E+03  0.18333758831E+03  0.00000000000E+00 0. -1.
</event>
<event>
 6    1  0.2899775E-009  0.1152832E+03  0.7561462E-02  0.1251088E+00
         -1   -1    0    0    0  501 -0.00000000000E+00  0.00000000000E+00  0.65939447404E+02  0.65939447404E+02  0.00000000000E+00 0.  1.
          1   -1    0    0  501    0  0.00000000000E+00 -0.00000000000E+00 -0.32702449899E+03  0.32702449899E+03  0.00000000000E+00 0. -1.
          5    1    1    2  502    0 -0.42441109785E+02  0.53498776004E+02  0.68421201899E+01  0.68757936578E+02  0.41800000000E+01 0.  1.
         -5    1    1    2    0  502 -0.40716669280E+02 -0.42106325649E+02 -0.78421130292E+02  0.97970076519E+02  0.41800000000E+01 0.  1.
        -11    1    1    2    0    0  0.21406791995E+02 -0.31850770100E+02 -0.13807536944E+03  0.14330921096E+03  0.00000000000E+00 0. -1.
         11    1    1    2    0    0  0.61750987071E+02  0.20458319744E+02 -0.51430672044E+02  0.82926722339E+02  0.00000000000E+00 0.  1.
</event>
<event>
 7    1  0.2899775E-009  0.1414351E+03  0.7561462E-02  0.1211411E+00
         -2   -1    0    0    0  501 -0.00000000000E+00  0.00000000000E+00  0.22760798091E+02  0.22760798091E+02  0.00000000000E+00 0.  1.
          2   -1    0    0  501    0  0.00000000000E+00 -0.00000000000E+00 -0.12532487633E+04  0.12532487633E+04  0.00000000000E+00 0. -1.
         25    2    1    2    0    0 -0.86821299532E+02 -0.57695844967E+02 -0.94157418740E+03  0.95554982842E+03  0.12508707225E+03 0.  0.
          5    1    3    3  502    0 -0.83741535489E+02 -0.90659665468E+02 -0.82856520616E+03  0.83771689309E+03  0.41800000000E+01 0. -1.
         -5    1    3    3    0  502 -0.30797640435E+01  0.32963820501E+02 -0.11300898124E+03  0.11783293533E+03  0.41800000000E+01 0. -1.
        -11    1    1    2    0    0  0.48104114594E+02 -0.89562578357E+01 -0.52360989376E+02  0.71665149157E+02  0.00000000000E+00 0.  1.
         11    1    1    2    0    0  0.38717184938E+02  0.66652102803E+02 -0.23655278845E+03  0.24879458382E+03  0.00000000000E+00 0. -1.
</event>
<event>
 7    1  0.2899775E-009  0.9149420E+02  0.7561462E-02  0.1299273E+00
          1   -1    0    0  501    0  0.00000000000E+00  0.00000000000E+00  0.25692041438E+03  0.25692041438E+03  0.00000000000E+00 0. -1.
         -1   -1    0    0    0  501 -0.00000000000E+00 -0.00000000000E+00 -0.89723693158E+02  0.89723693158E+02  0.00000000000E+00 0.  1.
         25    2    1    2    0    0 -0.37418136593E+02 -0.53827269881E+02  0.18418146169E+03  0.23209242995E+03  0.12508634329E+03 0.  0.
          5    1    3    3  502    0  0.29794699520E+00 -0.14352199658E+02 -0.17553686077E+02  0.23058159127E+02  0.41800000000E+01 0. -1.
         -5    1    3    3    0  502 -0.37716083589E+02 -0.39475070223E+02  0.20173514777E+03  0.20903427082E+03  0.41800000000E+01 0. -1.
        -11    1    1    2    0    0 -0.30949110376E+02  0.12396896048E+02 -0.54859098786E+01  0.33787951579E+02  0.00000000000E+00 0.  1.
         11    1    1    2    0    0  0.68367246969E+02  0.41430373833E+02 -0.11498830596E+02  0.80763726011E+02  0.00000000000E+00 0. -1.
</event>
<event>
 7    1  0.2899775E-009  0.8759018E+02  0.7561462E-02  0.1308795E+00
          3   -1    0    0  501    0  0.00000000000E+00  0.00000000000E+00  0.46208506245E+02  0.46208506245E+02  0.00000000000E+00 0. -1.
         -3   -1    0    0    0  501 -0.00000000000E+00 -0.00000000000E+00 -0.35227871350E+03  0.35227871350E+03  0.00000000000E+00 0.  1.
         25    2    1    2    0    0 -0.74981872734E+01 -0.34963838820E+01 -0.27507946444E+03  0.30229850649E+03  0.12508887945E+03 0.  0.
          5    1    3    3  502    0 -0.27675189456E+02  0.46753040240E+02 -0.21279548935E+03  0.21966145673E+03  0.41800000000E+01 0.  1.
         -5    1    3    3    0  502  0.20177002183E+02 -0.50249424122E+02 -0.62283975082E+02  0.82637049764E+02  0.41800000000E+01 0.  1.
        -11    1    1    2    0    0  0.10365335064E+02 -0.30525363074E+02 -0.48174691259E+02  0.57965842008E+02  0.00000000000E+00 0.  1.
         11    1    1    2    0    0 -0.28671477909E+01  0.34021746956E+02  0.17183948438E+02  0.38222871246E+02  0.00000000000E+00 0. -1.
</event>
<event>
 7    1  0.2899775E-009  0.8476029E+02  0.7561462E-02  0.1316061E+00
          2   -1    0    0  501    0  0.00000000000E+00  0.00000000000E+00  0.70312070916E+03  0.70312070916E+03  0.00000000000E+00 0.  1.
         -2   -1    0    0    0  501 -0.00000000000E+00 -0.00000000000E+00 -0.21417771671E+02  0.21417771671E+02  0.00000000000E+00 0. -1.
         25    2    1    2    0    0 -0.82228407206E+01  0.55155245888E+02  0.37990926406E+03  0.40384282107E+03  0.12509300121E+03 0.  0.
          5    1    3    3  502    0  0.83781332150E+01  0.17180548572E+02  0.35452113110E+03  0.35506065561E+03  0.41800000000E+01 0. -1.
         -5    1    3    3    0  502 -0.16600973936E+02  0.37974697316E+02  0.25388132963E+02  0.48782165462E+02  0.41800000000E+01 0. -1.
        -11    1    1    2    0    0  0.43758136860E+02 -0.13006827304E+01  0.11319526814E+03  0.12136570786E+03  0.00000000000E+00 0.  1.
         11    1    1    2    0    0 -0.35535296139E+02 -0.53854563157E+02  0.18859840529E+03  0.19932995190E+03  0.00000000000E+00 0. -1.
</event>
<event>
 7    1  0.2899775E-009  0.1070110E+03  0.7561462E-02  0.1266207E+00
          2   -1    0    0  501    0  0.00000000000E+00  0.00000000000E+00  0.28503549417E+02  0.28503549417E+02  0.00000000000E+00 0. -1.
         -2   -1    0    0    0  501 -0.00000000000E+00 -0.00000000000E+00 -0.51084830214E+03  0.51084830214E+03  0.00000000000E+00 0.  1.
         25    2    1    2    0    0  0.35802692736E+02 -0.20922796372E+02 -0.18618884795E+03  0.22810732724E+03  0.12508824656E+03 0.  0.
          5    1    3    3  502    0 -0.45430064088E+02 -0.19149773303E+02 -0.57504499797E+02  0.75860690990E+02  0.41800000000E+01 0. -1.
         -5    1    3    3    0  502  0.81232756824E+02 -0.17730230694E+01 -0.12868434815E+03  0.15224663625E+03  0.41800000000E+01 0. -1.
        -11    1    1    2    0    0  0.22855801229E+01  0.40358936229E+02 -0.22193977873E+03  0.22559107472E+03  0.00000000000E+00 0.  1.
         11    1    1    2    0    0 -0.38088272858E+02 -0.19436139857E+02 -0.74216126041E+02  0.85653449589E+02  0.00000000000E+00 0. -1.
</event>
<event>
 7    1  0.2899775E-009  0.1459041E+03  0.7561462E-02  0.1205598E+00
          1   -1    0    0  501    0  0.00000000000E+00  0.00000000000E+00  0.38101049801E+02  0.38101049801E+02  0.00000000000E+00 0. -1.
         -1   -1    0    0    0  501 -0.00000000000E+00 -0.00000000000E+00 -0.76406498003E+03  0.76406498003E+03  0.00000000000E+00 0.  1.
         25    2    1    2    0    0  0.12441606876E+03 -0.41689287740E+02 -0.39491029640E+03  0.43453115239E+03  0.12508327354E+03 0.  0.
          5    1    3    3  502    0  0.99498012586E+02 -0.42153083042E+02 -0.39471441493E+03  0.40925991579E+03  0.41800000000E+01 0.  1.
         -5    1    3    3    0  502  0.24918056178E+02  0.46379530190E+00 -0.19588146465E+00  0.25271236601E+02  0.41800000000E+01 0.  1.
        -11    1    1    2    0    0 -0.13399296762E+03  0.21038606367E+02 -0.29894806657E+03  0.32827836486E+03  0.00000000000E+00 0.  1.
         11    1    1    2    0    0  0.95768988597E+01  0.20650681373E+02 -0.32105567258E+02  0.39356512573E+02  0.00000000000E+00 0. -1.
</event>
<event>
 7    1  0.2899775E-009  0.1164044E+03  0.7561462E-02  0.1249149E+00
          2   -1    0    0  501    0  0.00000000000E+00  0.00000000000E+00  0.73567817533E+03  0.73567817533E+03  0.00000000000E+00 0.  1.
         -2   -1    0    0    0  501 -0.00000000000E+00 -0.00000000000E+00 -0.28482449542E+02  0.28482449542E+02  0.00000000000E+00 0. -1.
         25    2    1    2    0    0  0.40227208571E+02 -0.90039970943E+02  0.39944104600E+03  0.43003088785E+03  0.12509192860E+03 0.  0.
          5    1    3    3  502    0 -0.19264120527E+02 -0.50329215098E+02  0.31356797705E+03  0.31819252798E+03  0.41800000000E+01 0. -1.
         -5    1    3    3    0  502  0.59491329098E+02 -0.39710755845E+02  0.85873068943E+02  0.11183835987E+03  0.41800000000E+01 0. -1.
        -11    1    1    2    0    0 -0.48586141564E+02  0.68320386641E+02  0.29679048951E+03  0.30840376626E+03  0.00000000000E+00 0.  1.
         11    1    1    2    0    0  0.83589329928E+01  0.21719584302E+02  0.10964190288E+02  0.25725970763E+02  0.00000000000E+00 0. -1.
</event>
<event>
 7    1  0.2899775E-009  0.1177371E+03  0.7561462E-02  0.1246877E+00
          1   -1    0    0  501    0  0.00000000000E+00  0.00000000000E+00  0.68410507203E+03  0.68410507203E+03  0.00000000000E+00 0. -1.
         -1   -1    0    0    0  501 -0.00000000000E+00 -0.00000000000E+00 -0.27136221820E+02  0.27136221820E+02  0.00000000000E+00 0.  1.
         25    2    1    2    0    0 -0.62810178006E+02  0.11260692200E+02  0.49665954887E+03  0.51613063050E+03  0.12509276000E+03 0.  0.
          5    1    3    3  502    0 -0.20722983281E+02 -0.55890782378E+02  0.24883767604E+03  0.25591186571E+03  0.41800000000E+01 0.  1.
         -5    1    3    3    0  502 -0.42087194725E+02  0.67151474579E+02  0.24782187283E+03  0.26021876479E+03  0.41800000000E+01 0.  1.
        -11    1    1    2    0    0  0.15419948366E+02 -0.38656952559E+02  0.12033571967E+03  0.12732957322E+03  0.00000000000E+00 0. -1.
         11    1    1    2    0    0  0.47390229640E+02  0.27396260359E+02  0.39973581661E+02  0.67781090120E+02  0.00000000000E+00 0.  1.
</event>
<event>
 7    1  0.2899775E-009  0.1350655E+03  0.7561462E-02  0.1220127E+00
          1   -1    0    0  501    0  0.00000000000E+00  0.00000000000E+00  0.58013100907E+02  0.58013100907E+02  0.00000000000E+00 0. -1.
         -1   -1    0    0    0  501 -0.00000000000E+00 -0.00000000000E+00 -0.33465813301E+03  0.33465813301E+03  0.00000000000E+00 0.  1.
         25    2    1    2    0    0 -0.75898831623E+02  0.41318490359E+02 -0.12568345760E+03  0.19725358737E+03  0.12507915866E+03 0.  0.
          5    1    3    3  502    0  0.23656478122E+02  0.43827797699E+02 -0.59028793910E+02  0.77345819013E+02  0.41800000000E+01 0.  1.
         -5    1    3    3    0  502 -0.99555309746E+02 -0.25093073400E+01 -0.66654663690E+02  0.11990776836E+03  0.41800000000E+01 0.  1.
        -11    1    1    2    0    0  0.57887057012E+02  0.16275668017E+02 -0.51943049537E+02  0.79459984484E+02  0.00000000000E+00 0.  1.
         11    1    1    2    0    0  0.18011774611E+02 -0.57594158376E+02 -0.99018524969E+02  0.11595766206E+03  0.00000000000E+00 0. -1.
</event>
<event>
 7    1  0.2899775E-009  0.8160870E+02  0.7561462E-02  0.1324547E+00
          1   -1    0    0  501    0  0.00000000000E+00  0.00000000000E+00  0.14051885098E+04  0.14051885098E+04  0.00000000000E+00 0. -1.
         -1   -1    0    0    0  501 -0.00000000000E+00 -0.00000000000E+00 -0.10576170009E+02  0.10576170009E+02  0.00000000000E+00 0.  1.
         25    2    1    2    0    0  0.14088112544E+01  0.31138193769E+02  0.10541206013E+04  0.10619740815E+04  0.12508851188E+03 0.  0.
          5    1    3    3  502    0  0.30399190680E+02 -0.11011787101E+00  0.64500984876E+02  0.71428092302E+02  0.41800000000E+01 0.  1.
         -5    1    3    3    0  502 -0.28990379425E+02  0.31248311640E+02  0.98961961644E+03  0.99054598920E+03  0.41800000000E+01 0.  1.
        -11    1    1    2    0    0  0.40922421432E+02 -0.88750352317E+01  0.97102206308E+02  0.10574615499E+03  0.00000000000E+00 0. -1.
         11    1    1    2    0    0 -0.42331232686E+02 -0.22263158537E+02  0.24338953214E+03  0.24804444329E+03  0.00000000000E+00 0.  1.
</event>
<event>
 7    1  0.2899775E-009  0.1167514E+03  0.7561462E-02  0.1248555E+00
          2   -1    0    0  501    0  0.00000000000E+00  0.00000000000E+00  0.37773167510E+03  0.37773167510E+03  0.00000000000E+00 0. -1.
         -2   -1    0    0    0  501 -0.00000000000E+00 -0.00000000000E+00 -0.45603660384E+02  0.45603660384E+02  0.00000000000E+00 0.  1.
         25    2    1    2    0    0 -0.36514800596E+02  0.51780461925E+02  0.24036794651E+03  0.27827961955E+03  0.12509296561E+03 0.  0.
          5    1    3    3  502    0 -0.73169145307E+01 -0.31607601116E+02  0.14635434086E+02  0.35836378408E+02  0.41800000000E+01 0. -1.
         -5    1    3    3    0  502 -0.29197886065E+02  0.83388063041E+02  0.22573251243E+03  0.24244324114E+03  0.41800000000E+01 0. -1.
        -11    1    1    2    0    0  0.71339606926E+01  0.27174771133E+02  0.22413529542E+02  0.35940616131E+02  0.00000000000E+00 0.  1.
         11    1    1    2    0    0  0.29380839903E+02 -0.78955233059E+02  0.69346538658E+02  0.10911509980E+03  0.00000000000E+00 0. -1.
</event>
<event>
 7    1  0.2899775E-009  0.7731716E+02  0.7561462E-02  0.1336842E+00
          1   -1    0    0  501    0  0.00000000000E+00  0.00000000000E+00  0.27910304490E+03  0.27910304490E+03  0.00000000000E+00 0. -1.
         -1   -1    0    0    0  501 -0.00000000000E+00 -0.00000000000E+00 -0.86943623817E+02  0.86943623817E+02  0.00000000000E+00 0.  1.
         25    2    1    2    0    0  0.15898960467E+02 -0.36678682710E+02  0.22583303805E+03  0.26124035413E+03  0.12509140194E+03 0.  0.
          5    1    3    3  502    0 -0.43346885942E+01  0.21201417530E+02  0.18753746916E+03  0.18882813448E+03  0.41800000000E+01 0. -1.
         -5    1    3    3    0  502  0.20233649061E+02 -0.57880100240E+02  0.38295568890E+02  0.72412219651E+02  0.41800000000E+01 0. -1.
        -11    1    1    2    0    0  0.15646357540E+02  0.36367370376E+02  0.18607203203E+02  0.43744967064E+02  0.00000000000E+00 0. -1.
         11    1    1    2    0    0 -0.31545318006E+02  0.31131233439E+00 -0.52280820173E+02  0.61061347524E+02  0.00000000000E+00 0.  1.
</event>
<event>
 7    1  0.2899775E-009  0.1039250E+03  0.7561462E-02  0.1272252E+00
         -2   -1    0    0    0  501 -0.00000000000E+00  0.00000000000E+00  0.54658146760E+03  0.54658146760E+03  0.00000000000E+00 0. -1.
          2   -1    0    0  501    0  0.00000000000E+00 -0.00000000000E+00 -0.37747934978E+02  0.37747934978E+02  0.00000000000E+00 0.  1.
         25    2    1    2    0    0 -0.52501392638E+02 -0.62281692219E+01  0.11846142535E+03  0.18021057910E+03  0.12509019627E+03 0.  0.
          5    1    3    3  502    0 -0.20709070638E+02  0.48224809898E+02  0.10219138154E+03  0.11495672558E+03  0.41800000000E+01 0.  1.
         -5    1    3    3    0  502 -0.31792322001E+02 -0.54452979120E+02  0.16270043811E+02  0.65253853517E+02  0.41800000000E+01 0.  1.
        -11    1    1    2    0    0  0.12303349277E+02 -0.33379523791E+02  0.66993439980E+02  0.75853055392E+02  0.00000000000E+00 0.  1.
         11    1    1    2    0    0  0.40198043361E+02  0.39607693013E+02  0.32337866729E+03  0.32826576808E+03  0.00000000000E+00 0. -1.
</event>
<event>
 7    1  0.2899775E-009  0.1224226E+03  0.7561462E-02  0.1239153E+00
          1   -1    0    0  501    0  0.00000000000E+00  0.00000000000E+00  0.45011288585E+03  0.45011288585E+03  0.00000000000E+00 0.  1.
         -1   -1    0    0    0  501 -0.00000000000E+00 -0.00000000000E+00 -0.54069317666E+02  0.54069317666E+02  0.00000000000E+00 0. -1.
         25    2    1    2    0    0  0.32977414987E+01  0.11168299902E+03  0.21538566057E+03  0.27298776178E+03  0.12508943974E+03 0.  0.
          5    1    3    3  502    0  0.15555526458E+02 -0.16606815052E+01 -0.10935862663E+02  0.19539645817E+02  0.41800000000E+01 0. -1.
         -5    1    3    3    0  502 -0.12257784960E+02  0.11334368052E+03  0.22632152323E+03  0.25344811596E+03  0.41800000000E+01 0. -1.
        -11    1    1    2    0    0 -0.14387122908E+02 -0.58329075958E+02  0.16330329024E+03  0.17400354885E+03  0.00000000000E+00 0.  1.
         11    1    1    2    0    0  0.11089381410E+02 -0.53353923058E+02  0.17354617375E+02  0.57190892893E+02  0.00000000000E+00 0. -1.
</event>
<event>
 7    1  0.2899775E-009  0.2010284E+03  0.7561462E-02  0.1148874E+00
         -1   -1    0    0    0  501 -0.00000000000E+00  0.00000000000E+00  0.24028092270E+03  0.24028092270E+03  0.00000000000E+00 0.  1.
          1   -1    0    0  501    0  0.00000000000E+00 -0.00000000000E+00 -0.17024744903E+03  0.17024744903E+03  0.00000000000E+00 0. -1.
         25    2    1    2    0    0  0.16837691737E+03 -0.19721902735E+02  0.23087892561E+02  0.21193484925E+03  0.12507433707E+03 0.  0.
          5    1    3    3  502    0  0.27107672465E+02 -0.57401564061E+02  0.15454402642E+02  0.65468132890E+02  0.41800000000E+01 0.  1.
         -5    1    3    3    0  502  0.14126924490E+03  0.37679661326E+02  0.76334899193E+01  0.14646671636E+03  0.41800000000E+01 0.  1.
        -11    1    1    2    0    0 -0.71221043655E+02  0.53751484327E+02  0.30786130417E+02  0.94389856196E+02  0.00000000000E+00 0.  1.
         11    1    1    2    0    0 -0.97155873714E+02 -0.34029581592E+02  0.16159450690E+02  0.10420366628E+03  0.00000000000E+00 0. -1.
</event>
<event>
 7    1  0.2899775E-009  0.2231599E+03  0.7561462E-02  0.1131549E+00
         -1   -1    0    0    0  501 -0.00000000000E+00  0.00000000000E+00  0.28344248512E+03  0.28344248512E+03  0.00000000000E+00 0.  1.
          1   -1    0    0  501    0  0.00000000000E+00 -0.00000000000E+00 -0.24064683898E+03  0.24064683898E+03  0.00000000000E+00 0. -1.
         25    2    1    2    0    0  0.15695444142E+03  0.15316335281E+03 -0.69022034252E+02  0.26173790743E+03  0.12509588981E+03 0.  0.
          5    1    3    3  502    0  0.41771174870E+02  0.23554313532E+02  0.34977814651E+02  0.59502576867E+02  0.41800000000E+01 0. -1.
         -5    1    3    3    0  502  0.11518326655E+03  0.12960903928E+03 -0.10399984890E+03  0.20223533056E+03  0.41800000000E+01 0. -1.
        -11    1    1    2    0    0 -0.74701710417E+02 -0.39694426934E+02  0.25296820404E+01  0.84630918464E+02  0.00000000000E+00 0. -1.
         11    1    1    2    0    0 -0.82252731003E+02 -0.11346892588E+03  0.10928799835E+03  0.17772049820E+03  0.00000000000E+00 0.  1.
</event>
<event>
 7    1  0.2899775E-009  0.1096480E+03  0.7561462E-02  0.1261223E+00
         -2   -1    0    0    0  501 -0.00000000000E+00  0.00000000000E+00  0.87947541135E+02  0.87947541135E+02  0.00000000000E+00 0.  1.
          2   -1    0    0  501    0  0.00000000000E+00 -0.00000000000E+00 -0.24736988625E+03  0.24736988625E+03  0.00000000000E+00 0. -1.
         25    2    1    2    0    0 -0.92064090959E+02 -0.11369251525E+02 -0.51240661308E+02  0.16394398912E+03  0.12508784702E+03 0.  0.
          5    1    3    3  502    0 -0.53934283292E+02 -0.27641832232E+02 -0.88971016910E+02  0.10773250231E+03  0.41800000000E+01 0. -1.
         -5    1    3    3    0  502 -0.38129807667E+02  0.16272580706E+02  0.37730355603E+02  0.56211486811E+02  0.41800000000E+01 0. -1.
        -11    1    1    2    0    0  0.12359089103E+02  0.32206169761E+02  0.11045803500E+01  0.34513831313E+02  0.00000000000E+00 0.  1.
         11    1    1    2    0    0  0.79705001856E+02 -0.20836918235E+02 -0.10928626416E+03  0.13685960696E+03  0.00000000000E+00 0. -1.
</event>
<event>
 7    1  0.2899775E-009  0.1290127E+03  0.7561462E-02  0.1228928E+00
         -2   -1    0    0    0  501 -0.00000000000E+00  0.00000000000E+00  0.33386742135E+02  0.33386742135E+02  0.00000000000E+00 0.  1.
          2   -1    0    0  501    0  0.00000000000E+00 -0.00000000000E+00 -0.79360725549E+03  0.79360725549E+03  0.00000000000E+00 0. -1.
         25    2    1    2    0    0 -0.93528324171E+01  0.10754978509E+03 -0.26783229446E+03  0.31469962611E+03  0.12508910813E+03 0.  0.
          5    1    3    3  502    0  0.17945651042E+02  0.58959576648E+02 -0.26908711821E+02  0.67378254961E+02  0.41800000000E+01 0. -1.
         -5    1    3    3    0  502 -0.27298483459E+02  0.48590208438E+02 -0.24092358264E+03  0.24732137115E+03  0.41800000000E+01 0. -1.
        -11    1    1    2    0    0  0.31357409632E+02 -0.11334996472E+03 -0.38691716828E+03  0.40439633622E+03  0.00000000000E+00 0.  1.
         11    1    1    2    0    0 -0.22004577215E+02  0.58001796324E+01 -0.10547105061E+03  0.10789803529E+03  0.00000000000E+00 0. -1.
</event>
<event>
 7    1  0.2899775E-009  0.3077860E+03  0.7561462E-02  0.1081412E+00
          2   -1    0    0  501    0  0.00000000000E+00  0.00000000000E+00  0.71178219823E+03  0.71178219823E+03  0.00000000000E+00 0. -1.
         -2   -1    0    0    0  501 -0.00000000000E+00 -0.00000000000E+00 -0.17849184448E+03  0.17849184448E+03  0.00000000000E+00 0.  1.
         25    2    1    2    0    0 -0.24667283867E+03 -0.16003935540E+03  0.48337183043E+03  0.57944365355E+03  0.12508611661E+03 0.  0.
          5    1    3    3  502    0 -0.11048970969E+03 -0.12737340659E+03  0.18829739081E+03  0.25279505620E+03  0.41800000000E+01 0.  1.
         -5    1    3    3    0  502 -0.13618312898E+03 -0.32665948803E+02  0.29507443962E+03  0.32664859734E+03  0.41800000000E+01 0.  1.
        -11    1    1    2    0    0  0.17102186634E+03  0.59723506015E+02  0.30022350467E+02  0.18362112478E+03  0.00000000000E+00 0. -1.
         11    1    1    2    0    0  0.75650972321E+02  0.10031584938E+03  0.19896172844E+02  0.12720926438E+03  0.00000000000E+00 0.  1.
</event>
<event>
 7    1  0.2899775E-009  0.1273277E+03  0.7561462E-02  0.1231476E+00
          1   -1    0    0  501    0  0.00000000000E+00  0.00000000000E+00  0.51705368511E+03  0.51705368511E+03  0.00000000000E+00 0. -1.
         -1   -1    0    0    0  501 -0.00000000000E+00 -0.00000000000E+00 -0.49943186211E+02  0.49943186211E+02  0.00000000000E+00 0.  1.
         25    2    1    2    0    0 -0.56535234492E+02  0.95227521037E+02  0.32284136228E+03  0.36350765408E+03  0.12508699323E+03 0.  0.
          5    1    3    3  502    0 -0.17392185330E+02  0.16218589867E+02 -0.44231930631E+01  0.24547256562E+02  0.41800000000E+01 0. -1.
         -5    1    3    3    0  502 -0.39143049161E+02  0.79008931170E+02  0.32726455534E+03  0.33896039752E+03  0.41800000000E+01 0. -1.
        -11    1    1    2    0    0 -0.14453432437E+02  0.83316907605E+01  0.26692482687E+02  0.31477093451E+02  0.00000000000E+00 0. -1.
         11    1    1    2    0    0  0.70988666929E+02 -0.10355921180E+03  0.11757665393E+03  0.17201212379E+03  0.00000000000E+00 0.  1.
</event>
<event>
 7    1  0.2899775E-009  0.1071867E+03  0.7561462E-02  0.1265870E+00
         -2   -1    0    0    0  501 -0.00000000000E+00  0.00000000000E+00  0.27810628447E+02  0.27810628447E+02  0.00000000000E+00 0. -1.
          2   -1    0    0  501    0  0.00000000000E+00 -0.00000000000E+00 -0.45056295080E+03  0.45056295080E+03  0.00000000000E+00 0.  1.
         25    2    1    2    0    0  0.20906895181E+02 -0.16465388113E+02 -0.26508098757E+03  0.29432222290E+03  0.12509769643E+03 0.  0.
          5    1    3    3  502    0  0.40778992261E+02  0.45937195215E+02 -0.11293447374E+03  0.12862666860E+03  0.41800000000E+01 0. -1.
         -5    1    3    3    0  502 -0.19872097080E+02 -0.62402583328E+02 -0.15214651383E+03  0.16569555431E+03  0.41800000000E+01 0. -1.
        -11    1    1    2    0    0 -0.91619525438E+01 -0.34079833179E+02 -0.30292614781E+02  0.46508267159E+02  0.00000000000E+00 0. -1.
         11    1    1    2    0    0 -0.11744942638E+02  0.50545221292E+02 -0.12737872000E+03  0.13754308919E+03  0.00000000000E+00 0.  1.
</event>
<event>
 7    1  0.2899775E-009  0.1060703E+03  0.7561462E-02  0.1268025E+00
          1   -1    0    0  501    0  0.00000000000E+00  0.00000000000E+00  0.16726786083E+02  0.16726786083E+02  0.00000000000E+00 0. -1.
         -1   -1    0    0    0  501 -0.00000000000E+00 -0.00000000000E+00 -0.94277375532E+03  0.94277375532E+03  0.00000000000E+00 0.  1.
         25    2    1    2    0    0  0.16124304201E+01 -0.59783396650E+02 -0.46258492296E+03  0.48291778479E+03  0.12509245170E+03 0.  0.
          5    1    3    3  502    0 -0.43313614737E+02 -0.51357749033E+02 -0.12273534313E+03  0.13998258628E+03  0.41800000000E+01 0. -1.
         -5    1    3    3    0  502  0.44926045157E+02 -0.84256476173E+01 -0.33984957983E+03  0.34293519851E+03  0.41800000000E+01 0. -1.
        -11    1    1    2    0    0  0.13412307774E+02  0.75793305166E+02 -0.42805929328E+03  0.43492444594E+03  0.00000000000E+00 0.  1.
         11    1    1    2    0    0 -0.15024738195E+02 -0.16009908516E+02 -0.35402752991E+02  0.41658310670E+02  0.00000000000E+00 0. -1.
</event>
<event>
 7    1  0.2899775E-009  0.9558957E+02  0.7561462E-02  0.1289854E+00
         -1   -1    0    0    0  501 -0.00000000000E+00  0.00000000000E+00  0.18404242446E+03  0.18404242446E+03  0.00000000000E+00 0.  1.
          1   -1    0    0  501    0  0.00000000000E+00 -0.00000000000E+00 -0.96161538590E+02  0.96161538590E+02  0.00000000000E+00 0. -1.
         25    2    1    2    0    0 -0.71089224726E+01 -0.15762634949E+02  0.10551658955E+02  0.12671417686E+03  0.12508456208E+03 0.  0.
          5    1    3    3  502    0 -0.63693138676E+02 -0.58148423218E+01 -0.11341549320E+02  0.65090179341E+02  0.41800000000E+01 0.  1.
         -5    1    3    3    0  502  0.56584216203E+02 -0.99477926268E+01  0.21893208275E+02  0.61623997518E+02  0.41800000000E+01 0.  1.
        -11    1    1    2    0    0 -0.25528685718E+02  0.24824489093E+02  0.10428750294E+03  0.11019914846E+03  0.00000000000E+00 0.  1.
         11    1    1    2    0    0  0.32637608191E+02 -0.90618541443E+01 -0.26958276021E+02  0.43290637729E+02  0.00000000000E+00 0. -1.
</event>
<event>
 7    1  0.2899775E-009  0.3395924E+03  0.7561462E-02  0.1066970E+00
         -1   -1    0    0    0  501 -0.00000000000E+00  0.00000000000E+00  0.47940094947E+03  0.47940094947E+03  0.00000000000E+00 0.  1.
          1   -1    0    0  501    0  0.00000000000E+00 -0.00000000000E+00 -0.25749040287E+03  0.25749040287E+03  0.00000000000E+00 0. -1.
         25    2    1    2    0    0  0.11978077220E+03  0.29862218917E+03  0.20657149481E+03  0.40229678162E+03  0.12509305649E+03 0.  0.
          5    1    3    3  502    0 -0.13356460478E+02 -0.39384122823E+01  0.10581192789E+02  0.17981662010E+02  0.41800000000E+01 0.  1.
         -5    1    3    3    0  502  0.13313723267E+03  0.30256060145E+03  0.19599030203E+03  0.38431511961E+03  0.41800000000E+01 0.  1.
        -11    1    1    2    0    0 -0.31541194936E+02 -0.19685848887E+03  0.14553497073E+02  0.19989976462E+03  0.00000000000E+00 0.  1.
         11    1    1    2    0    0 -0.88239577260E+02 -0.10176370030E+03  0.78555471186E+00  0.13469480610E+03  0.00000000000E+00 0. -1.
</event>
<event>
 7    1  0.2899775E-009  0.1271808E+03  0.7561462E-02  0.1231700E+00
         -1   -1    0    0    0  501 -0.00000000000E+00  0.00000000000E+00  0.58593783123E+02  0.58593783123E+02  0.00000000000E+00 0.  1.
          1   -1    0    0  501    0  0.00000000000E+00 -0.00000000000E+00 -0.27797218967E+03  0.27797218967E+03  0.00000000000E+00 0. -1.
         25    2    1    2    0    0  0.59820607915E+02 -0.29577647150E+02 -0.11277635644E+03  0.18115875663E+03  0.12508655479E+03 0.  0.
          5    1    3    3  502    0  0.71182194012E+02  0.32264828218E+02 -0.69937362400E+02  0.10496013979E+03  0.41800000000E+01 0.  1.
         -5    1    3    3    0  502 -0.11361586097E+02 -0.61842475368E+02 -0.42838994038E+02  0.76198616841E+02  0.41800000000E+01 0.  1.
        -11    1    1    2    0    0 -0.66686097440E+02 -0.14688846192E+02 -0.64052718158E+02  0.93624507997E+02  0.00000000000E+00 0.  1.
         11    1    1    2    0    0  0.68654895253E+01  0.44266493342E+02 -0.42549331952E+02  0.61782708170E+02  0.00000000000E+00 0. -1.
</event>
<event>
 7    1  0.2899775E-009  0.1171550E+03  0.7561462E-02  0.1247865E+00
         -3   -1    0    0    0  501 -0.00000000000E+00  0.00000000000E+00  0.13658737421E+04  0.13658737421E+04  0.00000000000E+00 0.  1.
          3   -1    0    0  501    0  0.00000000000E+00 -0.00000000000E+00 -0.13763284071E+02  0.13763284071E+02  0.00000000000E+00 0. -1.
         25    2    1    2    0    0  0.69880026017E+02  0.19482877649E+02  0.94696094706E+03  0.95793527420E+03  0.12506859619E+03 0.  0.
          5    1    3    3  502    0  0.10096830453E+03  0.20004961991E+01  0.53886058748E+03  0.54825797362E+03  0.41800000000E+01 0.  1.
         -5    1    3    3    0  502 -0.31088278509E+02  0.17482381450E+02  0.40810035958E+03  0.40967730058E+03  0.41800000000E+01 0.  1.
        -11    1    1    2    0    0 -0.80630543468E+01  0.21630348326E+02  0.23660685695E+02  0.33056207611E+02  0.00000000000E+00 0. -1.
         11    1    1    2    0    0 -0.61816971671E+02 -0.41113225975E+02  0.38148882528E+03  0.38864554436E+03  0.00000000000E+00 0.  1.
</event>
<event>
 7    1  0.2899775E-009  0.9404517E+02  0.7561462E-02  0.1293341E+00
          1   -1    0    0  501    0  0.00000000000E+00  0.00000000000E+00  0.45518784661E+03  0.45518784661E+03  0.00000000000E+00 0. -1.
         -1   -1    0    0    0  501 -0.00000000000E+00 -0.00000000000E+00 -0.39564665059E+02  0.39564665059E+02  0.00000000000E+00 0.  1.
         25    2    1    2    0    0  0.49419746904E+02 -0.28921057921E+01  0.35295529665E+03  0.37772469773E+03  0.12509128738E+03 0.  0.
          5    1    3    3  502    0  0.15464578292E+02  0.34865901241E+02  0.30612682571E+03  0.30852210629E+03  0.41800000000E+01 0. -1.
         -5    1    3    3    0  502  0.33955168613E+02 -0.37758007033E+02  0.46828470941E+02  0.69202591435E+02  0.41800000000E+01 0. -1.
        -11    1    1    2    0    0 -0.54086769283E+02  0.36233644509E+02  0.43319752320E+02  0.78197548216E+02  0.00000000000E+00 0.  1.
         11    1    1    2    0    0  0.46670223788E+01 -0.33341538717E+02  0.19348132576E+02  0.38830265723E+02  0.00000000000E+00 0. -1.
</event>
<event>
 7    1  0.2899775E-009  0.1182248E+03  0.7561462E-02  0.1246055E+00
         -1   -1    0    0    0  501 -0.00000000000E+00  0.00000000000E+00  0.32753924168E+02  0.32753924168E+02  0.00000000000E+00 0.  1.
          1   -1    0    0  501    0  0.00000000000E+00 -0.00000000000E+00 -0.61165059983E+03  0.61165059983E+03  0.00000000000E+00 0. -1.
         25    2    1    2    0    0 -0.82482530015E+02 -0.22113647324E+02 -0.39128436004E+03  0.41957572607E+03  0.12509179966E+03 0.  0.
          5    1    3    3  502    0 -0.67669769537E+01  0.43804075343E+02 -0.18279315562E+03  0.18813665016E+03  0.41800000000E+01 0. -1.
         -5    1    3    3    0  502 -0.75715553061E+02 -0.65917722668E+02 -0.20849120442E+03  0.23143907591E+03  0.41800000000E+01 0. -1.
        -11    1    1    2    0    0  0.59572773948E+02 -0.56168134378E-01 -0.35364398507E+02  0.69278851264E+02  0.00000000000E+00 0.  1.
         11    1    1    2    0    0  0.22909756067E+02  0.22169815459E+02 -0.15224791712E+03  0.15554994666E+03  0.00000000000E+00 0. -1.
</event>
<event>
 7    1  0.2899775E-009  0.7647460E+02  0.7561462E-02  0.1339365E+00
          2   -1    0    0  501    0  0.00000000000E+00  0.00000000000E+00  0.54051590097E+03  0.54051590097E+03  0.00000000000E+00 0. -1.
         -2   -1    0    0    0  501 -0.00000000000E+00 -0.00000000000E+00 -0.24835349025E+02  0.24835349025E+02  0.00000000000E+00 0.  1.
         25    2    1    2    0    0  0.24087298287E+02  0.27542041659E+02  0.25443782285E+03  0.28587449096E+03  0.12508739701E+03 0.  0.
          5    1    3    3  502    0  0.16107298633E+02 -0.25976867192E+02  0.58099806584E+01  0.31392211989E+02  0.41800000000E+01 0.  1.
         -5    1    3    3    0  502  0.79799996549E+01  0.53518908851E+02  0.24862784219E+03  0.25448227898E+03  0.41800000000E+01 0.  1.
        -11    1    1    2    0    0 -0.82184459247E+00  0.17294600110E+02  0.46063789214E+01  0.17916398864E+02  0.00000000000E+00 0.  1.
         11    1    1    2    0    0 -0.23265453695E+02 -0.44836641769E+02  0.25663635017E+03  0.26156036016E+03  0.00000000000E+00 0. -1.
</event>
<event>
 7    1  0.2899775E-009  0.9255893E+02  0.7561462E-02  0.1296771E+00
         -1   -1    0    0    0  501 -0.00000000000E+00  0.00000000000E+00  0.17376165258E+03  0.17376165258E+03  0.00000000000E+00 0.  1.
          1   -1    0    0  501    0  0.00000000000E+00 -0.00000000000E+00 -0.14437594338E+03  0.14437594338E+03  0.00000000000E+00 0. -1.
         25    2    1    2    0    0 -0.58178930257E+01 -0.50510407574E+02 -0.87967290704E+02  0.16115490168E+03  0.12509000339E+03 0.  0.
          5    1    3    3  502    0 -0.61735348378E+02 -0.40809123656E+02 -0.30117869937E+02  0.80007476542E+02  0.41800000000E+01 0.  1.
         -5    1    3    3    0  502  0.55917455352E+02 -0.97012839180E+01 -0.57849420767E+02  0.81147425134E+02  0.41800000000E+01 0.  1.
        -11    1    1    2    0    0 -0.37568278933E+01  0.38714612593E+02  0.13094349798E+03  0.13659844306E+03  0.00000000000E+00 0.  1.
         11    1    1    2    0    0  0.95747209190E+01  0.11795794981E+02 -0.13590498074E+02  0.20384251220E+02  0.00000000000E+00 0. -1.
</event>
<event>
 7    1  0.2899775E-009  0.9400491E+02  0.7561462E-02  0.1293433E+00
         -1   -1    0    0    0  501 -0.00000000000E+00  0.00000000000E+00  0.93714837277E+03  0.93714837277E+03  0.00000000000E+00 0.  1.
          1   -1    0    0  501    0  0.00000000000E+00 -0.00000000000E+00 -0.17058909549E+02  0.17058909549E+02  0.00000000000E+00 0. -1.
         25    2    1    2    0    0 -0.32403184823E+02  0.28341731124E+02  0.69311204626E+03  0.70562400996E+03  0.12509082558E+03 0.  0.
          5    1    3    3  502    0  0.46724877637E+02  0.12754910922E+02  0.19270747128E+03  0.19874492152E+03  0.41800000000E+01 0. -1.
         -5    1    3    3    0  502 -0.79128062460E+02  0.15586820202E+02  0.50040457498E+03  0.50687908844E+03  0.41800000000E+01 0. -1.
        -11    1    1    2    0    0  0.28122991671E+02 -0.38463925112E+02  0.23175300376E+03  0.23660057259E+03  0.00000000000E+00 0.  1.
         11    1    1    2    0    0  0.42801931527E+01  0.10122193988E+02 -0.47755868041E+01  0.11982699774E+02  0.00000000000E+00 0. -1.
</event>
<event>
 7    1  0.2899775E-009  0.1751111E+03  0.7561462E-02  0.1172620E+00
          2   -1    0    0  501    0  0.00000000000E+00  0.00000000000E+00  0.13315268494E+04  0.13315268494E+04  0.00000000000E+00 0.  1.
         -2   -1    0    0    0  501 -0.00000000000E+00 -0.00000000000E+00 -0.71199988435E+02  0.71199988435E+02  0.00000000000E+00 0. -1.
         25    2    1    2    0    0 -0.14833822403E+03  0.21564731341E+02  0.12031040654E+04  0.12188418492E+04  0.12508714868E+03 0.  0.
          5    1    3    3  502    0  0.97522643905E+01 -0.15933137130E+02  0.34188289964E+03  0.34241840048E+03  0.41800000000E+01 0. -1.
         -5    1    3    3    0  502 -0.15809048842E+03  0.37497868470E+02  0.86122116575E+03  0.87642344868E+03  0.41800000000E+01 0. -1.
        -11    1    1    2    0    0  0.83598830635E+02 -0.50467099671E+02  0.56834065023E+02  0.11298585566E+03  0.00000000000E+00 0.  1.
         11    1    1    2    0    0  0.64739393392E+02  0.28902368330E+02  0.38873056353E+00  0.70899133022E+02  0.00000000000E+00 0. -1.
</event>
<event>
 7    1  0.2899775E-009  0.1651803E+03  0.7561462E-02  0.1182969E+00
          1   -1    0    0  501    0  0.00000000000E+00  0.00000000000E+00  0.66131776415E+03  0.66131776415E+03  0.00000000000E+00 0. -1.
         -1   -1    0    0    0  501 -0.00000000000E+00 -0.00000000000E+00 -0.84856289127E+02  0.84856289127E+02  0.00000000000E+00 0.  1.
         25    2    1    2    0    0  0.18087845056E+02 -0.13346148027E+03  0.43454749462E+02  0.18888860948E+03  0.12510577399E+03 0.  0.
          5    1    3    3  502    0  0.71465976816E+02 -0.83162321566E+02  0.18345461655E+02  0.11125370076E+03  0.41800000000E+01 0.  1.
         -5    1    3    3    0  502 -0.53378131761E+02 -0.50299158701E+02  0.25109287807E+02  0.77634908711E+02  0.41800000000E+01 0.  1.
        -11    1    1    2    0    0  0.21908957254E+02  0.51550314901E+02  0.33044095198E+03  0.33515468089E+03  0.00000000000E+00 0. -1.
         11    1    1    2    0    0 -0.39996802310E+02  0.81911165366E+02  0.20256577358E+03  0.22213076291E+03  0.00000000000E+00 0.  1.
</event>
<event>
 7    1  0.2899775E-009  0.2756680E+03  0.7561462E-02  0.1098079E+00
          2   -1    0    0  501    0  0.00000000000E+00  0.00000000000E+00  0.29200404141E+03  0.29200404141E+03  0.00000000000E+00 0. -1.
         -2   -1    0    0    0  501 -0.00000000000E+00 -0.00000000000E+00 -0.32423493097E+03  0.32423493097E+03  0.00000000000E+00 0.  1.
         25    2    1    2    0    0  0.22487072249E+03 -0.15700022497E+03  0.71363009247E+02  0.30976166396E+03  0.12507476523E+03 0.  0.
          5    1    3    3  502    0  0.55771037840E+02 -0.41636250896E+02 -0.36112891964E+02  0.78521330965E+02  0.41800000000E+01 0. -1.
         -5    1    3    3    0  502  0.16909968465E+03 -0.11536397407E+03  0.10747590121E+03  0.23124033299E+03  0.41800000000E+01 0. -1.
        -11    1    1    2    0    0 -0.94506887595E+02  0.43591244470E+02  0.17812443593E+01  0.10409092770E+03  0.00000000000E+00 0. -1.
         11    1    1    2    0    0 -0.13036383489E+03  0.11340898050E+03 -0.10537514316E+03  0.20238638072E+03  0.00000000000E+00 0.  1.
</event>
<event>
 7    1  0.2899775E-009  0.3316622E+03  0.7561462E-02  0.1070404E+00
         -2   -1    0    0    0  501 -0.00000000000E+00  0.00000000000E+00  0.54181406842E+02  0.54181406842E+02  0.00000000000E+00 0.  1.
          2   -1    0    0  501    0  0.00000000000E+00 -0.00000000000E+00 -0.27703885675E+04  0.27703885675E+04  0.00000000000E+00 0. -1.
         25    2    1    2    0    0  0.18432254857E+03 -0.26615284285E+03 -0.20394230449E+04  0.20687449657E+04  0.12508892715E+03 0.  0.
          5    1    3    3  502    0  0.11159852196E+03 -0.21831585299E+03 -0.11992663271E+04  0.12240805683E+04  0.41800000000E+01 0.  1.
         -5    1    3    3    0  502  0.72724026609E+02 -0.47836989863E+02 -0.84015671771E+03  0.84466439748E+03  0.41800000000E+01 0.  1.
        -11    1    1    2    0    0 -0.14151634469E+03  0.14566143468E+03 -0.47939552407E+03  0.52063826008E+03  0.00000000000E+00 0. -1.
         11    1    1    2    0    0 -0.42806203877E+02  0.12049140817E+03 -0.19738859173E+03  0.23518674852E+03  0.00000000000E+00 0.  1.
</event>
<event>
 7    1  0.2899775E-009  0.1255916E+03  0.7561462E-02  0.1234148E+00
          4   -1    0    0  501    0  0.00000000000E+00  0.00000000000E+00  0.15974865916E+03  0.15974865916E+03  0.00000000000E+00 0. -1.
         -4   -1    0    0    0  501 -0.00000000000E+00 -0.00000000000E+00 -0.31269098618E+03  0.31269098618E+03  0.00000000000E+00 0.  1.
         25    2    1    2    0    0 -0.10254070769E+03 -0.71362735582E+02  0.79017067071E+02  0.19364623666E+03  0.12509169165E+03 0.  0.
          5    1    3    3  502    0 -0.86320455593E+02 -0.64450960192E+02 -0.47782713065E+01  0.10791409361E+03  0.41800000000E+01 0. -1.
         -5    1    3    3    0  502 -0.16220252102E+02 -0.69117753897E+01  0.83795338378E+02  0.85732143045E+02  0.41800000000E+01 0. -1.
        -11    1    1    2    0    0  0.21568877627E+02  0.10683372031E+02 -0.14003155976E+03  0.14208514577E+03  0.00000000000E+00 0.  1.
         11    1    1    2    0    0  0.80971830068E+02  0.60679363551E+02 -0.91927834337E+02  0.13670826292E+03  0.00000000000E+00 0. -1.
</event>
<event>
 7    1  0.2899775E-009  0.2164583E+03  0.7561462E-02  0.1136551E+00
          1   -1    0    0  501    0  0.00000000000E+00  0.00000000000E+00  0.46564931331E+02  0.46564931331E+02  0.00000000000E+00 0. -1.
         -1   -1    0    0    0  501 -0.00000000000E+00 -0.00000000000E+00 -0.15016954157E+04  0.15016954157E+04  0.00000000000E+00 0.  1.
         25    2    1    2    0    0  0.31394986007E+02 -0.19897418889E+03 -0.87474530243E+03  0.90631312343E+03  0.12509100923E+03 0.  0.
          5    1    3    3  502    0  0.14850452048E+02 -0.42059753893E+02 -0.46603956264E+03  0.46818789516E+03  0.41800000000E+01 0. -1.
         -5    1    3    3    0  502  0.16544533959E+02 -0.15691443500E+03 -0.40870573979E+03  0.43812522827E+03  0.41800000000E+01 0. -1.
        -11    1    1    2    0    0 -0.71134179869E+02  0.92920384044E+02 -0.46794644628E+03  0.48235686572E+03  0.00000000000E+00 0.  1.
         11    1    1    2    0    0  0.39739193862E+02  0.10605380485E+03 -0.11243873565E+03  0.15959035787E+03  0.00000000000E+00 0. -1.
</event>
<event>
 7    1  0.2899775E-009  0.9041244E+02  0.7561462E-02  0.1301856E+00
          1   -1    0    0  501    0  0.00000000000E+00  0.00000000000E+00  0.82269509274E+03  0.82269509274E+03  0.00000000000E+00 0. -1.
         -1   -1    0    0    0  501 -0.00000000000E+00 -0.00000000000E+00 -0.15945378461E+02  0.15945378461E+02  0.00000000000E+00 0.  1.
         25    2    1    2    0    0 -0.57292547112E+01  0.24977409524E+02  0.55641920614E+03  0.57088184702E+03  0.12508818870E+03 0.  0.
          5    1    3    3  502    0 -0.14941730977E+00 -0.32440997245E+02  0.43669264186E+03  0.43791594683E+03  0.41800000000E+01 0.  1.
         -5    1    3    3    0  502 -0.55798374015E+01  0.57418406769E+02  0.11972656427E+03  0.13296590019E+03  0.41800000000E+01 0.  1.
        -11    1    1    2    0    0 -0.20104519828E+01  0.32357690670E+02  0.13359907927E+03  0.13747645632E+03  0.00000000000E+00 0. -1.
         11    1    1    2    0    0  0.77397066940E+01 -0.57335100194E+02  0.11673142888E+03  0.13028216786E+03  0.00000000000E+00 0.  1.
</event>
<event>
 7    1  0.2899775E-009  0.1021703E+03  0.7561462E-02  0.1275797E+00
         -1   -1    0    0    0  501 -0.00000000000E+00  0.00000000000E+00  0.72016092826E+02  0.72016092826E+02  0.00000000000E+00 0.  1.
          1   -1    0    0  501    0  0.00000000000E+00 -0.00000000000E+00 -0.25199892585E+03  0.25199892585E+03  0.00000000000E+00 0. -1.
         25    2    1    2    0    0  0.72332379167E+02  0.57747812805E+01 -0.13644219379E+03  0.19882368566E+03  0.12509622120E+03 0.  0.
          5    1    3    3  502    0 -0.28878372556E+02  0.76217034009E+01 -0.16525331648E+01  0.30203543336E+02  0.41800000000E+01 0.  1.
         -5    1    3    3    0  502  0.10121075172E+03 -0.18469221204E+01 -0.13478966062E+03  0.16862014232E+03  0.41800000000E+01 0.  1.
        -11    1    1    2    0    0 -0.47704214996E+02 -0.62870747149E+00 -0.72525088364E+02  0.86809998524E+02  0.00000000000E+00 0. -1.
         11    1    1    2    0    0 -0.24628164171E+02 -0.51460738090E+01  0.28984449129E+02  0.38381334492E+02  0.00000000000E+00 0.  1.
</event>
<event>
 7    1  0.2899775E-009  0.1196392E+03  0.7561462E-02  0.1243693E+00
         -3   -1    0    0    0  501 -0.00000000000E+00  0.00000000000E+00  0.71386875263E+02  0.71386875263E+02  0.00000000000E+00 0.  1.
          3   -1    0    0  501    0  0.00000000000E+00 -0.00000000000E+00 -0.25560573460E+03  0.25560573460E+03  0.00000000000E+00 0. -1.
         25    2    1    2    0    0  0.63268215139E+02 -0.27650760427E+02 -0.15154078550E+03  0.20827982593E+03  0.12509374333E+03 0.  0.
          5    1    3    3  502    0  0.65827463317E+02 -0.61960748392E+02 -0.55461702050E+02  0.10614076532E+03  0.41800000000E+01 0.  1.
         -5    1    3    3    0  502 -0.25592481781E+01  0.34309987965E+02 -0.96079083450E+02  0.10213906061E+03  0.41800000000E+01 0.  1.
        -11    1    1    2    0    0 -0.54027673753E+02 -0.25804832417E+02 -0.16629985906E+02  0.62140448490E+02  0.00000000000E+00 0.  1.
         11    1    1    2    0    0 -0.92405413858E+01  0.53455592844E+02 -0.16048087930E+02  0.56572335444E+02  0.00000000000E+00 0. -1.
</event>
<event>
 7    1  0.2899775E-009  0.1016235E+03  0.7561462E-02  0.1276919E+00
         -2   -1    0    0    0  501 -0.00000000000E+00  0.00000000000E+00  0.20920257074E+02  0.20920257074E+02  0.00000000000E+00 0.  1.
          2   -1    0    0  501    0  0.00000000000E+00 -0.00000000000E+00 -0.73419862159E+03  0.73419862159E+03  0.00000000000E+00 0. -1.
         25    2    1    2    0    0  0.37339309317E+02 -0.33444856827E+02 -0.29502455374E+03  0.32434466892E+03  0.12508874641E+03 0.  0.
          5    1    3    3  502    0  0.27275823643E+02  0.27568431268E+02 -0.23447816376E+03  0.23770037997E+03  0.41800000000E+01 0.  1.
         -5    1    3    3    0  502  0.10063485673E+02 -0.61013288095E+02 -0.60546389982E+02  0.86644288951E+02  0.41800000000E+01 0.  1.
        -11    1    1    2    0    0 -0.61691645928E+02  0.10060533394E+01 -0.22478932539E+03  0.23310322205E+03  0.00000000000E+00 0.  1.
         11    1    1    2    0    0  0.24352336611E+02  0.32438803487E+02 -0.19346448538E+03  0.19767098769E+03  0.00000000000E+00 0. -1.
</event>
<event>
 7    1  0.2899775E-009  0.2323880E+03  0.7561462E-02  0.1124970E+00
          1   -1    0    0  501    0  0.00000000000E+00  0.00000000000E+00  0.34521309846E+03  0.34521309846E+03  0.00000000000E+00 0. -1.
         -1   -1    0    0    0  501 -0.00000000000E+00 -0.00000000000E+00 -0.18480196024E+03  0.18480196024E+03  0.00000000000E+00 0.  1.
         25    2    1    2    0    0  0.12029423254E+03 -0.19344901763E+03  0.97842799377E+02  0.27769917223E+03  0.12510152701E+03 0.  0.
          5    1    3    3  502    0 -0.77248629651E+01 -0.11967728535E+02  0.47731546899E+02  0.49986728273E+02  0.41800000000E+01 0.  1.
         -5    1    3    3    0  502  0.12801909551E+03 -0.18148128909E+03  0.50111252478E+02  0.22771244395E+03  0.41800000000E+01 0.  1.
        -11    1    1    2    0    0 -0.45449235416E+02  0.73260302953E+02 -0.19875107738E+02  0.88474430748E+02  0.00000000000E+00 0.  1.
         11    1    1    2    0    0 -0.74844997127E+02  0.12018871467E+03  0.82443446576E+02  0.16384145572E+03  0.00000000000E+00 0. -1.
</event>
<event>
 7    1  0.2899775E-009  0.8166429E+02  0.7561462E-02  0.1324394E+00
         -3   -1    0    0    0  501 -0.00000000000E+00  0.00000000000E+00  0.10743162788E+03  0.10743162788E+03  0.00000000000E+00 0.  1.
          3   -1    0    0  501    0  0.00000000000E+00 -0.00000000000E+00 -0.14208828972E+03  0.14208828972E+03  0.00000000000E+00 0. -1.
         25    2    1    2    0    0  0.39748483471E+02  0.32313556340E+02 -0.62394177874E+02  0.14887234292E+03  0.12508330500E+03 0.  0.
          5    1    3    3  502    0  0.45941599539E+02 -0.12526936019E+01  0.26739354275E+02  0.53335403593E+02  0.41800000000E+01 0. -1.
         -5    1    3    3    0  502 -0.61931160681E+01  0.33566249942E+02 -0.89133532148E+02  0.95536939322E+02  0.41800000000E+01 0. -1.
        -11    1    1    2    0    0 -0.18511685428E+02 -0.51155506381E+02 -0.80200346711E+01  0.54989901679E+02  0.00000000000E+00 0. -1.
         11    1    1    2    0    0 -0.21236798042E+02  0.18841950042E+02  0.35757550704E+02  0.45657673011E+02  0.00000000000E+00 0.  1.
</event>
<event>
 7    1  0.2899775E-009  0.2918478E+03  0.7561462E-02  0.1089388E+00
         -1   -1    0    0    0  501 -0.00000000000E+00  0.00000000000E+00  0.60305005192E+02  0.60305005192E+02  0.00000000000E+00 0.  1.
          1   -1    0    0  501    0  0.00000000000E+00 -0.00000000000E+00 -0.18584333747E+04  0.18584333747E+04  0.00000000000E+00 0. -1.
         25    2    1    2    0    0 -0.23578638868E+03  0.14371765303E+03 -0.13553600661E+04  0.13888479060E+04  0.12509041577E+03 0.  0.
          5    1    3    3  502    0 -0.31731993917E+02  0.69630794331E+02 -0.52524849563E+03  0.53080959065E+03  0.41800000000E+01 0. -1.
         -5    1    3    3    0  502 -0.20405439477E+03  0.74086858701E+02 -0.83011157051E+03  0.85803831532E+03  0.41800000000E+01 0. -1.
        -11    1    1    2    0    0  0.21228360773E+03 -0.88632220521E+02 -0.33102662804E+03  0.40311118702E+03  0.00000000000E+00 0.  1.
         11    1    1    2    0    0  0.23502780954E+02 -0.55085432511E+02 -0.11174167535E+03  0.12677928694E+03  0.00000000000E+00 0. -1.
</event>
<event>
 7    1  0.2899775E-009  0.6429680E+02  0.7561462E-02  0.1380636E+00
         -1   -1    0    0    0  501 -0.00000000000E+00  0.00000000000E+00  0.50574077915E+02  0.50574077915E+02  0.00000000000E+00 0.  1.
          1   -1    0    0  501    0  0.00000000000E+00 -0.00000000000E+00 -0.31656736213E+03  0.31656736213E+03  0.00000000000E+00 0. -1.
         25    2    1    2    0    0  0.44104300656E+02 -0.83260993558E+01 -0.74998907832E+02  0.15259848743E+03  0.12508776488E+03 0.  0.
          5    1    3    3  502    0  0.47930208742E+02 -0.16151028554E+02 -0.10740027441E+03  0.11878742348E+03  0.41800000000E+01 0.  1.
         -5    1    3    3    0  502 -0.38259080858E+01  0.78249291978E+01  0.32401366575E+02  0.33811063952E+02  0.41800000000E+01 0.  1.
        -11    1    1    2    0    0 -0.41618530128E+02  0.26826322498E+02 -0.18944872145E+03  0.19581259329E+03  0.00000000000E+00 0. -1.
         11    1    1    2    0    0 -0.24857705283E+01 -0.18500223142E+02 -0.15456549265E+01  0.18730359329E+02  0.00000000000E+00 0.  1.
</event>
<event>
 7    1  0.2899775E-009  0.1467291E+03  0.7561462E-02  0.1204551E+00
          2   -1    0    0  501    0  0.00000000000E+00  0.00000000000E+00  0.93102342633E+02  0.93102342633E+02  0.00000000000E+00 0. -1.
         -2   -1    0    0    0  501 -0.00000000000E+00 -0.00000000000E+00 -0.26284408738E+03  0.26284408738E+03  0.00000000000E+00 0.  1.
         25    2    1    2    0    0 -0.10372009955E+03 -0.35444291428E+02 -0.60192109767E+02  0.17687445986E+03  0.12508927863E+03 0.  0.
          5    1    3    3  502    0 -0.13253259093E+03 -0.35066704161E+02 -0.48096958178E+02  0.14534562664E+03  0.41800000000E+01 0.  1.
         -5    1    3    3    0  502  0.28812491383E+02 -0.37758726658E+00 -0.12095151589E+02  0.31528833213E+02  0.41800000000E+01 0.  1.
        -11    1    1    2    0    0  0.10841426887E+03  0.44336304492E+02 -0.66140825136E+02  0.13451382955E+03  0.00000000000E+00 0. -1.
         11    1    1    2    0    0 -0.46941693262E+01 -0.88920130640E+01 -0.43408809844E+02  0.44558140604E+02  0.00000000000E+00 0.  1.
</event>
<event>
 7    1  0.2899775E-009  0.1513074E+03  0.7561462E-02  0.1198876E+00
          2   -1    0    0  501    0  0.00000000000E+00  0.00000000000E+00  0.10395089808E+04  0.10395089808E+04  0.00000000000E+00 0. -1.
         -2   -1    0    0    0  501 -0.00000000000E+00 -0.00000000000E+00 -0.24257808492E+02  0.24257808492E+02  0.00000000000E+00 0.  1.
         25    2    1    2    0    0  0.10728800818E+03  0.16285822872E+02  0.67860070684E+03  0.69851439236E+03  0.12508993681E+03 0.  0.
          5    1    3    3  502    0  0.22837684877E+02  0.61011759733E+02  0.35974634454E+03  0.36562125142E+03  0.41800000000E+01 0.  1.
         -5    1    3    3    0  502  0.84450323306E+02 -0.44725936861E+02  0.31885436230E+03  0.33289314095E+03  0.41800000000E+01 0.  1.
        -11    1    1    2    0    0 -0.11949046807E+03  0.22233378943E+01  0.28539691372E+03  0.30940962098E+03  0.00000000000E+00 0.  1.
         11    1    1    2    0    0  0.12202459885E+02 -0.18509160766E+02  0.51253551772E+02  0.55842775977E+02  0.00000000000E+00 0. -1.
</event>
<event>
 7    1  0.2899775E-009  0.1213656E+03  0.7561462E-02  0.1240861E+00
          1   -1    0    0  501    0  0.00000000000E+00  0.00000000000E+00  0.57193285945E+03  0.57193285945E+03  0.00000000000E+00 0. -1.
         -1   -1    0    0    0  501 -0.00000000000E+00 -0.00000000000E+00 -0.26064507745E+02  0.26064507745E+02  0.00000000000E+00 0.  1.
         25    2    1    2    0    0  0.56449230949E+02  0.41394646297E+01  0.33706153229E+03  0.36395335251E+03  0.12509162806E+03 0.  0.
          5    1    3    3  502    0  0.95798415743E+02 -0.66644513773E+01  0.22801296458E+03  0.24744521775E+03  0.41800000000E+01 0.  1.
         -5    1    3    3    0  502 -0.39349184795E+02  0.10803916007E+02  0.10904856771E+03  0.11650813476E+03  0.41800000000E+01 0.  1.
        -11    1    1    2    0    0 -0.64137452003E+02  0.29849878552E+02  0.13442328540E+03  0.15190209892E+03  0.00000000000E+00 0. -1.
         11    1    1    2    0    0  0.76882210541E+01 -0.33989343181E+02  0.74383534008E+02  0.82141915758E+02  0.00000000000E+00 0.  1.
</event>
<event>
 7    1  0.2899775E-009  0.9402406E+02  0.7561462E-02  0.1293389E+00
          2   -1    0    0  501    0  0.00000000000E+00  0.00000000000E+00  0.28251369993E+02  0.28251369993E+02  0.00000000000E+00 0. -1.
         -2   -1    0    0    0  501 -0.00000000000E+00 -0.00000000000E+00 -0.45074803564E+03  0.45074803564E+03  0.00000000000E+00 0.  1.
         25    2    1    2    0    0 -0.25327985473E+02  0.12624719132E+02 -0.24978498072E+03  0.28078621352E+03  0.12508985062E+03 0.  0.
          5    1    3    3  502    0 -0.62787808092E+02  0.21627522916E+02 -0.22536132084E+03  0.23497926701E+03  0.41800000000E+01 0. -1.
         -5    1    3    3    0  502  0.37459822619E+02 -0.90028037839E+01 -0.24423659872E+02  0.45806946506E+02  0.41800000000E+01 0. -1.
        -11    1    1    2    0    0  0.52058222704E+02  0.23605412150E+01 -0.15335580892E+03  0.16196800559E+03  0.00000000000E+00 0.  1.
         11    1    1    2    0    0 -0.26730237231E+02 -0.14985260347E+02 -0.19355876013E+02  0.36245186526E+02  0.00000000000E+00 0. -1.
</event>
<event>
 7    1  0.2899775E-009  0.1749193E+03  0.7561462E-02  0.1172813E+00
          2   -1    0    0  501    0  0.00000000000E+00  0.00000000000E+00  0.46088157778E+03  0.46088157778E+03  0.00000000000E+00 0. -1.
         -2   -1    0    0    0  501 -0.00000000000E+00 -0.00000000000E+00 -0.88110948507E+02  0.88110948507E+02  0.00000000000E+00 0.  1.
         25    2    1    2    0    0 -0.34169603888E+02 -0.15203217785E+03  0.28435441888E+03  0.34754260206E+03  0.12508828793E+03 0.  0.
          5    1    3    3  502    0 -0.35763024188E+02 -0.93415637105E+01  0.10404103087E+02  0.38626111281E+02  0.41800000000E+01 0. -1.
         -5    1    3    3    0  502  0.15934203003E+01 -0.14269061414E+03  0.27395031579E+03  0.30891649078E+03  0.41800000000E+01 0. -1.
        -11    1    1    2    0    0  0.51291979254E+02  0.74308007301E+02  0.81376869482E+02  0.12155139642E+03  0.00000000000E+00 0. -1.
         11    1    1    2    0    0 -0.17122375365E+02  0.77724170551E+02  0.70393409170E+01  0.79898527812E+02  0.00000000000E+00 0.  1.
</event>
<event>
 7    1  0.2899775E-009  0.1105828E+03  0.7561462E-02  0.1259494E+00
         -2   -1    0    0    0  501 -0.00000000000E+00  0.00000000000E+00  0.28106206381E+02  0.28106206381E+02  0.00000000000E+00 0.  1.
          2   -1    0    0  501    0  0.00000000000E+00 -0.00000000000E+00 -0.88843719568E+03  0.88843719568E+03  0.00000000000E+00 0. -1.
         25    2    1    2    0    0  0.42702414552E+02 -0.61859073181E+02 -0.71435224138E+03  0.72910706251E+03  0.12509173715E+03 0.  0.
          5    1    3    3  502    0 -0.22940458039E+02 -0.75265384508E+02 -0.38045209877E+03  0.38852595097E+03  0.41800000000E+01 0. -1.
         -5    1    3    3    0  502  0.65642872591E+02  0.13406311327E+02 -0.33390014260E+03  0.34058111154E+03  0.41800000000E+01 0. -1.
        -11    1    1    2    0    0 -0.16433937414E+02  0.26740615118E+02 -0.13964093998E+03  0.14312486477E+03  0.00000000000E+00 0. -1.
         11    1    1    2    0    0 -0.26268477139E+02  0.35118458063E+02 -0.63378079433E+01  0.44311474783E+02  0.00000000000E+00 0.  1.
</event>
<event>
 7    1  0.2899775E-009  0.1146555E+03  0.7561462E-02  0.1252184E+00
          2   -1    0    0  501    0  0.00000000000E+00  0.00000000000E+00  0.37034187365E+03  0.37034187365E+03  0.00000000000E+00 0. -1.
         -2   -1    0    0    0  501 -0.00000000000E+00 -0.00000000000E+00 -0.38081815592E+02  0.38081815592E+02  0.00000000000E+00 0.  1.
         25    2    1    2    0    0 -0.50289530501E+02  0.16847096821E+02  0.19456073625E+03  0.23730442855E+03  0.12508657070E+03 0.  0.
          5    1    3    3  502    0 -0.81098873923E+02 -0.16551584335E+02  0.15954780774E+03  0.17978864717E+03  0.41800000000E+01 0.  1.
         -5    1    3    3    0  502  0.30809343423E+02  0.33398681157E+02  0.35012928508E+02  0.57515781380E+02  0.41800000000E+01 0.  1.
        -11    1    1    2    0    0  0.40541443630E+02 -0.51078370457E+02  0.78603201297E+02  0.10213261886E+03  0.00000000000E+00 0.  1.
         11    1    1    2    0    0  0.97480868711E+01  0.34231273635E+02  0.59096120515E+02  0.68986641839E+02  0.00000000000E+00 0. -1.
</event>
<event>
 7    1  0.2899775E-009  0.1101324E+03  0.7561462E-02  0.1260325E+00
         -1   -1    0    0    0  501 -0.00000000000E+00  0.00000000000E+00  0.20049654125E+02  0.20049654125E+02  0.00000000000E+00 0. -1.
          1   -1    0    0  501    0  0.00000000000E+00 -0.00000000000E+00 -0.65103108881E+03  0.65103108881E+03  0.00000000000E+00 0.  1.
         25    2    1    2    0    0 -0.76791780906E+01  0.34334884611E+02 -0.37981880567E+03  0.40143982486E+03  0.12511496220E+03 0.  0.
          5    1    3    3  502    0 -0.65450950451E+02  0.10921448320E+02 -0.22061952486E+03  0.23042038125E+03  0.41800000000E+01 0.  1.
         -5    1    3    3    0  502  0.57771772361E+02  0.23413436291E+02 -0.15919928081E+03  0.17101944361E+03  0.41800000000E+01 0.  1.
        -11    1    1    2    0    0 -0.27421555273E+02  0.14610442175E+02 -0.13792608960E+03  0.14138250566E+03  0.00000000000E+00 0.  1.
         11    1    1    2    0    0  0.35100733363E+02 -0.48945326785E+02 -0.11323653941E+03  0.12825841241E+03  0.00000000000E+00 0. -1.
</event>
<event>
 7    1  0.2899775E-009  0.8676571E+02  0.7561462E-02  0.1310879E+00
          1   -1    0    0  501    0  0.00000000000E+00  0.00000000000E+00  0.67031455127E+02  0.67031455127E+02  0.00000000000E+00 0.  1.
         -1   -1    0    0    0  501 -0.00000000000E+00 -0.00000000000E+00 -0.20517934450E+03  0.20517934450E+03  0.00000000000E+00 0. -1.
         25    2    1    2    0    0  0.32857263114E+02 -0.28010436012E+02 -0.98057487188E+02  0.16468789924E+03  0.12507057647E+03 0.  0.
          5    1    3    3  502    0 -0.10205293812E+02 -0.61188050102E+02 -0.90274798501E+02  0.10961358101E+03  0.41800000000E+01 0. -1.
         -5    1    3    3    0  502  0.43062556926E+02  0.33177614090E+02 -0.77826886873E+01  0.55074318234E+02  0.41800000000E+01 0. -1.
        -11    1    1    2    0    0 -0.28560306969E+02  0.37077535210E+02  0.16821508287E+02  0.49733267462E+02  0.00000000000E+00 0.  1.
         11    1    1    2    0    0 -0.42969561451E+01 -0.90670991976E+01 -0.56911910473E+02  0.57789632925E+02  0.00000000000E+00 0. -1.
</event>
<event>
 7    1  0.2899775E-009  0.1066422E+03  0.7561462E-02  0.1266917E+00
         -2   -1    0    0    0  501 -0.00000000000E+00  0.00000000000E+00  0.21356294830E+02  0.21356294830E+02  0.00000000000E+00 0.  1.
          2   -1    0    0  501    0  0.00000000000E+00 -0.00000000000E+00 -0.78918003887E+03  0.78918003887E+03  0.00000000000E+00 0. -1.
         25    2    1    2    0    0  0.60777511491E+02  0.37984334215E+02 -0.54360967705E+03  0.56240200569E+03  0.12509124458E+03 0.  0.
          5    1    3    3  502    0  0.79491798024E+02  0.19288557994E+02 -0.52086629077E+03  0.52726668744E+03  0.41800000000E+01 0. -1.
         -5    1    3    3    0  502 -0.18714286532E+02  0.18695776221E+02 -0.22743386282E+02  0.35135318249E+02  0.41800000000E+01 0. -1.
        -11    1    1    2    0    0 -0.78652463745E+02 -0.25088594255E+02 -0.15675827784E+03  0.17716886093E+03  0.00000000000E+00 0.  1.
         11    1    1    2    0    0  0.17874952253E+02 -0.12895739960E+02 -0.67455789147E+02  0.70965467071E+02  0.00000000000E+00 0. -1.
</event>
<event>
 7    1  0.2899775E-009  0.3928297E+03  0.7561462E-02  0.1046291E+00
          1   -1    0    0  501    0  0.00000000000E+00  0.00000000000E+00  0.28865388488E+04  0.28865388488E+04  0.00000000000E+00 0. -1.
         -1   -1    0    0    0  501 -0.00000000000E+00 -0.00000000000E+00 -0.59124909623E+02  0.59124909623E+02  0.00000000000E+00 0.  1.
         25    2    1    2    0    0  0.10222379650E+03 -0.37619109592E+03  0.11371498284E+04  0.12086052378E+04  0.12508974175E+03 0.  0.
          5    1    3    3  502    0 -0.79244619801E+01 -0.64961205828E+02  0.95243310096E+02  0.11563527091E+03  0.41800000000E+01 0. -1.
         -5    1    3    3    0  502  0.11014825848E+03 -0.31122989009E+03  0.10419065183E+04  0.10929699669E+04  0.41800000000E+01 0. -1.
        -11    1    1    2    0    0 -0.42934744077E+02  0.17280289423E+03  0.57822823496E+03  0.60502241628E+03  0.00000000000E+00 0.  1.
         11    1    1    2    0    0 -0.59289052425E+02  0.20338820169E+03  0.11120358758E+04  0.11320361043E+04  0.00000000000E+00 0. -1.
</event>
<event>
 7    1  0.2899775E-009  0.6306292E+02  0.7561462E-02  0.1385410E+00
         -4   -1    0    0    0  501 -0.00000000000E+00  0.00000000000E+00  0.12374215348E+03  0.12374215348E+03  0.00000000000E+00 0.  1.
          4   -1    0    0  501    0  0.00000000000E+00 -0.00000000000E+00 -0.95132879345E+02  0.95132879345E+02  0.00000000000E+00 0. -1.
         25    2    1    2    0    0  0.38461279688E+01  0.12178730291E+01  0.11192409355E+02  0.12565971295E+03  0.12509523379E+03 0.  0.
          5    1    3    3  502    0  0.85301823111E+01  0.31947353085E+02  0.59420661913E+02  0.68129911504E+02  0.41800000000E+01 0. -1.
         -5    1    3    3    0  502 -0.46840543423E+01 -0.30729480056E+02 -0.48228252557E+02  0.57529801445E+02  0.41800000000E+01 0. -1.
        -11    1    1    2    0    0  0.25907941039E+02  0.12384772223E+02 -0.26077830357E+02  0.38789911421E+02  0.00000000000E+00 0. -1.
         11    1    1    2    0    0 -0.29754069008E+02 -0.13602645252E+02  0.43494695133E+02  0.54425408451E+02  0.00000000000E+00 0.  1.
</event>
<event>
 7    1  0.2899775E-009  0.2577491E+03  0.7561462E-02  0.1108503E+00
          2   -1    0    0  501    0  0.00000000000E+00  0.00000000000E+00  0.68322096727E+03  0.68322096727E+03  0.00000000000E+00 0. -1.
         -2   -1    0    0    0  501 -0.00000000000E+00 -0.00000000000E+00 -0.11738003296E+03  0.11738003296E+03  0.00000000000E+00 0.  1.
         25    2    1    2    0    0  0.23574361959E+02 -0.23894510138E+03  0.40246109005E+03  0.48504749366E+03  0.12508249311E+03 0.  0.
          5    1    3    3  502    0  0.73571862128E+02 -0.11080715165E+03  0.19324134082E+03  0.23462892395E+03  0.41800000000E+01 0. -1.
         -5    1    3    3    0  502 -0.49997500169E+02 -0.12813794973E+03  0.20921974924E+03  0.25041856971E+03  0.41800000000E+01 0. -1.
        -11    1    1    2    0    0  0.12440016069E+02  0.11708680674E+03  0.12671899843E+02  0.11842572085E+03  0.00000000000E+00 0.  1.
         11    1    1    2    0    0 -0.36014378029E+02  0.12185829464E+03  0.15070794441E+03  0.19712778573E+03  0.00000000000E+00 0. -1.
</event>
<event>
 7    1  0.2899775E-009  0.1845080E+03  0.7561462E-02  0.1163510E+00
         -1   -1    0    0    0  501 -0.00000000000E+00  0.00000000000E+00  0.13490474199E+03  0.13490474199E+03  0.00000000000E+00 0.  1.
          1   -1    0    0  501    0  0.00000000000E+00 -0.00000000000E+00 -0.32114051424E+03  0.32114051424E+03  0.00000000000E+00 0. -1.
         25    2    1    2    0    0 -0.12690744727E+03  0.97441004668E+02 -0.14804995074E+03  0.25132929390E+03  0.12508947396E+03 0.  0.
          5    1    3    3  502    0 -0.48699963696E+02  0.45238512034E+01 -0.11553848413E+03  0.12553392135E+03  0.41800000000E+01 0.  1.
         -5    1    3    3    0  502 -0.78207483575E+02  0.92917153465E+02 -0.32511466608E+02  0.12579537255E+03  0.41800000000E+01 0.  1.
        -11    1    1    2    0    0  0.11037274431E+03 -0.11592111591E+02 -0.46476462092E+01  0.11107709194E+03  0.00000000000E+00 0. -1.
         11    1    1    2    0    0  0.16534702959E+02 -0.85848893078E+02 -0.33538175310E+02  0.93638870389E+02  0.00000000000E+00 0.  1.
</event>
<event>
 7    1  0.2899775E-009  0.7103663E+02  0.7561462E-02  0.1356603E+00
         -1   -1    0    0    0  501 -0.00000000000E+00  0.00000000000E+00  0.12856017771E+03  0.12856017771E+03  0.00000000000E+00 0.  1.
          1   -1    0    0  501    0  0.00000000000E+00 -0.00000000000E+00 -0.16966016570E+03  0.16966016570E+03  0.00000000000E+00 0. -1.
         25    2    1    2    0    0  0.47342807740E+01  0.70172783095E+02  0.49767949498E+02  0.15189701225E+03  0.12509684501E+03 0.  0.
          5    1    3    3  502    0  0.35043875324E+01  0.10627141301E+02  0.82804401622E+02  0.83661569386E+02  0.41800000000E+01 0.  1.
         -5    1    3    3    0  502  0.12298932416E+01  0.59545641795E+02 -0.33036452124E+02  0.68235442866E+02  0.41800000000E+01 0.  1.
        -11    1    1    2    0    0 -0.11768247523E+00 -0.27692337922E+02  0.15470350965E+02  0.31720832078E+02  0.00000000000E+00 0.  1.
         11    1    1    2    0    0 -0.46165982988E+01 -0.42480445173E+02 -0.10633828846E+03  0.11460249907E+03  0.00000000000E+00 0. -1.
</event>
<event>
 7    1  0.2899775E-009  0.7422531E+02  0.7561462E-02  0.1346287E+00
         -1   -1    0    0    0  501 -0.00000000000E+00  0.00000000000E+00  0.19746019099E+03  0.19746019099E+03  0.00000000000E+00 0.  1.
          1   -1    0    0  501    0  0.00000000000E+00 -0.00000000000E+00 -0.71968323776E+02  0.71968323776E+02  0.00000000000E+00 0. -1.
         25    2    1    2    0    0  0.19764291885E+02 -0.26723257005E+02  0.27778784088E+02  0.13237925056E+03  0.12509134837E+03 0.  0.
          5    1    3    3  502    0 -0.18328456530E+02 -0.10251840547E+02 -0.44242154322E+02  0.49151532757E+02  0.41800000000E+01 0.  1.
         -5    1    3    3    0  502  0.38092748415E+02 -0.16471416457E+02  0.72020938410E+02  0.83227717807E+02  0.41800000000E+01 0.  1.
        -11    1    1    2    0    0  0.10708672095E+02  0.47338987985E+02  0.85442872539E+02  0.98265659867E+02  0.00000000000E+00 0.  1.
         11    1    1    2    0    0 -0.30472963980E+02 -0.20615730980E+02  0.12270210591E+02  0.38783604339E+02  0.00000000000E+00 0. -1.
</event>
<event>
 7    1  0.2899775E-009  0.1000200E+03  0.7561462E-02  0.1280254E+00
          3   -1    0    0  501    0  0.00000000000E+00  0.00000000000E+00  0.52209985634E+02  0.52209985634E+02  0.00000000000E+00 0. -1.
         -3   -1    0    0    0  501 -0.00000000000E+00 -0.00000000000E+00 -0.31498314039E+03  0.31498314039E+03  0.00000000000E+00 0.  1.
         25    2    1    2    0    0  0.12663418835E+02 -0.58564725358E+02 -0.19722338276E+03  0.24111121154E+03  0.12508942558E+03 0.  0.
          5    1    3    3  502    0  0.41697935689E+02 -0.69061844934E+02 -0.60613545672E+02  0.10099371557E+03  0.41800000000E+01 0. -1.
         -5    1    3    3    0  502 -0.29034516854E+02  0.10497119576E+02 -0.13660983708E+03  0.14011749597E+03  0.41800000000E+01 0. -1.
        -11    1    1    2    0    0  0.24770343098E+02  0.38088383490E+02  0.27853281707E+01  0.45519807854E+02  0.00000000000E+00 0. -1.
         11    1    1    2    0    0 -0.37433761934E+02  0.20476341868E+02 -0.68335100169E+02  0.80562106625E+02  0.00000000000E+00 0.  1.
</event>
<event>
 7    1  0.2899775E-009  0.1740766E+03  0.7561462E-02  0.1173662E+00
          1   -1    0    0  501    0  0.00000000000E+00  0.00000000000E+00  0.16122298487E+03  0.16122298487E+03  0.00000000000E+00 0. -1.
         -1   -1    0    0    0  501 -0.00000000000E+00 -0.00000000000E+00 -0.24598578617E+03  0.24598578617E+03  0.00000000000E+00 0.  1.
         25    2    1    2    0    0  0.11281407945E+03  0.10892110077E+03 -0.10064466951E+03  0.22442693865E+03  0.12508908256E+03 0.  0.
          5    1    3    3  502    0  0.64808337707E+02  0.11485466853E+03 -0.11367382786E+03  0.17415776485E+03  0.41800000000E+01 0.  1.
         -5    1    3    3    0  502  0.48005741739E+02 -0.59335677571E+01  0.13029158353E+02  0.50269173791E+02  0.41800000000E+01 0.  1.
        -11    1    1    2    0    0 -0.53371974567E+02 -0.13197007757E+02 -0.28197059032E+02  0.61788371243E+02  0.00000000000E+00 0. -1.
         11    1    1    2    0    0 -0.59442104879E+02 -0.95724093012E+02  0.44078927241E+02  0.12099346115E+03  0.00000000000E+00 0.  1.
</event>
<event>
 7    1  0.2899775E-009  0.1841667E+03  0.7561462E-02  0.1163830E+00
         -2   -1    0    0    0  501 -0.00000000000E+00  0.00000000000E+00  0.39230163791E+03  0.39230163791E+03  0.00000000000E+00 0.  1.
          2   -1    0    0  501    0  0.00000000000E+00 -0.00000000000E+00 -0.17954277673E+03  0.17954277673E+03  0.00000000000E+00 0. -1.
         25    2    1    2    0    0  0.30683189290E+02  0.15773044235E+03  0.30448749635E+03  0.36630700297E+03  0.12509130444E+03 0.  0.
          5    1    3    3  502    0  0.15371577471E+02 -0.15757099184E+02  0.74437586317E+02  0.77736723788E+02  0.41800000000E+01 0.  1.
         -5    1    3    3    0  502  0.15311611818E+02  0.17348754153E+03  0.23004991003E+03  0.28857027919E+03  0.41800000000E+01 0.  1.
        -11    1    1    2    0    0 -0.45986455575E+02 -0.78146937238E+02 -0.84887244967E+02  0.12420765779E+03  0.00000000000E+00 0. -1.
         11    1    1    2    0    0  0.15303266286E+02 -0.79583505112E+02 -0.68413902079E+01  0.81329753872E+02  0.00000000000E+00 0.  1.
</event>
<event>
 7    1  0.2899775E-009  0.1126901E+03  0.7561462E-02  0.1255668E+00
          1   -1    0    0  501    0  0.00000000000E+00  0.00000000000E+00  0.76817257595E+03  0.76817257595E+03  0.00000000000E+00 0. -1.
         -1   -1    0    0    0  501 -0.00000000000E+00 -0.00000000000E+00 -0.21853005697E+02  0.21853005697E+02  0.00000000000E+00 0.  1.
         25    2    1    2    0    0 -0.39657787513E+02 -0.48961876841E+02  0.49726519221E+03  0.51661381366E+03  0.12508859094E+03 0.  0.
          5    1    3    3  502    0  0.35752958921E+02 -0.27192883234E+02  0.78533805535E+02  0.90569078510E+02  0.41800000000E+01 0. -1.
         -5    1    3    3    0  502 -0.75410746434E+02 -0.21768993607E+02  0.41873138668E+03  0.42604473515E+03  0.41800000000E+01 0. -1.
        -11    1    1    2    0    0  0.55811572570E+02  0.64434210482E+01  0.76194606633E+02  0.94668196283E+02  0.00000000000E+00 0.  1.
         11    1    1    2    0    0 -0.16153785057E+02  0.42518455792E+02  0.17285977140E+03  0.17874357170E+03  0.00000000000E+00 0. -1.
</event>
<event>
 7    1  0.2899775E-009  0.9047594E+02  0.7561462E-02  0.1301703E+00
          1   -1    0    0  501    0  0.00000000000E+00  0.00000000000E+00  0.36345660993E+02  0.36345660993E+02  0.00000000000E+00 0. -1.
         -1   -1    0    0    0  501 -0.00000000000E+00 -0.00000000000E+00 -0.34689906738E+03  0.34689906738E+03  0.00000000000E+00 0.  1.
         25    2    1    2    0    0  0.92436080638E+01 -0.20061758476E+02 -0.15709980109E+03  0.20202984851E+03  0.12509114174E+03 0.  0.
          5    1    3    3  502    0  0.36466876044E+02 -0.48496400010E+02 -0.27925207991E+02  0.66925507123E+02  0.41800000000E+01 0.  1.
         -5    1    3    3    0  502 -0.27223267980E+02  0.28434641534E+02 -0.12917459310E+03  0.13510434138E+03  0.41800000000E+01 0.  1.
        -11    1    1    2    0    0  0.26384106233E+02 -0.15173102682E+02 -0.14917202706E+02  0.33894941264E+02  0.00000000000E+00 0. -1.
         11    1    1    2    0    0 -0.35627714296E+02  0.35234861158E+02 -0.13853640260E+03  0.14731993861E+03  0.00000000000E+00 0.  1.
</event>
<event>
 7    1  0.2899775E-009  0.9661069E+02  0.7561462E-02  0.1287589E+00
          1   -1    0    0  501    0  0.00000000000E+00  0.00000000000E+00  0.17818864683E+03  0.17818864683E+03  0.00000000000E+00 0. -1.
         -1   -1    0    0    0  501 -0.00000000000E+00 -0.00000000000E+00 -0.79721163771E+02  0.79721163771E+02  0.00000000000E+00 0.  1.
         25    2    1    2    0    0  0.35145843583E+02 -0.30553209969E+02  0.67585493431E+02  0.14961265985E+03  0.12508964827E+03 0.  0.
          5    1    3    3  502    0 -0.26866074999E+02  0.19588636810E+02  0.60856052876E+02  0.69472528740E+02  0.41800000000E+01 0. -1.
         -5    1    3    3    0  502  0.62011918582E+02 -0.50141846779E+02  0.67294405553E+01  0.80140131113E+02  0.41800000000E+01 0. -1.
        -11    1    1    2    0    0 -0.10285449048E+02 -0.20574451691E+02 -0.21136595580E+02  0.31238665100E+02  0.00000000000E+00 0.  1.
         11    1    1    2    0    0 -0.24860394535E+02  0.51127661660E+02  0.52018585204E+02  0.77058485645E+02  0.00000000000E+00 0. -1.
</event>
<event>
 7    1  0.2899775E-009  0.1024307E+03  0.7561462E-02  0.1275266E+00
         -1   -1    0    0    0  501 -0.00000000000E+00  0.00000000000E+00  0.40104145753E+03  0.40104145753E+03  0.00000000000E+00 0.  1.
          1   -1    0    0  501    0  0.00000000000E+00 -0.00000000000E+00 -0.34607765965E+02  0.34607765965E+02  0.00000000000E+00 0. -1.
         25    2    1    2    0    0  0.63171878929E+01  0.45809821509E+01  0.28863686666E+03  0.31467355045E+03  0.12508920936E+03 0.  0.
          5    1    3    3  502    0  0.58812131521E+02  0.29220682210E+02  0.17635095928E+03  0.18822818153E+03  0.41800000000E+01 0. -1.
         -5    1    3    3    0  502 -0.52494943628E+02 -0.24639700059E+02  0.11228590738E+03  0.12644536892E+03  0.41800000000E+01 0. -1.
        -11    1    1    2    0    0  0.23998330409E+02 -0.32028608615E+02  0.68031978621E+02  0.78930993579E+02  0.00000000000E+00 0.  1.
         11    1    1    2    0    0 -0.30315518302E+02  0.27447626464E+02  0.97648462845E+01  0.42044679466E+02  0.00000000000E+00 0. -1.
</event>
<event>
 7    1  0.3443983E-009  0.9075256E+02  0.7561462E-02  0.1301039E+00
         -2   -1    0    0    0  501 -0.00000000000E+00  0.00000000000E+00  0.25024706867E+02  0.25024706867E+02  0.00000000000E+00 0.  1.
          2   -1    0    0  501    0  0.00000000000E+00 -0.00000000000E+00 -0.90437518702E+03  0.90437518702E+03  0.00000000000E+00 0. -1.
         25    2    1    2    0    0 -0.81477522917E+02  0.23986486937E+01 -0.67682977394E+03  0.69310008152E+03  0.12507933426E+03 0.  0.
          5    1    3    3  502    0  0.94778643701E+00 -0.15508033388E+01  0.47191674379E+01  0.65609626910E+01  0.41800000000E+01 0.  1.
         -5    1    3    3    0  502 -0.82425309354E+02  0.39494520325E+01 -0.68154894138E+03  0.68653911883E+03  0.41800000000E+01 0.  1.
        -11    1    1    2    0    0  0.55788605362E+02 -0.24024561306E+02 -0.45937486378E+02  0.76156422506E+02  0.00000000000E+00 0.  1.
         11    1    1    2    0    0  0.25688917555E+02  0.21625912612E+02 -0.15658321984E+03  0.16014338986E+03  0.00000000000E+00 0. -1.
</event>
<event>
 7    1  0.2899775E-009  0.2945722E+03  0.7561462E-02  0.1087986E+00
          2   -1    0    0  501    0  0.00000000000E+00  0.00000000000E+00  0.89307190630E+03  0.89307190630E+03  0.00000000000E+00 0.  1.
         -2   -1    0    0    0  501 -0.00000000000E+00 -0.00000000000E+00 -0.99564278985E+02  0.99564278985E+02  0.00000000000E+00 0. -1.
         25    2    1    2    0    0  0.16838535594E+02  0.27787429310E+03  0.39038678801E+03  0.49552691210E+03  0.12508963712E+03 0.  0.
          5    1    3    3  502    0  0.57590817207E+02  0.69559211455E+02  0.88914503398E+02  0.12680081798E+03  0.41800000000E+01 0. -1.
         -5    1    3    3    0  502 -0.40752281613E+02  0.20831508164E+03  0.30147228461E+03  0.36872609412E+03  0.41800000000E+01 0. -1.
        -11    1    1    2    0    0  0.67035576360E+01 -0.24940230628E+03  0.31704642679E+03  0.40344130280E+03  0.00000000000E+00 0.  1.
         11    1    1    2    0    0 -0.23542093230E+02 -0.28471986817E+02  0.86074412519E+02  0.93667970392E+02  0.00000000000E+00 0. -1.
</event>
<event>
 7    1  0.2899775E-009  0.1565061E+03  0.7561462E-02  0.1192699E+00
          1   -1    0    0  501    0  0.00000000000E+00  0.00000000000E+00  0.57850807171E+03  0.57850807171E+03  0.00000000000E+00 0. -1.
         -1   -1    0    0    0  501 -0.00000000000E+00 -0.00000000000E+00 -0.53399772350E+02  0.53399772350E+02  0.00000000000E+00 0.  1.
         25    2    1    2    0    0  0.53412592662E+02 -0.10665569987E+03  0.40515572694E+03  0.44048531605E+03  0.12509119561E+03 0.  0.
          5    1    3    3  502    0  0.83993875709E+02 -0.33462712615E+02  0.25544391366E+03  0.27100514703E+03  0.41800000000E+01 0.  1.
         -5    1    3    3    0  502 -0.30581283047E+02 -0.73192987260E+02  0.14971181328E+03  0.16948016902E+03  0.41800000000E+01 0.  1.
        -11    1    1    2    0    0 -0.32456300917E+02  0.11575566096E+03  0.76979759501E+02  0.14275387171E+03  0.00000000000E+00 0.  1.
         11    1    1    2    0    0 -0.20956291745E+02 -0.90999610900E+01  0.42972812927E+02  0.48668656304E+02  0.00000000000E+00 0. -1.
</event>
<event>
 7    1  0.2899775E-009  0.1083399E+03  0.7561462E-02  0.1263675E+00
          1   -1    0    0  501    0  0.00000000000E+00  0.00000000000E+00  0.51079444545E+02  0.51079444545E+02  0.00000000000E+00 0. -1.
         -1   -1    0    0    0  501 -0.00000000000E+00 -0.00000000000E+00 -0.29315264704E+03  0.29315264704E+03  0.00000000000E+00 0.  1.
         25    2    1    2    0    0  0.35796884295E+02 -0.20138518424E+02 -0.81395188289E+02  0.15478797602E+03  0.12508862455E+03 0.  0.
          5    1    3    3  502    0 -0.13937505660E+02  0.40196114522E+02 -0.12877772752E+01  0.42768124310E+02  0.41800000000E+01 0.  1.
         -5    1    3    3    0  502  0.49734389954E+02 -0.60334632946E+02 -0.80107411014E+02  0.11201985171E+03  0.41800000000E+01 0.  1.
        -11    1    1    2    0    0 -0.14260412081E+02 -0.34266930789E+02 -0.35944190091E+02  0.51667849769E+02  0.00000000000E+00 0.  1.
         11    1    1    2    0    0 -0.21536472213E+02  0.54405449213E+02 -0.12473382412E+03  0.13777626580E+03  0.00000000000E+00 0. -1.
</event>
<event>
 7    1  0.2899775E-009  0.1305912E+03  0.7561462E-02  0.1226581E+00
          2   -1    0    0  501    0  0.00000000000E+00  0.00000000000E+00  0.12526817245E+04  0.12526817245E+04  0.00000000000E+00 0. -1.
         -2   -1    0    0    0  501 -0.00000000000E+00 -0.00000000000E+00 -0.25169742873E+02  0.25169742873E+02  0.00000000000E+00 0.  1.
         25    2    1    2    0    0 -0.10039077519E+03  0.90076084254E+01  0.10065390891E+04  0.10192761634E+04  0.12507403665E+03 0.  0.
          5    1    3    3  502    0  0.29014921632E+02 -0.56322811313E+01  0.22036498795E+03  0.22237758111E+03  0.41800000000E+01 0.  1.
         -5    1    3    3    0  502 -0.12940569683E+03  0.14639889557E+02  0.78617410113E+03  0.79689858227E+03  0.41800000000E+01 0.  1.
        -11    1    1    2    0    0  0.68131846421E+02 -0.28443329673E+01  0.21452984927E+03  0.22510685230E+03  0.00000000000E+00 0. -1.
         11    1    1    2    0    0  0.32258928772E+02 -0.61632754581E+01  0.64430432492E+01  0.33468451655E+02  0.00000000000E+00 0.  1.
</event>
<event>
 7    1  0.2899775E-009  0.1045802E+03  0.7561462E-02  0.1270949E+00
          2   -1    0    0  501    0  0.00000000000E+00  0.00000000000E+00  0.22006403540E+03  0.22006403540E+03  0.00000000000E+00 0. -1.
         -2   -1    0    0    0  501 -0.00000000000E+00 -0.00000000000E+00 -0.51766881522E+02  0.51766881522E+02  0.00000000000E+00 0.  1.
         25    2    1    2    0    0 -0.11018252100E+02 -0.35470130932E+01  0.10672008409E+03  0.16483611280E+03  0.12509110502E+03 0.  0.
          5    1    3    3  502    0  0.42569038272E+02 -0.40725083592E+02  0.62109791344E+02  0.85707374443E+02  0.41800000000E+01 0.  1.
         -5    1    3    3    0  502 -0.53587290372E+02  0.37178070499E+02  0.44610292749E+02  0.79128738361E+02  0.41800000000E+01 0.  1.
        -11    1    1    2    0    0 -0.36714680429E+02 -0.15042895403E+01  0.13746408968E+02  0.39232568174E+02  0.00000000000E+00 0.  1.
         11    1    1    2    0    0  0.47732932529E+02  0.50513026335E+01  0.47830660819E+02  0.67762235947E+02  0.00000000000E+00 0. -1.
</event>
<event>
 7    1  0.2899775E-009  0.6483457E+02  0.7561462E-02  0.1378595E+00
          2   -1    0    0  501    0  0.00000000000E+00  0.00000000000E+00  0.29532315893E+03  0.29532315893E+03  0.00000000000E+00 0. -1.
         -2   -1    0    0    0  501 -0.00000000000E+00 -0.00000000000E+00 -0.43735569637E+02  0.43735569637E+02  0.00000000000E+00 0.  1.
         25    2    1    2    0    0  0.33016383499E+02 -0.68620898358E+01  0.12848256681E+03  0.18246251437E+03  0.12509048454E+03 0.  0.
          5    1    3    3  502    0  0.34131731546E+02 -0.18088138928E+00 -0.15882715032E+02  0.37877973193E+02  0.41800000000E+01 0.  1.
         -5    1    3    3    0  502 -0.11153480473E+01 -0.66812084465E+01  0.14436528184E+03  0.14458454118E+03  0.41800000000E+01 0.  1.
        -11    1    1    2    0    0 -0.50894711381E-01  0.40339029551E+02  0.91428470578E+02  0.99932002520E+02  0.00000000000E+00 0.  1.
         11    1    1    2    0    0 -0.32965488787E+02 -0.33476939716E+02  0.31676551904E+02  0.56664211671E+02  0.00000000000E+00 0. -1.
</event>
<event>
 7    1  0.2899775E-009  0.1358732E+03  0.7561462E-02  0.1218992E+00
          2   -1    0    0  501    0  0.00000000000E+00  0.00000000000E+00  0.12547482876E+03  0.12547482876E+03  0.00000000000E+00 0. -1.
         -2   -1    0    0    0  501 -0.00000000000E+00 -0.00000000000E+00 -0.17853554624E+03  0.17853554624E+03  0.00000000000E+00 0.  1.
         25    2    1    2    0    0 -0.97772572290E+02  0.35159897125E+02 -0.47055077088E+02  0.16928379137E+03  0.12508847861E+03 0.  0.
          5    1    3    3  502    0 -0.13569945505E+02  0.50424864411E+02  0.24334754927E+02  0.57762124868E+02  0.41800000000E+01 0. -1.
         -5    1    3    3    0  502 -0.84202626785E+02 -0.15264967287E+02 -0.71389832015E+02  0.11152166650E+03  0.41800000000E+01 0. -1.
        -11    1    1    2    0    0  0.78014590214E+01 -0.42690564516E+02 -0.92915783534E+01  0.44381082567E+02  0.00000000000E+00 0.  1.
         11    1    1    2    0    0  0.89971113268E+02  0.75306673908E+01  0.32859379633E+01  0.90345501063E+02  0.00000000000E+00 0. -1.
</event>
<event>
 7    1  0.2899775E-009  0.9040369E+02  0.7561462E-02  0.1301877E+00
         -1   -1    0    0    0  501 -0.00000000000E+00  0.00000000000E+00  0.53278028701E+03  0.53278028701E+03  0.00000000000E+00 0.  1.
          1   -1    0    0  501    0  0.00000000000E+00 -0.00000000000E+00 -0.23268959501E+02  0.23268959501E+02  0.00000000000E+00 0. -1.
         25    2    1    2    0    0 -0.11668512382E+01 -0.24766144747E+02  0.27191798513E+03  0.30033477416E+03  0.12508741928E+03 0.  0.
          5    1    3    3  502    0 -0.40132296370E+02  0.16313571402E+02  0.32609154492E+02  0.54383482607E+02  0.41800000000E+01 0. -1.
         -5    1    3    3    0  502  0.38965445131E+02 -0.41079716149E+02  0.23930883064E+03  0.24595129155E+03  0.41800000000E+01 0. -1.
        -11    1    1    2    0    0 -0.29624014380E+02 -0.12514162794E+02  0.35426067000E+02  0.47845508896E+02  0.00000000000E+00 0.  1.
         11    1    1    2    0    0  0.30790865618E+02  0.37280307541E+02  0.20216727538E+03  0.20786896346E+03  0.00000000000E+00 0. -1.
</event>
<event>
 7    1  0.2899775E-009  0.1340507E+03  0.7561462E-02  0.1221566E+00
         -4   -1    0    0    0  501 -0.00000000000E+00  0.00000000000E+00  0.88800541726E+03  0.88800541726E+03  0.00000000000E+00 0.  1.
          4   -1    0    0  501    0  0.00000000000E+00 -0.00000000000E+00 -0.20894814078E+02  0.20894814078E+02  0.00000000000E+00 0. -1.
         25    2    1    2    0    0  0.79577763998E+02 -0.26362878252E+01  0.40213171204E+03  0.42859810727E+03  0.12508738220E+03 0.  0.
          5    1    3    3  502    0 -0.31245857925E+02 -0.17370432121E+02  0.84799867881E+02  0.92122340082E+02  0.41800000000E+01 0.  1.
         -5    1    3    3    0  502  0.11082362192E+03  0.14734144296E+02  0.31733184416E+03  0.33647576719E+03  0.41800000000E+01 0.  1.
        -11    1    1    2    0    0 -0.35775082947E+02 -0.43694790598E+02  0.20766486589E+03  0.21520638422E+03  0.00000000000E+00 0. -1.
         11    1    1    2    0    0 -0.43802681050E+02  0.46331078423E+02  0.25731402525E+03  0.26509573985E+03  0.00000000000E+00 0.  1.
</event>
<event>
 7    1  0.2899775E-009  0.1269361E+03  0.7561462E-02  0.1232074E+00
         -2   -1    0    0    0  501 -0.00000000000E+00  0.00000000000E+00  0.92018703730E+02  0.92018703730E+02  0.00000000000E+00 0.  1.
          2   -1    0    0  501    0  0.00000000000E+00 -0.00000000000E+00 -0.21325247813E+03  0.21325247813E+03  0.00000000000E+00 0. -1.
         25    2    1    2    0    0  0.20218227788E+02 -0.83797170081E+02 -0.77708331332E+02  0.17061947420E+03  0.12506669328E+03 0.  0.
          5    1    3    3  502    0  0.28109141407E+01  0.30392901247E+02  0.92769132017E+00  0.30821464853E+02  0.41800000000E+01 0. -1.
         -5    1    3    3    0  502  0.17407313647E+02 -0.11419007133E+03 -0.78636022653E+02  0.13979800934E+03  0.41800000000E+01 0. -1.
        -11    1    1    2    0    0 -0.42861446932E+02  0.65923824267E+02 -0.62224213059E+02  0.10027415883E+03  0.00000000000E+00 0. -1.
         11    1    1    2    0    0  0.22643219144E+02  0.17873345813E+02  0.18698769996E+02  0.34377548824E+02  0.00000000000E+00 0.  1.
</event>
<event>
 7    1  0.2899775E-009  0.1012126E+03  0.7561462E-02  0.1277766E+00
         -1   -1    0    0    0  501 -0.00000000000E+00  0.00000000000E+00  0.28752935965E+02  0.28752935965E+02  0.00000000000E+00 0.  1.
          1   -1    0    0  501    0  0.00000000000E+00 -0.00000000000E+00 -0.54542204331E+03  0.54542204331E+03  0.00000000000E+00 0. -1.
         25    2    1    2    0    0 -0.16850525153E+02  0.19817285713E+02 -0.42141687275E+03  0.44036238735E+03  0.12510070563E+03 0.  0.
          5    1    3    3  502    0  0.47025139737E+02  0.85158663777E+01 -0.83930613949E+02  0.96673181934E+02  0.41800000000E+01 0.  1.
         -5    1    3    3    0  502 -0.63875664890E+02  0.11301419336E+02 -0.33748625880E+03  0.34368920542E+03  0.41800000000E+01 0.  1.
        -11    1    1    2    0    0 -0.29453294042E+02 -0.29998607534E+02 -0.24542858019E+02  0.48680230727E+02  0.00000000000E+00 0.  1.
         11    1    1    2    0    0  0.46303819195E+02  0.10181321821E+02 -0.70709376574E+02  0.85132361189E+02  0.00000000000E+00 0. -1.
</event>
<event>
 7    1  0.2899775E-009  0.1039463E+03  0.7561462E-02  0.1272210E+00
         -1   -1    0    0    0  501 -0.00000000000E+00  0.00000000000E+00  0.14472123935E+03  0.14472123935E+03  0.00000000000E+00 0.  1.
          1   -1    0    0  501    0  0.00000000000E+00 -0.00000000000E+00 -0.87217963993E+02  0.87217963993E+02  0.00000000000E+00 0. -1.
         25    2    1    2    0    0 -0.14714341764E+02  0.15993646445E+02  0.46649387021E+02  0.13526280075E+03  0.12509017298E+03 0.  0.
          5    1    3    3  502    0  0.18156959886E+02 -0.42039423507E+02 -0.10688359885E+02  0.47209127911E+02  0.41800000000E+01 0. -1.
         -5    1    3    3    0  502 -0.32871301650E+02  0.58033069952E+02  0.57337746907E+02  0.88053672840E+02  0.41800000000E+01 0. -1.
        -11    1    1    2    0    0 -0.28370671983E+02 -0.37423783769E+02  0.12258270597E+02  0.48535552108E+02  0.00000000000E+00 0. -1.
         11    1    1    2    0    0  0.43085013748E+02  0.21430137324E+02 -0.14043822660E+01  0.48140850479E+02  0.00000000000E+00 0.  1.
</event>
<event>
 7    1  0.2899775E-009  0.7191745E+02  0.7561462E-02  0.1353691E+00
         -1   -1    0    0    0  501 -0.00000000000E+00  0.00000000000E+00  0.57063705055E+02  0.57063705055E+02  0.00000000000E+00 0.  1.
          1   -1    0    0  501    0  0.00000000000E+00 -0.00000000000E+00 -0.25011207992E+03  0.25011207992E+03  0.00000000000E+00 0. -1.
         25    2    1    2    0    0  0.43425969296E+01  0.78477123881E+01 -0.17027429882E+03  0.21147456518E+03  0.12509080758E+03 0.  0.
          5    1    3    3  502    0 -0.25186450850E+02 -0.28967864739E+00  0.10841843261E+02  0.27739127337E+02  0.41800000000E+01 0. -1.
         -5    1    3    3    0  502  0.29529047779E+02  0.81373910355E+01 -0.18111614208E+03  0.18373543784E+03  0.41800000000E+01 0. -1.
        -11    1    1    2    0    0  0.40312400054E+02 -0.13189586127E+02  0.52072179223E+01  0.42733709163E+02  0.00000000000E+00 0.  1.
         11    1    1    2    0    0 -0.44654996984E+02  0.53418737388E+01 -0.27981293963E+02  0.52967510632E+02  0.00000000000E+00 0. -1.
</event>
<event>
 7    1  0.2922474E-009  0.1010050E+03  0.7561462E-02  0.1278197E+00
          2   -1    0    0  501    0  0.00000000000E+00  0.00000000000E+00  0.14471484676E+03  0.14471484676E+03  0.00000000000E+00 0. -1.
         -2   -1    0    0    0  501 -0.00000000000E+00 -0.00000000000E+00 -0.13985720988E+03  0.13985720988E+03  0.00000000000E+00 0.  1.
         25    2    1    2    0    0 -0.62815849065E+02  0.80516718862E+01 -0.63354501480E+02  0.15385603229E+03  0.12508887041E+03 0.  0.
          5    1    3    3  502    0 -0.87877676934E+02  0.22943970627E+02 -0.79054022514E+02  0.12048204334E+03  0.41800000000E+01 0.  1.
         -5    1    3    3    0  502  0.25061827870E+02 -0.14892298740E+02  0.15699521034E+02  0.33373988953E+02  0.41800000000E+01 0.  1.
        -11    1    1    2    0    0  0.40724824653E+02 -0.29936053145E+02 -0.53747471058E+01  0.50828796242E+02  0.00000000000E+00 0.  1.
         11    1    1    2    0    0  0.22091024412E+02  0.21884381259E+02  0.73586885461E+02  0.79887228106E+02  0.00000000000E+00 0. -1.
</event>
<event>
 7    1  0.2899775E-009  0.1365838E+03  0.7561462E-02  0.1218001E+00
          1   -1    0    0  501    0  0.00000000000E+00  0.00000000000E+00  0.50104215611E+02  0.50104215611E+02  0.00000000000E+00 0. -1.
         -1   -1    0    0    0  501 -0.00000000000E+00 -0.00000000000E+00 -0.40271621261E+03  0.40271621261E+03  0.00000000000E+00 0.  1.
         25    2    1    2    0    0  0.13809898326E+02 -0.88686814245E+02 -0.22321315279E+03  0.27115941825E+03  0.12508898518E+03 0.  0.
          5    1    3    3  502    0  0.59717766026E+02 -0.87813320659E+02 -0.13697141996E+03  0.17336675907E+03  0.41800000000E+01 0. -1.
         -5    1    3    3    0  502 -0.45907867700E+02 -0.87349358572E+00 -0.86241732835E+02  0.97792659184E+02  0.41800000000E+01 0. -1.
        -11    1    1    2    0    0 -0.47255776605E+02  0.62233064339E+02 -0.53820924825E+02  0.94882847073E+02  0.00000000000E+00 0. -1.
         11    1    1    2    0    0  0.33445878280E+02  0.26453749906E+02 -0.75577919384E+02  0.86778162900E+02  0.00000000000E+00 0.  1.
</event>
<event>
 7    1  0.2899775E-009  0.1506377E+03  0.7561462E-02  0.1199692E+00
         -1   -1    0    0    0  501 -0.00000000000E+00  0.00000000000E+00  0.38592312437E+02  0.38592312437E+02  0.00000000000E+00 0.  1.
          1   -1    0    0  501    0  0.00000000000E+00 -0.00000000000E+00 -0.71788118923E+03  0.71788118923E+03  0.00000000000E+00 0. -1.
         25    2    1    2    0    0  0.81080910021E+02  0.94301829042E+02 -0.31386265366E+03  0.36003472393E+03  0.12509311790E+03 0.  0.
          5    1    3    3  502    0 -0.30099842975E+02 -0.72457896706E-01 -0.59085179534E+02  0.66441979485E+02  0.41800000000E+01 0.  1.
         -5    1    3    3    0  502  0.11118075300E+03  0.94374286939E+02 -0.25477747412E+03  0.29359274445E+03  0.41800000000E+01 0.  1.
        -11    1    1    2    0    0 -0.45784673557E+02 -0.62549108283E+02 -0.98600027061E+02  0.12542165928E+03  0.00000000000E+00 0.  1.
         11    1    1    2    0    0 -0.35296236464E+02 -0.31752720759E+02 -0.26682619607E+03  0.27101711845E+03  0.00000000000E+00 0. -1.
</event>
<event>
 7    1  0.2899775E-009  0.1102497E+03  0.7561462E-02  0.1260108E+00
         -1   -1    0    0    0  501 -0.00000000000E+00  0.00000000000E+00  0.24597911859E+03  0.24597911859E+03  0.00000000000E+00 0.  1.
          1   -1    0    0  501    0  0.00000000000E+00 -0.00000000000E+00 -0.63261548716E+02  0.63261548716E+02  0.00000000000E+00 0. -1.
         25    2    1    2    0    0 -0.22548219481E+02 -0.43592379518E+02  0.56415206483E+02  0.14573708429E+03  0.12509158429E+03 0.  0.
          5    1    3    3  502    0  0.47925410173E+02 -0.94038737578E+00  0.37781061367E+02  0.61176876896E+02  0.41800000000E+01 0.  1.
         -5    1    3    3    0  502 -0.70473629654E+02 -0.42651992143E+02  0.18634145116E+02  0.84560207394E+02  0.41800000000E+01 0.  1.
        -11    1    1    2    0    0 -0.78687539829E+01  0.56364872196E+02  0.35945489663E+02  0.67312661023E+02  0.00000000000E+00 0.  1.
         11    1    1    2    0    0  0.30416973464E+02 -0.12772492678E+02  0.90356873726E+02  0.96190921991E+02  0.00000000000E+00 0. -1.
</event>
<event>
 7    1  0.2899775E-009  0.6543636E+02  0.7561462E-02  0.1376338E+00
         -2   -1    0    0    0  501 -0.00000000000E+00  0.00000000000E+00  0.12602999172E+03  0.12602999172E+03  0.00000000000E+00 0.  1.
          2   -1    0    0  501    0  0.00000000000E+00 -0.00000000000E+00 -0.21108616364E+03  0.21108616364E+03  0.00000000000E+00 0. -1.
         25    2    1    2    0    0  0.40646582701E+01  0.37943615918E+02  0.73511273493E+02  0.15002590169E+03  0.12509046491E+03 0.  0.
          5    1    3    3  502    0 -0.17000787623E+00  0.25441120517E+02 -0.33415698298E+02  0.42206170267E+02  0.41800000000E+01 0. -1.
         -5    1    3    3    0  502  0.42346661463E+01  0.12502495400E+02  0.10692697179E+03  0.10781973143E+03  0.41800000000E+01 0. -1.
        -11    1    1    2    0    0 -0.42169310301E+02 -0.31412955435E+02 -0.52968968346E+02  0.74637364021E+02  0.00000000000E+00 0.  1.
         11    1    1    2    0    0  0.38104652031E+02 -0.65306604826E+01 -0.10559847706E+03  0.11245288965E+03  0.00000000000E+00 0. -1.
</event>
<event>
 7    1  0.2899775E-009  0.1405934E+03  0.7561462E-02  0.1212533E+00
          1   -1    0    0  501    0  0.00000000000E+00  0.00000000000E+00  0.34192620347E+03  0.34192620347E+03  0.00000000000E+00 0. -1.
         -1   -1    0    0    0  501 -0.00000000000E+00 -0.00000000000E+00 -0.73727292105E+02  0.73727292105E+02  0.00000000000E+00 0.  1.
         25    2    1    2    0    0 -0.42326314660E+02 -0.94630901844E+02  0.75561083688E+02  0.17917652492E+03  0.12509286638E+03 0.  0.
          5    1    3    3  502    0  0.28093035991E+02 -0.76831503501E+02  0.67185505058E+02  0.10594179105E+03  0.41800000000E+01 0. -1.
         -5    1    3    3    0  502 -0.70419350651E+02 -0.17799398343E+02  0.83755786307E+01  0.73234733869E+02  0.41800000000E+01 0. -1.
        -11    1    1    2    0    0  0.23686360896E+02  0.10328662140E+03  0.11592880272E+03  0.15706258992E+03  0.00000000000E+00 0.  1.
         11    1    1    2    0    0  0.18639953764E+02 -0.86557195572E+01  0.76709024957E+02  0.79414380733E+02  0.00000000000E+00 0. -1.
</event>
<event>
 7    1  0.2899775E-009  0.2361686E+03  0.7561462E-02  0.1122372E+00
         -2   -1    0    0    0  501 -0.00000000000E+00  0.00000000000E+00  0.65041312668E+03  0.65041312668E+03  0.00000000000E+00 0.  1.
          2   -1    0    0  501    0  0.00000000000E+00 -0.00000000000E+00 -0.95038675201E+02  0.95038675201E+02  0.00000000000E+00 0. -1.
         25    2    1    2    0    0 -0.18051061376E+03 -0.12947557221E+03  0.27996834013E+03  0.37865298880E+03  0.12509120260E+03 0.  0.
          5    1    3    3  502    0 -0.65879234979E+02  0.12122172294E+02  0.11336841973E+03  0.13174555649E+03  0.41800000000E+01 0. -1.
         -5    1    3    3    0  502 -0.11463137878E+03 -0.14159774451E+03  0.16659992039E+03  0.24690743230E+03  0.41800000000E+01 0. -1.
        -11    1    1    2    0    0  0.10210454483E+03  0.61312757413E+02  0.21720457167E+03  0.24771438847E+03  0.00000000000E+00 0.  1.
         11    1    1    2    0    0  0.78406068931E+02  0.68162814799E+02  0.58201539679E+02  0.11908442462E+03  0.00000000000E+00 0. -1.
</event>
<event>
 7    1  0.2899775E-009  0.1636946E+03  0.7561462E-02  0.1184588E+00
         -2   -1    0    0    0  501 -0.00000000000E+00  0.00000000000E+00  0.27958000541E+03  0.27958000541E+03  0.00000000000E+00 0.  1.
          2   -1    0    0  501    0  0.00000000000E+00 -0.00000000000E+00 -0.10108771257E+03  0.10108771257E+03  0.00000000000E+00 0. -1.
         25    2    1    2    0    0 -0.12084945725E+03 -0.17069926199E+02  0.56001003412E+02  0.18352265015E+03  0.12509387289E+03 0.  0.
          5    1    3    3  502    0  0.24894179362E+02  0.41412353703E+01 -0.85607026235E+00  0.25594437927E+02  0.41800000000E+01 0. -1.
         -5    1    3    3    0  502 -0.14574363661E+03 -0.21211161570E+02  0.56857073674E+02  0.15792821222E+03  0.41800000000E+01 0. -1.
        -11    1    1    2    0    0  0.13561074128E+03  0.55117978502E+01  0.10801309155E+03  0.17345743285E+03  0.00000000000E+00 0.  1.
         11    1    1    2    0    0 -0.14761284026E+02  0.11558128349E+02  0.14478197876E+02  0.23687634977E+02  0.00000000000E+00 0. -1.
</event>
<event>
 7    1  0.2899775E-009  0.1542402E+03  0.7561462E-02  0.1195357E+00
          3   -1    0    0  501    0  0.00000000000E+00  0.00000000000E+00  0.38965268154E+03  0.38965268154E+03  0.00000000000E+00 0. -1.
         -3   -1    0    0    0  501 -0.00000000000E+00 -0.00000000000E+00 -0.10061994281E+03  0.10061994281E+03  0.00000000000E+00 0.  1.
         25    2    1    2    0    0 -0.59435313212E+02  0.11454446639E+03  0.28006643992E+03  0.33277372055E+03  0.12509255409E+03 0.  0.
          5    1    3    3  502    0 -0.85132538307E+02  0.29332355070E+02  0.12864551816E+03  0.15708302860E+03  0.41800000000E+01 0.  1.
         -5    1    3    3    0  502  0.25697225095E+02  0.85212111317E+02  0.15142092176E+03  0.17569069195E+03  0.41800000000E+01 0.  1.
        -11    1    1    2    0    0  0.34535416295E+02 -0.58919154729E+02  0.49464310224E+02  0.84326032509E+02  0.00000000000E+00 0. -1.
         11    1    1    2    0    0  0.24899896916E+02 -0.55625311658E+02 -0.40498011418E+02  0.73172871286E+02  0.00000000000E+00 0.  1.
</event>
<event>
 7    1  0.2899775E-009  0.1035095E+03  0.7561462E-02  0.1273084E+00
          1   -1    0    0  501    0  0.00000000000E+00  0.00000000000E+00  0.62030442826E+03  0.62030442826E+03  0.00000000000E+00 0. -1.
         -1   -1    0    0    0  501 -0.00000000000E+00 -0.00000000000E+00 -0.19618143511E+02  0.19618143511E+02  0.00000000000E+00 0.  1.
         25    2    1    2    0    0 -0.17238290215E+01 -0.21536553180E+02  0.38455085956E+03  0.40496210847E+03  0.12509256971E+03 0.  0.
          5    1    3    3  502    0 -0.35743365617E+02  0.34649647955E+02  0.25277873788E+03  0.25766790451E+03  0.41800000000E+01 0.  1.
         -5    1    3    3    0  502  0.34019536595E+02 -0.56186201135E+02  0.13177212168E+03  0.14729420396E+03  0.41800000000E+01 0.  1.
        -11    1    1    2    0    0  0.28250320658E+02 -0.24972061552E+02  0.10585496013E+03  0.11236973373E+03  0.00000000000E+00 0.  1.
         11    1    1    2    0    0 -0.26526491637E+02  0.46508614732E+02  0.11028046506E+03  0.12259072957E+03  0.00000000000E+00 0. -1.
</event>
<event>
 7    1  0.2899775E-009  0.1019423E+03  0.7561462E-02  0.1276264E+00
          2   -1    0    0  501    0  0.00000000000E+00  0.00000000000E+00  0.31846324264E+03  0.31846324264E+03  0.00000000000E+00 0. -1.
         -2   -1    0    0    0  501 -0.00000000000E+00 -0.00000000000E+00 -0.63052179028E+02  0.63052179028E+02  0.00000000000E+00 0.  1.
         25    2    1    2    0    0 -0.27550941297E+02 -0.14947335030E+02  0.25687053058E+03  0.28742297539E+03  0.12508804943E+03 0.  0.
          5    1    3    3  502    0  0.30302526127E+02 -0.49045246191E+02  0.15411703026E+03  0.16460015394E+03  0.41800000000E+01 0. -1.
         -5    1    3    3    0  502 -0.57853467424E+02  0.34097911161E+02  0.10275350033E+03  0.12282282145E+03  0.41800000000E+01 0. -1.
        -11    1    1    2    0    0 -0.24414793808E+02 -0.10143783129E+01  0.23833779364E+02  0.34134442413E+02  0.00000000000E+00 0. -1.
         11    1    1    2    0    0  0.51965735105E+02  0.15961713343E+02 -0.25293246332E+02  0.59958003868E+02  0.00000000000E+00 0.  1.
</event>
<event>
 7    1  0.2899775E-009  0.7127885E+02  0.7561462E-02  0.1355797E+00
         -2   -1    0    0    0  501 -0.00000000000E+00  0.00000000000E+00  0.11524639129E+02  0.11524639129E+02  0.00000000000E+00 0.  1.
          2   -1    0    0  501    0  0.00000000000E+00 -0.00000000000E+00 -0.11742875705E+04  0.11742875705E+04  0.00000000000E+00 0. -1.
         25    2    1    2    0    0  0.25874186877E+02 -0.31037446848E+02 -0.65391545333E+03  0.66699682352E+03  0.12508615361E+03 0.  0.
          5    1    3    3  502    0  0.23580709826E+02 -0.19101880126E+02 -0.65341684138E+03  0.65413452187E+03  0.41800000000E+01 0.  1.
         -5    1    3    3    0  502  0.22934770502E+01 -0.11935566723E+02 -0.49861195502E+00  0.12862301654E+02  0.41800000000E+01 0.  1.
        -11    1    1    2    0    0  0.19790611554E+02 -0.21661156128E+02 -0.10639167644E+03  0.11036332183E+03  0.00000000000E+00 0.  1.
         11    1    1    2    0    0 -0.45664798431E+02  0.52698602977E+02 -0.40245580163E+03  0.40845206431E+03  0.00000000000E+00 0. -1.
</event>
<event>
 7    1  0.2899775E-009  0.2806449E+03  0.7561462E-02  0.1095337E+00
          1   -1    0    0  501    0  0.00000000000E+00  0.00000000000E+00  0.17344891421E+04  0.17344891421E+04  0.00000000000E+00 0. -1.
         -1   -1    0    0    0  501 -0.00000000000E+00 -0.00000000000E+00 -0.55013273796E+02  0.55013273796E+02  0.00000000000E+00 0.  1.
         25    2    1    2    0    0 -0.27641444945E+03 -0.19956753590E+02  0.10839250763E+04  0.11257641109E+04  0.12509213597E+03 0.  0.
          5    1    3    3  502    0 -0.13688972850E+03  0.82350640160E+01  0.75455248037E+03  0.76692472387E+03  0.41800000000E+01 0.  1.
         -5    1    3    3    0  502 -0.13952472094E+03 -0.28191817606E+02  0.32937259591E+03  0.35883938702E+03  0.41800000000E+01 0.  1.
        -11    1    1    2    0    0  0.16747280861E+03 -0.12695978231E+02  0.44062783193E+03  0.47155192266E+03  0.00000000000E+00 0. -1.
         11    1    1    2    0    0  0.10894164083E+03  0.32652731821E+02  0.15492296011E+03  0.19218638238E+03  0.00000000000E+00 0.  1.
</event>
<event>
 7    1  0.2899775E-009  0.1213301E+03  0.7561462E-02  0.1240919E+00
          1   -1    0    0  501    0  0.00000000000E+00  0.00000000000E+00  0.31663074924E+03  0.31663074924E+03  0.00000000000E+00 0. -1.
         -1   -1    0    0    0  501 -0.00000000000E+00 -0.00000000000E+00 -0.65394194035E+02  0.65394194035E+02  0.00000000000E+00 0.  1.
         25    2    1    2    0    0  0.42448293084E+02 -0.77503760289E+02  0.19136714627E+03  0.24510689150E+03  0.12508922075E+03 0.  0.
          5    1    3    3  502    0 -0.17896750927E+02  0.24811434135E+02  0.20868292705E+02  0.37267398594E+02  0.41800000000E+01 0. -1.
         -5    1    3    3    0  502  0.60345044011E+02 -0.10231519442E+03  0.17049885356E+03  0.20783949291E+03  0.41800000000E+01 0. -1.
        -11    1    1    2    0    0 -0.14999240712E+02  0.56870533639E+01  0.57823409636E+02  0.60007220397E+02  0.00000000000E+00 0. -1.
         11    1    1    2    0    0 -0.27449052372E+02  0.71816706925E+02  0.20459993026E+01  0.76910831375E+02  0.00000000000E+00 0.  1.
</event>
<event>
 7    1  0.2899775E-009  0.9761704E+02  0.7561462E-02  0.1285388E+00
          2   -1    0    0  501    0  0.00000000000E+00  0.00000000000E+00  0.43831386103E+03  0.43831386103E+03  0.00000000000E+00 0.  1.
         -2   -1    0    0    0  501 -0.00000000000E+00 -0.00000000000E+00 -0.38289451189E+02  0.38289451189E+02  0.00000000000E+00 0. -1.
         25    2    1    2    0    0 -0.45362565655E+01  0.60744695277E+02  0.28695376093E+03  0.31890850210E+03  0.12509866574E+03 0.  0.
          5    1    3    3  502    0  0.44818985487E+02 -0.60423754986E+01  0.16621126652E+03  0.17230469895E+03  0.41800000000E+01 0. -1.
         -5    1    3    3    0  502 -0.49355242052E+02  0.66787070776E+02  0.12074249441E+03  0.14660380315E+03  0.41800000000E+01 0. -1.
        -11    1    1    2    0    0 -0.11169156988E+02 -0.18662404786E+02  0.11059053111E+03  0.11270892153E+03  0.00000000000E+00 0.  1.
         11    1    1    2    0    0  0.15705413554E+02 -0.42082290491E+02  0.24801177922E+01  0.44985888589E+02  0.00000000000E+00 0. -1.
</event>
<event>
 7    1  0.2899775E-009  0.1046713E+03  0.7561462E-02  0.1270769E+00
          2   -1    0    0  501    0  0.00000000000E+00  0.00000000000E+00  0.64130817244E+03  0.64130817244E+03  0.00000000000E+00 0. -1.
         -2   -1    0    0    0  501 -0.00000000000E+00 -0.00000000000E+00 -0.31336359111E+02  0.31336359111E+02  0.00000000000E+00 0.  1.
         25    2    1    2    0    0  0.51496018209E+02 -0.73439189102E+02  0.32344418493E+03  0.35820793727E+03  0.12510647934E+03 0.  0.
          5    1    3    3  502    0  0.44522835306E+02 -0.36026508498E-01  0.25989676891E+02  0.51722527649E+02  0.41800000000E+01 0.  1.
         -5    1    3    3    0  502  0.69731829035E+01 -0.73403162593E+02  0.29745450803E+03  0.30648540962E+03  0.41800000000E+01 0.  1.
        -11    1    1    2    0    0 -0.20425136316E+02  0.18024422747E+02  0.74813314543E+01  0.28249536797E+02  0.00000000000E+00 0.  1.
         11    1    1    2    0    0 -0.31070881893E+02  0.55414766355E+02  0.27904629695E+03  0.28618705748E+03  0.00000000000E+00 0. -1.
</event>
<event>
 7    1  0.2899775E-009  0.7561906E+02  0.7561462E-02  0.1341965E+00
          1   -1    0    0  501    0  0.00000000000E+00  0.00000000000E+00  0.25395040995E+03  0.25395040995E+03  0.00000000000E+00 0. -1.
         -1   -1    0    0    0  501 -0.00000000000E+00 -0.00000000000E+00 -0.42090179692E+02  0.42090179692E+02  0.00000000000E+00 0.  1.
         25    2    1    2    0    0  0.54465791527E+00  0.32135529020E-01  0.16490512684E+03  0.20698163913E+03  0.12508956949E+03 0.  0.
          5    1    3    3  502    0  0.86264039774E+01 -0.36855596341E+02  0.16464058155E+03  0.16898740581E+03  0.41800000000E+01 0. -1.
         -5    1    3    3    0  502 -0.80817460622E+01  0.36887731870E+02  0.26454528395E+00  0.37994233327E+02  0.41800000000E+01 0. -1.
        -11    1    1    2    0    0 -0.32695075024E+02 -0.19019222610E+02  0.28798610243E+02  0.47540074794E+02  0.00000000000E+00 0.  1.
         11    1    1    2    0    0  0.32150417109E+02  0.18987087081E+02  0.18156493180E+02  0.41518875716E+02  0.00000000000E+00 0. -1.
</event>
<event>
 7    1  0.2899775E-009  0.2978518E+03  0.7561462E-02  0.1086319E+00
         -2   -1    0    0    0  501 -0.00000000000E+00  0.00000000000E+00  0.97697562340E+02  0.97697562340E+02  0.00000000000E+00 0.  1.
          2   -1    0    0  501    0  0.00000000000E+00 -0.00000000000E+00 -0.10142528421E+04  0.10142528421E+04  0.00000000000E+00 0. -1.
         25    2    1    2    0    0  0.31676136773E+02  0.28135430638E+03 -0.31784486462E+03  0.44366958956E+03  0.12511484074E+03 0.  0.
          5    1    3    3  502    0 -0.27512294745E+02  0.68206188826E+01 -0.28000122159E+02  0.40061533234E+02  0.41800000000E+01 0.  1.
         -5    1    3    3    0  502  0.59188431518E+02  0.27453368750E+03 -0.28984474246E+03  0.40360805633E+03  0.41800000000E+01 0.  1.
        -11    1    1    2    0    0 -0.41869164986E+02 -0.21391796438E+03 -0.52172533247E+03  0.56543014158E+03  0.00000000000E+00 0. -1.
         11    1    1    2    0    0  0.10193028214E+02 -0.67436342007E+02 -0.76985082697E+02  0.10285067333E+03  0.00000000000E+00 0.  1.
</event>
<event>
 7    1  0.2899775E-009  0.1396661E+03  0.7561462E-02  0.1213779E+00
         -1   -1    0    0    0  501 -0.00000000000E+00  0.00000000000E+00  0.76852203377E+03  0.76852203377E+03  0.00000000000E+00 0.  1.
          1   -1    0    0  501    0  0.00000000000E+00 -0.00000000000E+00 -0.48558076532E+02  0.48558076532E+02  0.00000000000E+00 0. -1.
         25    2    1    2    0    0 -0.35456262346E+02  0.10919939531E+03  0.14433315523E+03  0.22284940353E+03  0.12509253567E+03 0.  0.
          5    1    3    3  502    0  0.13917209863E+02  0.13088121226E+01 -0.17087628771E+02  0.22469116061E+02  0.41800000000E+01 0.  1.
         -5    1    3    3    0  502 -0.49373472209E+02  0.10789058319E+03  0.16142078400E+03  0.20038028747E+03  0.41800000000E+01 0.  1.
        -11    1    1    2    0    0 -0.81681878298E+01 -0.10136641609E+03  0.35977608654E+03  0.37387257461E+03  0.00000000000E+00 0.  1.
         11    1    1    2    0    0  0.43624450176E+02 -0.78329792214E+01  0.21585471547E+03  0.22035813216E+03  0.00000000000E+00 0. -1.
</event>
<event>
 7    1  0.2899775E-009  0.9663623E+02  0.7561462E-02  0.1287533E+00
          1   -1    0    0  501    0  0.00000000000E+00  0.00000000000E+00  0.63929685415E+03  0.63929685415E+03  0.00000000000E+00 0. -1.
         -1   -1    0    0    0  501 -0.00000000000E+00 -0.00000000000E+00 -0.20212678550E+02  0.20212678550E+02  0.00000000000E+00 0.  1.
         25    2    1    2    0    0  0.26690339363E+01 -0.16278339659E+02  0.40315500396E+03  0.42243818957E+03  0.12509180110E+03 0.  0.
          5    1    3    3  502    0 -0.16549744677E+02 -0.59720611450E+02  0.32501107763E+03  0.33089291087E+03  0.41800000000E+01 0. -1.
         -5    1    3    3    0  502  0.19218778614E+02  0.43442271791E+02  0.78143926335E+02  0.91545278703E+02  0.41800000000E+01 0. -1.
        -11    1    1    2    0    0 -0.41909480668E+02  0.28797505485E+01  0.46601843538E+02  0.62740970300E+02  0.00000000000E+00 0.  1.
         11    1    1    2    0    0  0.39240446732E+02  0.13398589110E+02  0.16932732810E+03  0.17433037283E+03  0.00000000000E+00 0. -1.
</event>
<event>
 7    1  0.2899775E-009  0.9535784E+02  0.7561462E-02  0.1290372E+00
          1   -1    0    0  501    0  0.00000000000E+00  0.00000000000E+00  0.61669298906E+02  0.61669298906E+02  0.00000000000E+00 0. -1.
         -1   -1    0    0    0  501 -0.00000000000E+00 -0.00000000000E+00 -0.24063461923E+03  0.24063461923E+03  0.00000000000E+00 0.  1.
         25    2    1    2    0    0  0.26964165449E+01 -0.35920682598E+02 -0.46755316514E+02  0.13831745276E+03  0.12509233395E+03 0.  0.
          5    1    3    3  502    0  0.45332939539E+01  0.42287477917E+02 -0.41864163004E+02  0.59823591389E+02  0.41800000000E+01 0. -1.
         -5    1    3    3    0  502 -0.18368774089E+01 -0.78208160515E+02 -0.48911535099E+01  0.78493861367E+02  0.41800000000E+01 0. -1.
        -11    1    1    2    0    0  0.10000895478E+02 -0.14516934726E+02  0.40929033812E+01  0.18097269471E+02  0.00000000000E+00 0. -1.
         11    1    1    2    0    0 -0.12697312023E+02  0.50437617324E+02 -0.13630290719E+03  0.14588919591E+03  0.00000000000E+00 0.  1.
</event>
<event>
 7    1  0.2899775E-009  0.1497320E+03  0.7561462E-02  0.1200803E+00
          1   -1    0    0  501    0  0.00000000000E+00  0.00000000000E+00  0.29714478268E+03  0.29714478268E+03  0.00000000000E+00 0. -1.
         -1   -1    0    0    0  501 -0.00000000000E+00 -0.00000000000E+00 -0.90842485421E+02  0.90842485421E+02  0.00000000000E+00 0.  1.
         25    2    1    2    0    0 -0.12181470382E+03 -0.20334380442E+02  0.11199974924E+03  0.20843058994E+03  0.12508820047E+03 0.  0.
          5    1    3    3  502    0 -0.11740549950E+03 -0.61419480710E+02  0.97033283983E+02  0.16428431004E+03  0.41800000000E+01 0.  1.
         -5    1    3    3    0  502 -0.44092043236E+01  0.41085100268E+02  0.14966465256E+02  0.44146279901E+02  0.41800000000E+01 0.  1.
        -11    1    1    2    0    0  0.73693115576E+02  0.22918358693E+02  0.10488429580E+03  0.13021767143E+03  0.00000000000E+00 0. -1.
         11    1    1    2    0    0  0.48121588248E+02 -0.25839782515E+01 -0.10581747778E+02  0.49339006730E+02  0.00000000000E+00 0.  1.
</event>
<event>
 7    1  0.2899775E-009  0.1160483E+03  0.7561462E-02  0.1249762E+00
          2   -1    0    0  501    0  0.00000000000E+00  0.00000000000E+00  0.10810647817E+03  0.10810647817E+03  0.00000000000E+00 0. -1.
         -2   -1    0    0    0  501 -0.00000000000E+00 -0.00000000000E+00 -0.18456234127E+03  0.18456234127E+03  0.00000000000E+00 0.  1.
         25    2    1    2    0    0  0.43038062062E+02  0.34453506947E+01 -0.12348118243E+03  0.18099447033E+03  0.12508897093E+03 0.  0.
          5    1    3    3  502    0  0.41047113200E+02 -0.56928799487E+02 -0.52822100509E+02  0.87939754465E+02  0.41800000000E+01 0.  1.
         -5    1    3    3    0  502  0.19909488616E+01  0.60374150182E+02 -0.70659081922E+02  0.93054715869E+02  0.41800000000E+01 0.  1.
        -11    1    1    2    0    0 -0.46424604929E+02 -0.41958120400E+02  0.27299112461E+02  0.68271292294E+02  0.00000000000E+00 0. -1.
         11    1    1    2    0    0  0.33865428673E+01  0.38512769706E+02  0.19726206866E+02  0.43403056808E+02  0.00000000000E+00 0.  1.
</event>
<event>
 7    1  0.2899775E-009  0.1322213E+03  0.7561462E-02  0.1224196E+00
         -1   -1    0    0    0  501 -0.00000000000E+00  0.00000000000E+00  0.26034625854E+02  0.26034625854E+02  0.00000000000E+00 0.  1.
          1   -1    0    0  501    0  0.00000000000E+00 -0.00000000000E+00 -0.79449234584E+03  0.79449234584E+03  0.00000000000E+00 0. -1.
         25    2    1    2    0    0 -0.75759568295E+02  0.52506133131E+02 -0.36013362705E+03  0.39222394922E+03  0.12508793228E+03 0.  0.
          5    1    3    3  502    0 -0.61083435797E+02 -0.29691280129E+02 -0.20499132338E+03  0.21598998427E+03  0.41800000000E+01 0.  1.
         -5    1    3    3    0  502 -0.14676132498E+02  0.82197413260E+02 -0.15514230367E+03  0.17623396494E+03  0.41800000000E+01 0.  1.
        -11    1    1    2    0    0  0.13141587183E+02  0.15519981955E+02 -0.17937232526E+02  0.27116700836E+02  0.00000000000E+00 0.  1.
         11    1    1    2    0    0  0.62617981112E+02 -0.68026115086E+02 -0.39038686041E+03  0.40118632164E+03  0.00000000000E+00 0. -1.
</event>
<event>
 7    1  0.2899775E-009  0.1101552E+03  0.7561462E-02  0.1260283E+00
          2   -1    0    0  501    0  0.00000000000E+00  0.00000000000E+00  0.33123986519E+03  0.33123986519E+03  0.00000000000E+00 0. -1.
         -2   -1    0    0    0  501 -0.00000000000E+00 -0.00000000000E+00 -0.18927684136E+03  0.18927684136E+03  0.00000000000E+00 0.  1.
         25    2    1    2    0    0 -0.41177643497E+02 -0.53212702216E+02 -0.15058331774E+03  0.20700234889E+03  0.12508975524E+03 0.  0.
          5    1    3    3  502    0 -0.33361759687E+01  0.22686108462E+02  0.99912010079E+01  0.25359142036E+02  0.41800000000E+01 0. -1.
         -5    1    3    3    0  502 -0.37841467528E+02 -0.75898810678E+02 -0.16057451875E+03  0.18164320686E+03  0.41800000000E+01 0. -1.
        -11    1    1    2    0    0  0.49927399732E+01  0.71412062234E+02  0.20239723130E+03  0.21468406863E+03  0.00000000000E+00 0.  1.
         11    1    1    2    0    0  0.36184903524E+02 -0.18199360018E+02  0.90149110271E+02  0.98830289035E+02  0.00000000000E+00 0. -1.
</event>
<event>
 7    1  0.2899775E-009  0.1404715E+03  0.7561462E-02  0.1212696E+00
         -2   -1    0    0    0  501 -0.00000000000E+00  0.00000000000E+00  0.37199328956E+02  0.37199328956E+02  0.00000000000E+00 0.  1.
          2   -1    0    0  501    0  0.00000000000E+00 -0.00000000000E+00 -0.69427292658E+03  0.69427292658E+03  0.00000000000E+00 0. -1.
         25    2    1    2    0    0 -0.10637947435E+03  0.83269904606E+01 -0.23716836373E+03  0.28860550036E+03  0.12513341182E+03 0.  0.
          5    1    3    3  502    0  0.12459300877E+02  0.24608085217E+02 -0.65976487201E+01  0.28666939233E+02  0.41800000000E+01 0. -1.
         -5    1    3    3    0  502 -0.11883877523E+03 -0.16281094756E+02 -0.23057071501E+03  0.25993856113E+03  0.41800000000E+01 0. -1.
        -11    1    1    2    0    0  0.66815355211E+02  0.34098346121E+02 -0.16209712513E+03  0.17861261679E+03  0.00000000000E+00 0.  1.
         11    1    1    2    0    0  0.39564119139E+02 -0.42425336582E+02 -0.25780810876E+03  0.26425413838E+03  0.00000000000E+00 0. -1.
</event>
<event>
 7    1  0.2899775E-009  0.3035118E+03  0.7561462E-02  0.1083498E+00
          2   -1    0    0  501    0  0.00000000000E+00  0.00000000000E+00  0.36094373992E+03  0.36094373992E+03  0.00000000000E+00 0. -1.
         -2   -1    0    0    0  501 -0.00000000000E+00 -0.00000000000E+00 -0.37404599224E+03  0.37404599224E+03  0.00000000000E+00 0.  1.
         25    2    1    2    0    0  0.15698161822E+03 -0.24862154728E+03 -0.19713482818E+03  0.37545334011E+03  0.12508864014E+03 0.  0.
          5    1    3    3  502    0  0.42178653968E+02 -0.32404900916E+02 -0.97446499745E+02  0.11109639583E+03  0.41800000000E+01 0. -1.
         -5    1    3    3    0  502  0.11480296425E+03 -0.21621664636E+03 -0.99688328431E+02  0.26435694428E+03  0.41800000000E+01 0. -1.
        -11    1    1    2    0    0 -0.13992166555E+03  0.25479558924E+03  0.17189834960E+03  0.33770979759E+03  0.00000000000E+00 0.  1.
         11    1    1    2    0    0 -0.17059952661E+02 -0.61740419620E+01  0.12134226253E+02  0.21826594460E+02  0.00000000000E+00 0. -1.
</event>
<event>
 7    1  0.2899775E-009  0.1203244E+03  0.7561462E-02  0.1242563E+00
         -2   -1    0    0    0  501 -0.00000000000E+00  0.00000000000E+00  0.54252790358E+02  0.54252790358E+02  0.00000000000E+00 0.  1.
          2   -1    0    0  501    0  0.00000000000E+00 -0.00000000000E+00 -0.35624918976E+03  0.35624918976E+03  0.00000000000E+00 0. -1.
         25    2    1    2    0    0 -0.88038921369E+02 -0.21257011065E+00 -0.14378737554E+03  0.20993653325E+03  0.12509053429E+03 0.  0.
          5    1    3    3  502    0 -0.44925553213E+02  0.61954462357E+02 -0.63379836816E+02  0.99454194745E+02  0.41800000000E+01 0. -1.
         -5    1    3    3    0  502 -0.43113368157E+02 -0.62167032468E+02 -0.80407538720E+02  0.11048233851E+03  0.41800000000E+01 0. -1.
        -11    1    1    2    0    0  0.14764451738E+02  0.22443108783E+01  0.93875755609E+01  0.17639516471E+02  0.00000000000E+00 0.  1.
         11    1    1    2    0    0  0.73274469632E+02 -0.20317407676E+01 -0.16759659942E+03  0.18292593039E+03  0.00000000000E+00 0. -1.
</event>
<event>
 7    1  0.2899775E-009  0.9489391E+02  0.7561462E-02  0.1291415E+00
          2   -1    0    0  501    0  0.00000000000E+00  0.00000000000E+00  0.17247616209E+03  0.17247616209E+03  0.00000000000E+00 0. -1.
         -2   -1    0    0    0  501 -0.00000000000E+00 -0.00000000000E+00 -0.83597056972E+02  0.83597056972E+02  0.00000000000E+00 0.  1.
         25    2    1    2    0    0 -0.40456348411E+02  0.43511317101E+01  0.85704323639E+02  0.15699905429E+03  0.12509126063E+03 0.  0.
          5    1    3    3  502    0 -0.25997366791E+02  0.51683723804E+02  0.90078748056E+02  0.10713880547E+03  0.41800000000E+01 0.  1.
         -5    1    3    3    0  502 -0.14458981620E+02 -0.47332592094E+02 -0.43744244169E+01  0.49860248824E+02  0.41800000000E+01 0.  1.
        -11    1    1    2    0    0  0.61228073080E+02 -0.32450509983E+01 -0.23136123605E+02  0.65533865326E+02  0.00000000000E+00 0.  1.
         11    1    1    2    0    0 -0.20771724669E+02 -0.11060807118E+01  0.26310905082E+02  0.33540299440E+02  0.00000000000E+00 0. -1.
</event>
<event>
 7    1  0.2899775E-009  0.1276593E+03  0.7561462E-02  0.1230971E+00
          1   -1    0    0  501    0  0.00000000000E+00  0.00000000000E+00  0.10150996376E+03  0.10150996376E+03  0.00000000000E+00 0. -1.
         -1   -1    0    0    0  501 -0.00000000000E+00 -0.00000000000E+00 -0.26709986576E+03  0.26709986576E+03  0.00000000000E+00 0.  1.
         25    2    1    2    0    0 -0.11314713690E+03  0.34844823271E+02 -0.25248268094E+02  0.17407377914E+03  0.12509104382E+03 0.  0.
          5    1    3    3  502    0 -0.76281383005E+02  0.97893603112E+01 -0.74749928432E+02  0.10732988945E+03  0.41800000000E+01 0. -1.
         -5    1    3    3    0  502 -0.36865753900E+02  0.25055462959E+02  0.49501660338E+02  0.66743889690E+02  0.41800000000E+01 0. -1.
        -11    1    1    2    0    0  0.11198577864E+03 -0.14236215679E+02 -0.10840235663E+03  0.15650736525E+03  0.00000000000E+00 0.  1.
         11    1    1    2    0    0  0.11613582619E+01 -0.20608607592E+02 -0.31939277276E+02  0.38028685131E+02  0.00000000000E+00 0. -1.
</event>
<event>
 7    1  0.2899775E-009  0.1071398E+03  0.7561462E-02  0.1265960E+00
          2   -1    0    0  501    0  0.00000000000E+00  0.00000000000E+00  0.84687411107E+03  0.84687411107E+03  0.00000000000E+00 0. -1.
         -2   -1    0    0    0  501 -0.00000000000E+00 -0.00000000000E+00 -0.16066848842E+02  0.16066848842E+02  0.00000000000E+00 0.  1.
         25    2    1    2    0    0  0.13998212257E+01  0.26884403265E+02  0.34682014137E+03  0.36966995697E+03  0.12508771317E+03 0.  0.
          5    1    3    3  502    0 -0.47861172590E+01  0.72528111013E+02  0.27313817540E+03  0.28267502378E+03  0.41800000000E+01 0.  1.
         -5    1    3    3    0  502  0.61859384846E+01 -0.45643707748E+02  0.73681965968E+02  0.86994933190E+02  0.41800000000E+01 0.  1.
        -11    1    1    2    0    0 -0.37278198537E+02  0.14902876891E+02  0.19820765219E+03  0.20223262153E+03  0.00000000000E+00 0.  1.
         11    1    1    2    0    0  0.35878377311E+02 -0.41787280156E+02  0.28577946867E+03  0.29103838141E+03  0.00000000000E+00 0. -1.
</event>
<event>
 7    1  0.2899775E-009  0.2523211E+03  0.7561462E-02  0.1111847E+00
         -2   -1    0    0    0  501 -0.00000000000E+00  0.00000000000E+00  0.41274360053E+03  0.41274360053E+03  0.00000000000E+00 0.  1.
          2   -1    0    0  501    0  0.00000000000E+00 -0.00000000000E+00 -0.18793798182E+03  0.18793798182E+03  0.00000000000E+00 0. -1.
         25    2    1    2    0    0 -0.43944199427E+02 -0.22479820546E+03 -0.88263247292E+01  0.26113402472E+03  0.12509096296E+03 0.  0.
          5    1    3    3  502    0 -0.35216246844E+02 -0.35218860332E+00  0.60923165541E+01  0.35984674510E+02  0.41800000000E+01 0.  1.
         -5    1    3    3    0  502 -0.87279525829E+01 -0.22444601686E+03 -0.14918641283E+02  0.22514935021E+03  0.41800000000E+01 0.  1.
        -11    1    1    2    0    0 -0.77888536043E+00  0.18395222650E+03  0.15680498307E+03  0.24171642686E+03  0.00000000000E+00 0.  1.
         11    1    1    2    0    0  0.44723084788E+02  0.40845978963E+02  0.76826960366E+02  0.97831130779E+02  0.00000000000E+00 0. -1.
</event>
<event>
 7    1  0.2899775E-009  0.1053636E+03  0.7561462E-02  0.1269405E+00
          2   -1    0    0  501    0  0.00000000000E+00  0.00000000000E+00  0.97976240032E+02  0.97976240032E+02  0.00000000000E+00 0. -1.
         -2   -1    0    0    0  501 -0.00000000000E+00 -0.00000000000E+00 -0.34542192557E+03  0.34542192557E+03  0.00000000000E+00 0.  1.
         25    2    1    2    0    0 -0.49779499579E+01 -0.75569679802E+02  0.22866350772E+02  0.14800028133E+03  0.12508259985E+03 0.  0.
          5    1    3    3  502    0 -0.39919118055E+02 -0.12074374484E+02 -0.35440360546E+02  0.54889143381E+02  0.41800000000E+01 0.  1.
         -5    1    3    3    0  502  0.34941168097E+02 -0.63495305318E+02  0.58306711318E+02  0.93111137949E+02  0.41800000000E+01 0.  1.
        -11    1    1    2    0    0 -0.26120781972E+02  0.21448751615E+02 -0.19346187326E+03  0.19639205840E+03  0.00000000000E+00 0.  1.
         11    1    1    2    0    0  0.31098731930E+02  0.54120928187E+02 -0.76850163041E+02  0.99005825864E+02  0.00000000000E+00 0. -1.
</event>
<event>
 7    1  0.2899775E-009  0.6962449E+02  0.7561462E-02  0.1361375E+00
         -1   -1    0    0    0  501 -0.00000000000E+00  0.00000000000E+00  0.33470260582E+03  0.33470260582E+03  0.00000000000E+00 0.  1.
          1   -1    0    0  501    0  0.00000000000E+00 -0.00000000000E+00 -0.39742417167E+02  0.39742417167E+02  0.00000000000E+00 0. -1.
         25    2    1    2    0    0 -0.34378758675E+02 -0.12743770945E+02  0.18328146007E+03  0.22490852256E+03  0.12508975646E+03 0.  0.
          5    1    3    3  502    0 -0.27145872996E+02 -0.16628641984E+02  0.20173974525E+03  0.20427874918E+03  0.41800000000E+01 0. -1.
         -5    1    3    3    0  502 -0.72328856787E+01  0.38848710387E+01 -0.18458285176E+02  0.20629773384E+02  0.41800000000E+01 0. -1.
        -11    1    1    2    0    0  0.61273152369E+02 -0.10760520123E+02  0.83020420518E+02  0.10374284658E+03  0.00000000000E+00 0.  1.
         11    1    1    2    0    0 -0.26894393694E+02  0.23504291068E+02  0.28658308069E+02  0.45793653841E+02  0.00000000000E+00 0. -1.
</event>
<event>
 7    1  0.2899775E-009  0.1497784E+03  0.7561462E-02  0.1200746E+00
         -4   -1    0    0    0  501 -0.00000000000E+00  0.00000000000E+00  0.33533854418E+02  0.33533854418E+02  0.00000000000E+00 0.  1.
          4   -1    0    0  501    0  0.00000000000E+00 -0.00000000000E+00 -0.89214041265E+03  0.89214041265E+03  0.00000000000E+00 0. -1.
         25    2    1    2    0    0 -0.54842747515E+02 -0.12222851287E+03 -0.43785528719E+03  0.47467066957E+03  0.12508979062E+03 0.  0.
          5    1    3    3  502    0 -0.70553267444E+02 -0.80743533783E+02 -0.40588696552E+03  0.41983208903E+03  0.41800000000E+01 0. -1.
         -5    1    3    3    0  502  0.15710519930E+02 -0.41484979083E+02 -0.31968321671E+02  0.54838580547E+02  0.41800000000E+01 0. -1.
        -11    1    1    2    0    0 -0.13726785089E+02  0.14277241863E+02 -0.13058753911E+02  0.23723307480E+02  0.00000000000E+00 0. -1.
         11    1    1    2    0    0  0.68569532603E+02  0.10795127100E+03 -0.40769251713E+03  0.42728029001E+03  0.00000000000E+00 0.  1.
</event>
<event>
 7    1  0.2899775E-009  0.1114032E+03  0.7561462E-02  0.1257993E+00
          2   -1    0    0  501    0  0.00000000000E+00  0.00000000000E+00  0.29686294231E+03  0.29686294231E+03  0.00000000000E+00 0.  1.
         -2   -1    0    0    0  501 -0.00000000000E+00 -0.00000000000E+00 -0.56544530845E+02  0.56544530845E+02  0.00000000000E+00 0. -1.
         25    2    1    2    0    0 -0.34348202509E+02 -0.60233795188E+02  0.11347563695E+03  0.18258516333E+03  0.12511080124E+03 0.  0.
          5    1    3    3  502    0  0.16885169809E+02  0.15660738530E+02  0.82613267545E+02  0.85864964132E+02  0.41800000000E+01 0.  1.
         -5    1    3    3    0  502 -0.51233372318E+02 -0.75894533718E+02  0.30862369406E+02  0.96720199197E+02  0.41800000000E+01 0.  1.
        -11    1    1    2    0    0  0.53140680293E+02  0.99612819330E+01  0.34870955622E+02  0.64336168566E+02  0.00000000000E+00 0. -1.
         11    1    1    2    0    0 -0.18792477784E+02  0.50272513255E+02  0.91971818892E+02  0.10648614126E+03  0.00000000000E+00 0.  1.
</event>
<event>
 7    1  0.2899775E-009  0.1018456E+03  0.7561462E-02  0.1276462E+00
         -1   -1    0    0    0  501 -0.00000000000E+00  0.00000000000E+00  0.86772973400E+02  0.86772973400E+02  0.00000000000E+00 0.  1.
          1   -1    0    0  501    0  0.00000000000E+00 -0.00000000000E+00 -0.22688313685E+03  0.22688313685E+03  0.00000000000E+00 0. -1.
         25    2    1    2    0    0  0.50371392083E+02  0.40199122727E+02 -0.82223458002E+01  0.14095560985E+03  0.12509048872E+03 0.  0.
          5    1    3    3  502    0  0.14343015822E+02 -0.20506214340E+02 -0.51948746694E+02  0.57813247725E+02  0.41800000000E+01 0. -1.
         -5    1    3    3    0  502  0.36028376261E+02  0.60705337067E+02  0.43726400894E+02  0.83142362124E+02  0.41800000000E+01 0. -1.
        -11    1    1    2    0    0 -0.60883522970E+02 -0.59814706690E+02 -0.83318173169E+02  0.11927497846E+03  0.00000000000E+00 0.  1.
         11    1    1    2    0    0  0.10512130887E+02  0.19615583963E+02 -0.48569644480E+02  0.53425521943E+02  0.00000000000E+00 0. -1.
</event>
<event>
 7    1  0.2899775E-009  0.8679241E+02  0.7561462E-02  0.1310811E+00
          1   -1    0    0  501    0  0.00000000000E+00  0.00000000000E+00  0.11257802367E+04  0.11257802367E+04  0.00000000000E+00 0. -1.
         -1   -1    0    0    0  501 -0.00000000000E+00 -0.00000000000E+00 -0.12900602613E+02  0.12900602613E+02  0.00000000000E+00 0.  1.
         25    2    1    2    0    0  0.19396126087E+02 -0.24077549570E+02  0.81215936654E+03  0.82231797937E+03  0.12509230366E+03 0.  0.
          5    1    3    3  502    0  0.20455597786E+02 -0.58450958530E+02  0.20546228298E+03  0.21463263536E+03  0.41800000000E+01 0. -1.
         -5    1    3    3    0  502 -0.10594716994E+01  0.34373408961E+02  0.60669708356E+03  0.60768534401E+03  0.41800000000E+01 0. -1.
        -11    1    1    2    0    0  0.13192772601E+02 -0.18831275445E+02  0.19864409256E+02  0.30385209213E+02  0.00000000000E+00 0.  1.
         11    1    1    2    0    0 -0.32588898688E+02  0.42908825015E+02  0.28085585827E+03  0.28597765071E+03  0.00000000000E+00 0. -1.
</event>
<event>
 7    1  0.2899775E-009  0.1090130E+03  0.7561462E-02  0.1262409E+00
         -1   -1    0    0    0  501 -0.00000000000E+00  0.00000000000E+00  0.72952383382E+03  0.72952383382E+03  0.00000000000E+00 0.  1.
          1   -1    0    0  501    0  0.00000000000E+00 -0.00000000000E+00 -0.27670389673E+02  0.27670389673E+02  0.00000000000E+00 0. -1.
         25    2    1    2    0    0 -0.78074730359E+02  0.33261009588E+02  0.30145527244E+03  0.33723055000E+03  0.12508878563E+03 0.  0.
          5    1    3    3  502    0 -0.62312337941E+02  0.56817983099E+02  0.88342671368E+02  0.12220069823E+03  0.41800000000E+01 0.  1.
         -5    1    3    3    0  502 -0.15762392418E+02 -0.23556973511E+02  0.21311260108E+03  0.21502985177E+03  0.41800000000E+01 0.  1.
        -11    1    1    2    0    0  0.63366003251E+02  0.53845313658E+01  0.34512433485E+03  0.35093453813E+03  0.00000000000E+00 0.  1.
         11    1    1    2    0    0  0.14708727108E+02 -0.38645540954E+02  0.55273836857E+02  0.69029135368E+02  0.00000000000E+00 0. -1.
</event>
<event>
 7    1  0.2899775E-009  0.9597493E+02  0.7561462E-02  0.1288995E+00
          1   -1    0    0  501    0  0.00000000000E+00  0.00000000000E+00  0.24072903600E+03  0.24072903600E+03  0.00000000000E+00 0. -1.
         -1   -1    0    0    0  501 -0.00000000000E+00 -0.00000000000E+00 -0.65567731088E+02  0.65567731088E+02  0.00000000000E+00 0.  1.
         25    2    1    2    0    0  0.30760278085E+02  0.51964651065E+02  0.66991765419E+02  0.15420888562E+03  0.12508382829E+03 0.  0.
          5    1    3    3  502    0  0.73614412355E+01 -0.18985311526E+02  0.76047421188E+02  0.78837272531E+02  0.41800000000E+01 0.  1.
         -5    1    3    3    0  502  0.23398836850E+02  0.70949962592E+02 -0.90556557685E+01  0.75371613085E+02  0.41800000000E+01 0.  1.
        -11    1    1    2    0    0 -0.16792100928E+02  0.18218885743E+02  0.31086820517E+01  0.24971310646E+02  0.00000000000E+00 0.  1.
         11    1    1    2    0    0 -0.13968177157E+02 -0.70183536808E+02  0.10506085744E+03  0.12711657082E+03  0.00000000000E+00 0. -1.
</event>
<event>
 7    1  0.2899775E-009  0.1394696E+03  0.7561462E-02  0.1214044E+00
         -2   -1    0    0    0  501 -0.00000000000E+00  0.00000000000E+00  0.11295807978E+03  0.11295807978E+03  0.00000000000E+00 0.  1.
          2   -1    0    0  501    0  0.00000000000E+00 -0.00000000000E+00 -0.27647574894E+03  0.27647574894E+03  0.00000000000E+00 0. -1.
         25    2    1    2    0    0 -0.13080511356E+03  0.44438924541E+02 -0.78623504593E+02  0.20228166238E+03  0.12510563423E+03 0.  0.
          5    1    3    3  502    0 -0.10208312928E+03  0.42434067382E+02  0.79839495230E+01  0.11091812840E+03  0.41800000000E+01 0.  1.
         -5    1    3    3    0  502 -0.28721984273E+02  0.20048571593E+01 -0.86607454116E+02  0.91363533980E+02  0.41800000000E+01 0.  1.
        -11    1    1    2    0    0  0.53256798463E+02 -0.27085972482E+02  0.12916538160E+02  0.61129153812E+02  0.00000000000E+00 0.  1.
         11    1    1    2    0    0  0.77548315093E+02 -0.17352952059E+02 -0.97810702723E+02  0.12602301253E+03  0.00000000000E+00 0. -1.
</event>
<event>
 7    1  0.2899775E-009  0.1013840E+03  0.7561462E-02  0.1277412E+00
         -1   -1    0    0    0  501 -0.00000000000E+00  0.00000000000E+00  0.28368999145E+02  0.28368999145E+02  0.00000000000E+00 0.  1.
          1   -1    0    0  501    0  0.00000000000E+00 -0.00000000000E+00 -0.51171538784E+03  0.51171538784E+03  0.00000000000E+00 0. -1.
         25    2    1    2    0    0  0.12509570609E+02 -0.50712153376E+02 -0.25978126920E+03  0.29302247307E+03  0.12509056736E+03 0.  0.
          5    1    3    3  502    0  0.55873607284E+02 -0.29362864515E+02 -0.59133041874E+02  0.86592302457E+02  0.41800000000E+01 0. -1.
         -5    1    3    3    0  502 -0.43364036675E+02 -0.21349288860E+02 -0.20064822732E+03  0.20643017061E+03  0.41800000000E+01 0. -1.
        -11    1    1    2    0    0  0.17845677598E+02 -0.11874945344E+02 -0.12464314009E+02  0.24796000879E+02  0.00000000000E+00 0.  1.
         11    1    1    2    0    0 -0.30355248207E+02  0.62587098720E+02 -0.21110080549E+03  0.22226591304E+03  0.00000000000E+00 0. -1.
</event>
<event>
 7    1  0.2899775E-009  0.9987878E+02  0.7561462E-02  0.1280551E+00
         -2   -1    0    0    0  501 -0.00000000000E+00  0.00000000000E+00  0.19173691310E+02  0.19173691310E+02  0.00000000000E+00 0. -1.
          2   -1    0    0  501    0  0.00000000000E+00 -0.00000000000E+00 -0.98896822264E+03  0.98896822264E+03  0.00000000000E+00 0.  1.
         25    2    1    2    0    0  0.58628920809E+02 -0.61147009976E+02 -0.56431560019E+03  0.58418786258E+03  0.12508818886E+03 0.  0.
          5    1    3    3  502    0  0.47893505519E+02 -0.32835659183E+02 -0.54484705788E+03  0.54794868124E+03  0.41800000000E+01 0. -1.
         -5    1    3    3    0  502  0.10735415290E+02 -0.28311350793E+02 -0.19468542300E+02  0.36239181344E+02  0.41800000000E+01 0. -1.
        -11    1    1    2    0    0  0.11543472389E+02  0.33702882277E+02 -0.55454936983E+02  0.65911956914E+02  0.00000000000E+00 0. -1.
         11    1    1    2    0    0 -0.70172393197E+02  0.27444127699E+02 -0.35002399416E+03  0.35804209446E+03  0.00000000000E+00 0.  1.
</event>
<event>
 7    1  0.2899775E-009  0.9237331E+02  0.7561462E-02  0.1297204E+00
          1   -1    0    0  501    0  0.00000000000E+00  0.00000000000E+00  0.44956507065E+03  0.44956507065E+03  0.00000000000E+00 0. -1.
         -1   -1    0    0    0  501 -0.00000000000E+00 -0.00000000000E+00 -0.32638620579E+02  0.32638620579E+02  0.00000000000E+00 0.  1.
         25    2    1    2    0    0 -0.42359237814E+02 -0.10440538230E+02  0.17258776665E+03  0.21757278835E+03  0.12509225063E+03 0.  0.
          5    1    3    3  502    0  0.94864036512E+01 -0.42766421282E+02  0.11862669980E+02  0.45575804793E+02  0.41800000000E+01 0.  1.
         -5    1    3    3    0  502 -0.51845641466E+02  0.32325883052E+02  0.16072509667E+03  0.17199698356E+03  0.41800000000E+01 0.  1.
        -11    1    1    2    0    0 -0.37008424279E+01  0.29443390959E+02  0.22433065759E+02  0.37200160553E+02  0.00000000000E+00 0.  1.
         11    1    1    2    0    0  0.46060080242E+02 -0.19002852729E+02  0.22190561766E+03  0.22743074232E+03  0.00000000000E+00 0. -1.
</event>
<event>
 7    1  0.2899775E-009  0.1010147E+03  0.7561462E-02  0.1278177E+00
         -1   -1    0    0    0  501 -0.00000000000E+00  0.00000000000E+00  0.32983638434E+02  0.32983638434E+02  0.00000000000E+00 0.  1.
          1   -1    0    0  501    0  0.00000000000E+00 -0.00000000000E+00 -0.41377209865E+03  0.41377209865E+03  0.00000000000E+00 0. -1.
         25    2    1    2    0    0 -0.31077720839E+02 -0.22495377956E+01 -0.15645084802E+03  0.20271849789E+03  0.12508811449E+03 0.  0.
          5    1    3    3  502    0  0.18643968802E+02 -0.50441630096E+02 -0.98609815603E+02  0.11239805938E+03  0.41800000000E+01 0.  1.
         -5    1    3    3    0  502 -0.49721689641E+02  0.48192092300E+02 -0.57841032420E+02  0.90320438509E+02  0.41800000000E+01 0.  1.
        -11    1    1    2    0    0 -0.22984514990E+02  0.80370146692E+01 -0.17018614451E+02  0.29707150182E+02  0.00000000000E+00 0.  1.
         11    1    1    2    0    0  0.54062235828E+02 -0.57874768736E+01 -0.20731899774E+03  0.21433008902E+03  0.00000000000E+00 0. -1.
</event>
<event>
 7    1  0.2899775E-009  0.1056847E+03  0.7561462E-02  0.1268776E+00
         -1   -1    0    0    0  501 -0.00000000000E+00  0.00000000000E+00  0.22452052155E+03  0.22452052155E+03  0.00000000000E+00 0.  1.
          1   -1    0    0  501    0  0.00000000000E+00 -0.00000000000E+00 -0.86139528273E+02  0.86139528273E+02  0.00000000000E+00 0. -1.
         25    2    1    2    0    0  0.10968858737E+02 -0.71612848530E+02  0.20725243867E+02  0.14604018900E+03  0.12509790219E+03 0.  0.
          5    1    3    3  502    0 -0.28976384544E+02 -0.20084949374E+02  0.60068826219E+02  0.69776588738E+02  0.41800000000E+01 0. -1.
         -5    1    3    3    0  502  0.39945243281E+02 -0.51527899156E+02 -0.39343582352E+02  0.76263600260E+02  0.41800000000E+01 0. -1.
        -11    1    1    2    0    0  0.35000834289E+02  0.16293277063E+02  0.20427367839E+02  0.43678445888E+02  0.00000000000E+00 0. -1.
         11    1    1    2    0    0 -0.45969693026E+02  0.55319571467E+02  0.97228381574E+02  0.12094141494E+03  0.00000000000E+00 0.  1.
</event>
<event>
 7    1  0.3284569E-009  0.1151773E+03  0.7561462E-02  0.1251272E+00
          2   -1    0    0  501    0  0.00000000000E+00  0.00000000000E+00  0.18296064627E+04  0.18296064627E+04  0.00000000000E+00 0. -1.
         -2   -1    0    0    0  501 -0.00000000000E+00 -0.00000000000E+00 -0.13003475550E+02  0.13003475550E+02  0.00000000000E+00 0.  1.
         25    2    1    2    0    0 -0.38741575529E+02  0.75231916877E+02  0.13958111284E+04  0.14039589550E+04  0.12510511582E+03 0.  0.
          5    1    3    3  502    0 -0.27514561688E+02  0.10383811453E+03  0.78074561943E+03  0.78811204774E+03  0.41800000000E+01 0.  1.
         -5    1    3    3    0  502 -0.11227013841E+02 -0.28606197656E+02  0.61506550900E+03  0.61584690723E+03  0.41800000000E+01 0.  1.
        -11    1    1    2    0    0  0.21534062838E+02 -0.88829891303E+01  0.16392956644E+02  0.28484248028E+02  0.00000000000E+00 0.  1.
         11    1    1    2    0    0  0.17207512692E+02 -0.66348927747E+02  0.40439890206E+03  0.41016673524E+03  0.00000000000E+00 0. -1.
</event>
<event>
 7    1  0.2899775E-009  0.7459752E+02  0.7561462E-02  0.1345122E+00
         -1   -1    0    0    0  501 -0.00000000000E+00  0.00000000000E+00  0.14880207251E+03  0.14880207251E+03  0.00000000000E+00 0.  1.
          1   -1    0    0  501    0  0.00000000000E+00 -0.00000000000E+00 -0.10849240003E+03  0.10849240003E+03  0.00000000000E+00 0. -1.
         25    2    1    2    0    0 -0.10386408992E+02 -0.11019865148E+02 -0.43552727865E+02  0.13332011943E+03  0.12509236276E+03 0.  0.
          5    1    3    3  502    0  0.18499370510E+02  0.26988258067E+02 -0.70862062344E+02  0.78163271825E+02  0.41800000000E+01 0. -1.
         -5    1    3    3    0  502 -0.28885779502E+02 -0.38008123215E+02  0.27309334479E+02  0.55156847602E+02  0.41800000000E+01 0. -1.
        -11    1    1    2    0    0 -0.24087646660E+02  0.21467108647E+02  0.81753717025E+02  0.87890396078E+02  0.00000000000E+00 0.  1.
         11    1    1    2    0    0  0.34474055652E+02 -0.10447243499E+02  0.21086833290E+01  0.36083957034E+02  0.00000000000E+00 0. -1.
</event>
<event>
 7    1  0.2899775E-009  0.8917969E+02  0.7561462E-02  0.1304850E+00
          1   -1    0    0  501    0  0.00000000000E+00  0.00000000000E+00  0.13799291062E+03  0.13799291062E+03  0.00000000000E+00 0. -1.
         -1   -1    0    0    0  501 -0.00000000000E+00 -0.00000000000E+00 -0.96243277937E+02  0.96243277937E+02  0.00000000000E+00 0.  1.
         25    2    1    2    0    0  0.16629439255E+02  0.21492833438E+02 -0.55617249969E+01  0.12812856561E+03  0.12509003318E+03 0.  0.
          5    1    3    3  502    0 -0.31696813708E+01 -0.32864851783E+02  0.41669382059E+02  0.53328746130E+02  0.41800000000E+01 0. -1.
         -5    1    3    3    0  502  0.19799120626E+02  0.54357685221E+02 -0.47231107056E+02  0.74799819477E+02  0.41800000000E+01 0. -1.
        -11    1    1    2    0    0 -0.37005345284E+02 -0.43482677043E+02  0.95464109827E+01  0.57890178312E+02  0.00000000000E+00 0.  1.
         11    1    1    2    0    0  0.20375906029E+02  0.21989843605E+02  0.37764946699E+02  0.48217444638E+02  0.00000000000E+00 0. -1.
</event>
<event>
 7    1  0.2899775E-009  0.1142775E+03  0.7561462E-02  0.1252848E+00
         -2   -1    0    0    0  501 -0.00000000000E+00  0.00000000000E+00  0.64954882041E+02  0.64954882041E+02  0.00000000000E+00 0.  1.
          2   -1    0    0  501    0  0.00000000000E+00 -0.00000000000E+00 -0.22842639384E+03  0.22842639384E+03  0.00000000000E+00 0. -1.
         25    2    1    2    0    0 -0.45543284696E+02 -0.28007074708E+02 -0.94879418798E+02  0.16585617606E+03  0.12509028744E+03 0.  0.
          5    1    3    3  502    0 -0.34262064779E+02 -0.73710183347E+02 -0.84787284767E+02  0.11753057589E+03  0.41800000000E+01 0.  1.
         -5    1    3    3    0  502 -0.11281219917E+02  0.45703108639E+02 -0.10092134031E+02  0.48325600165E+02  0.41800000000E+01 0.  1.
        -11    1    1    2    0    0  0.81603311538E+01  0.53845347336E+02 -0.13498784314E+02  0.56108195589E+02  0.00000000000E+00 0. -1.
         11    1    1    2    0    0  0.37382953542E+02 -0.25838272628E+02 -0.55093308689E+02  0.71416904233E+02  0.00000000000E+00 0.  1.
</event>
<event>
 7    1  0.2899775E-009  0.1114424E+03  0.7561462E-02  0.1257922E+00
         -1   -1    0    0    0  501 -0.00000000000E+00  0.00000000000E+00  0.88341623331E+02  0.88341623331E+02  0.00000000000E+00 0. -1.
          1   -1    0    0  501    0  0.00000000000E+00 -0.00000000000E+00 -0.23477925206E+03  0.23477925206E+03  0.00000000000E+00 0.  1.
         25    2    1    2    0    0  0.40794127841E+02 -0.56316251846E+02 -0.14853037384E+03  0.20626202853E+03  0.12508825433E+03 0.  0.
          5    1    3    3  502    0  0.45766822591E+02 -0.94119335791E+02 -0.10715994779E+03  0.14984584823E+03  0.41800000000E+01 0. -1.
         -5    1    3    3    0  502 -0.49726947502E+01  0.37803083945E+02 -0.41370426049E+02  0.56416180306E+02  0.41800000000E+01 0. -1.
        -11    1    1    2    0    0 -0.47231974596E+02  0.38799501169E+02 -0.38460016338E+02  0.72217958791E+02  0.00000000000E+00 0.  1.
         11    1    1    2    0    0  0.64378467556E+01  0.17516750676E+02  0.40552761457E+02  0.44640888061E+02  0.00000000000E+00 0. -1.
</event>
<event>
 7    1  0.2899775E-009  0.1624886E+03  0.7561462E-02  0.1185915E+00
         -1   -1    0    0    0  501 -0.00000000000E+00  0.00000000000E+00  0.13610510816E+03  0.13610510816E+03  0.00000000000E+00 0.  1.
          1   -1    0    0  501    0  0.00000000000E+00 -0.00000000000E+00 -0.24887041026E+03  0.24887041026E+03  0.00000000000E+00 0. -1.
         25    2    1    2    0    0  0.28310806130E+02  0.13871058572E+03 -0.14618304261E+02  0.18948135665E+03  0.12508941348E+03 0.  0.
          5    1    3    3  502    0 -0.35730891283E+02  0.65127603759E+02  0.32352413561E+02  0.81132314317E+02  0.41800000000E+01 0. -1.
         -5    1    3    3    0  502  0.64041697412E+02  0.73582981957E+02 -0.46970717822E+02  0.10834904233E+03  0.41800000000E+01 0. -1.
        -11    1    1    2    0    0  0.12280141271E+02 -0.83563851323E+02 -0.94757185315E+02  0.12693558715E+03  0.00000000000E+00 0. -1.
         11    1    1    2    0    0 -0.40590947400E+02 -0.55146734393E+02 -0.33898125287E+01  0.68558574621E+02  0.00000000000E+00 0.  1.
</event>
<event>
 7    1  0.2899775E-009  0.2409560E+03  0.7561462E-02  0.1119158E+00
          1   -1    0    0  501    0  0.00000000000E+00  0.00000000000E+00  0.57382109929E+03  0.57382109929E+03  0.00000000000E+00 0. -1.
         -1   -1    0    0    0  501 -0.00000000000E+00 -0.00000000000E+00 -0.12205630301E+03  0.12205630301E+03  0.00000000000E+00 0.  1.
         25    2    1    2    0    0  0.78721974498E+01 -0.23615811048E+03  0.29318337019E+03  0.39678288425E+03  0.12509014367E+03 0.  0.
          5    1    3    3  502    0 -0.24391241062E+02 -0.13876997760E+03  0.24657235733E+03  0.28402013858E+03  0.41800000000E+01 0.  1.
         -5    1    3    3    0  502  0.32263438512E+02 -0.97388132882E+02  0.46611012861E+02  0.11276274567E+03  0.41800000000E+01 0.  1.
        -11    1    1    2    0    0 -0.17355792407E+02  0.81584492769E+02  0.10741367330E+03  0.13599614040E+03  0.00000000000E+00 0. -1.
         11    1    1    2    0    0  0.94835949574E+01  0.15457361771E+03  0.51167752793E+02  0.16309837765E+03  0.00000000000E+00 0.  1.
</event>
<event>
 7    1  0.2899775E-009  0.1977030E+03  0.7561462E-02  0.1151692E+00
         -1   -1    0    0    0  501 -0.00000000000E+00  0.00000000000E+00  0.70449271653E+02  0.70449271653E+02  0.00000000000E+00 0.  1.
          1   -1    0    0  501    0  0.00000000000E+00 -0.00000000000E+00 -0.61997592469E+03  0.61997592469E+03  0.00000000000E+00 0. -1.
         25    2    1    2    0    0 -0.14180602842E+03 -0.93330262123E+02 -0.36994745777E+03  0.42582625737E+03  0.12508953767E+03 0.  0.
          5    1    3    3  502    0 -0.70156529651E+02  0.18973135956E+02 -0.17638149054E+03  0.19081357695E+03  0.41800000000E+01 0.  1.
         -5    1    3    3    0  502 -0.71649498773E+02 -0.11230339808E+03 -0.19356596722E+03  0.23501268043E+03  0.41800000000E+01 0.  1.
        -11    1    1    2    0    0  0.89166124497E+02  0.85999305680E+01 -0.11498481913E+03  0.14576030048E+03  0.00000000000E+00 0.  1.
         11    1    1    2    0    0  0.52639903927E+02  0.84730331555E+02 -0.64594376139E+02  0.11883863850E+03  0.00000000000E+00 0. -1.
</event>
<event>
 7    1  0.2899775E-009  0.1266542E+03  0.7561462E-02  0.1232506E+00
         -2   -1    0    0    0  501 -0.00000000000E+00  0.00000000000E+00  0.16670141564E+02  0.16670141564E+02  0.00000000000E+00 0.  1.
          2   -1    0    0  501    0  0.00000000000E+00 -0.00000000000E+00 -0.14552838064E+04  0.14552838064E+04  0.00000000000E+00 0. -1.
         25    2    1    2    0    0  0.38103581852E+02  0.99323413206E+02 -0.90884537002E+03  0.92356096831E+03  0.12509169525E+03 0.  0.
          5    1    3    3  502    0  0.38849275561E+02  0.10010211207E+03 -0.38547093163E+03  0.40016872765E+03  0.41800000000E+01 0. -1.
         -5    1    3    3    0  502 -0.74569370892E+00 -0.77869886551E+00 -0.52337443839E+03  0.52339224066E+03  0.41800000000E+01 0. -1.
        -11    1    1    2    0    0 -0.65208104708E+02 -0.40487837119E+02 -0.30068079819E+03  0.31032290324E+03  0.00000000000E+00 0.  1.
         11    1    1    2    0    0  0.27104522856E+02 -0.58835576087E+02 -0.22908749662E+03  0.23807007641E+03  0.00000000000E+00 0. -1.
</event>
<event>
 7    1  0.2899775E-009  0.7875183E+02  0.7561462E-02  0.1332631E+00
          1   -1    0    0  501    0  0.00000000000E+00  0.00000000000E+00  0.14886774649E+03  0.14886774649E+03  0.00000000000E+00 0. -1.
         -1   -1    0    0    0  501 -0.00000000000E+00 -0.00000000000E+00 -0.89673058000E+02  0.89673058000E+02  0.00000000000E+00 0.  1.
         25    2    1    2    0    0  0.31702473963E+02  0.20893359480E+02  0.48579519485E+02  0.13945505990E+03  0.12508463012E+03 0.  0.
          5    1    3    3  502    0 -0.13505395619E+02  0.76358066977E+01 -0.37745079134E+02  0.41022733375E+02  0.41800000000E+01 0.  1.
         -5    1    3    3    0  502  0.45207869582E+02  0.13257552782E+02  0.86324598620E+02  0.98432326523E+02  0.41800000000E+01 0.  1.
        -11    1    1    2    0    0  0.25705534467E+02  0.11568467891E+02  0.16850660574E+02  0.32841265405E+02  0.00000000000E+00 0. -1.
         11    1    1    2    0    0 -0.57408008430E+02 -0.32461827371E+02 -0.62354915659E+01  0.66244479191E+02  0.00000000000E+00 0.  1.
</event>
<event>
 7    1  0.3322795E-009  0.1120631E+03  0.7561462E-02  0.1256796E+00
         -3   -1    0    0    0  501 -0.00000000000E+00  0.00000000000E+00  0.92339478869E+02  0.92339478869E+02  0.00000000000E+00 0.  1.
          3   -1    0    0  501    0  0.00000000000E+00 -0.00000000000E+00 -0.22263597514E+03  0.22263597514E+03  0.00000000000E+00 0. -1.
         25    2    1    2    0    0 -0.44435585839E+02  0.73154275278E+02 -0.30373449062E+02  0.15458193227E+03  0.12508780155E+03 0.  0.
          5    1    3    3  502    0  0.78588578282E+01  0.35445139403E+02 -0.69875182391E+02  0.78855139768E+02  0.41800000000E+01 0. -1.
         -5    1    3    3    0  502 -0.52294443668E+02  0.37709135875E+02  0.39501733329E+02  0.75726792504E+02  0.41800000000E+01 0. -1.
        -11    1    1    2    0    0  0.71625260216E+02 -0.51616399448E+02 -0.56500394741E+02  0.10481758058E+03  0.00000000000E+00 0.  1.
         11    1    1    2    0    0 -0.27189674376E+02 -0.21537875830E+02 -0.43422652466E+02  0.55575941154E+02  0.00000000000E+00 0. -1.
</event>
<event>
 7    1  0.2899775E-009  0.1266465E+03  0.7561462E-02  0.1232518E+00
          2   -1    0    0  501    0  0.00000000000E+00  0.00000000000E+00  0.15718356089E+04  0.15718356089E+04  0.00000000000E+00 0. -1.
         -2   -1    0    0    0  501 -0.00000000000E+00 -0.00000000000E+00 -0.10844065418E+02  0.10844065418E+02  0.00000000000E+00 0.  1.
         25    2    1    2    0    0 -0.59666529796E+02 -0.29662780796E+02  0.10165828148E+04  0.10264153337E+04  0.12509133663E+03 0.  0.
          5    1    3    3  502    0 -0.11580781339E+02  0.47183964565E+02  0.44650109834E+03  0.44915603550E+03  0.41800000000E+01 0.  1.
         -5    1    3    3    0  502 -0.48085748457E+02 -0.76846745361E+02  0.57008171645E+03  0.57725929816E+03  0.41800000000E+01 0.  1.
        -11    1    1    2    0    0 -0.93695151374E+01  0.42535737654E+02  0.18488220657E+03  0.18994343131E+03  0.00000000000E+00 0. -1.
         11    1    1    2    0    0  0.69036044933E+02 -0.12872956858E+02  0.35952652212E+03  0.36632090935E+03  0.00000000000E+00 0.  1.
</event>
<event>
 7    1  0.2899775E-009  0.1076883E+03  0.7561462E-02  0.1264912E+00
         -1   -1    0    0    0  501 -0.00000000000E+00  0.00000000000E+00  0.53743155201E+02  0.53743155201E+02  0.00000000000E+00 0.  1.
          1   -1    0    0  501    0  0.00000000000E+00 -0.00000000000E+00 -0.24201480869E+03  0.24201480869E+03  0.00000000000E+00 0. -1.
         25    2    1    2    0    0  0.19871059052E+02 -0.24531335147E+02 -0.11081742144E+03  0.17007595425E+03  0.12509469984E+03 0.  0.
          5    1    3    3  502    0 -0.47962676420E+02 -0.18989874881E+01 -0.15039776471E+02  0.50474664527E+02  0.41800000000E+01 0. -1.
         -5    1    3    3    0  502  0.67833735472E+02 -0.22632347659E+02 -0.95777644966E+02  0.11960128973E+03  0.41800000000E+01 0. -1.
        -11    1    1    2    0    0  0.26011138261E+02 -0.19081842390E+02 -0.42540912413E+02  0.53389373957E+02  0.00000000000E+00 0. -1.
         11    1    1    2    0    0 -0.45882197314E+02  0.43613177537E+02 -0.34913319636E+02  0.72292635678E+02  0.00000000000E+00 0.  1.
</event>
<event>
 7    1  0.2899775E-009  0.1549743E+03  0.7561462E-02  0.1194491E+00
          2   -1    0    0  501    0  0.00000000000E+00  0.00000000000E+00  0.71577321834E+03  0.71577321834E+03  0.00000000000E+00 0. -1.
         -2   -1    0    0    0  501 -0.00000000000E+00 -0.00000000000E+00 -0.35127054218E+02  0.35127054218E+02  0.00000000000E+00 0.  1.
         25    2    1    2    0    0  0.70858093439E+02 -0.95089008316E+02  0.38126901191E+03  0.41842065055E+03  0.12508793888E+03 0.  0.
          5    1    3    3  502    0 -0.13624209547E+02  0.22500309459E+02  0.75918675352E+02  0.80454960560E+02  0.41800000000E+01 0. -1.
         -5    1    3    3    0  502  0.84482302987E+02 -0.11758931777E+03  0.30535033656E+03  0.33796568999E+03  0.41800000000E+01 0. -1.
        -11    1    1    2    0    0 -0.39097963753E+02  0.94836813652E+00  0.13363006667E+03  0.13923557337E+03  0.00000000000E+00 0. -1.
         11    1    1    2    0    0 -0.31760129686E+02  0.94140640179E+02  0.16574708554E+03  0.19324404864E+03  0.00000000000E+00 0.  1.
</event>
<event>
 6    1  0.2899775E-009  0.1056873E+03  0.7561462E-02  0.1268771E+00
          1   -1    0    0  501    0  0.00000000000E+00  0.00000000000E+00  0.19942726245E+03  0.19942726245E+03  0.00000000000E+00 0. -1.
         -1   -1    0    0    0  501 -0.00000000000E+00 -0.00000000000E+00 -0.71999462669E+02  0.71999462669E+02  0.00000000000E+00 0.  1.
          5    1    1    2  502    0 -0.18422254512E+02 -0.40796136475E+02  0.85055638137E+02  0.96206227405E+02  0.41800000000E+01 0.  1.
         -5    1    1    2    0  502  0.35643347093E+02  0.61252228144E+02  0.35045681958E+02  0.79170422940E+02  0.41800000000E+01 0.  1.
        -11    1    1    2    0    0  0.25824841550E+02 -0.40427988227E+02  0.77525605251E+01  0.48594720576E+02  0.00000000000E+00 0.  1.
         11    1    1    2    0    0 -0.43045934131E+02  0.19971896558E+02 -0.42608083671E+00  0.47455354199E+02  0.00000000000E+00 0. -1.
</event>
<event>
 7    1  0.2899775E-009  0.2320193E+03  0.7561462E-02  0.1125227E+00
          1   -1    0    0  501    0  0.00000000000E+00  0.00000000000E+00  0.43715317299E+03  0.43715317299E+03  0.00000000000E+00 0. -1.
         -1   -1    0    0    0  501 -0.00000000000E+00 -0.00000000000E+00 -0.17102770183E+03  0.17102770183E+03  0.00000000000E+00 0.  1.
         25    2    1    2    0    0  0.17341500314E+03  0.14799269753E+03  0.25300754647E+03  0.36281509703E+03  0.12508946489E+03 0.  0.
          5    1    3    3  502    0  0.11543722599E+03  0.12643681185E+03  0.24695130594E+03  0.30052361045E+03  0.41800000000E+01 0. -1.
         -5    1    3    3    0  502  0.57977777149E+02  0.21555885680E+02  0.60562405295E+01  0.62291486577E+02  0.41800000000E+01 0. -1.
        -11    1    1    2    0    0 -0.16776904914E+03 -0.13093389224E+03  0.36452782424E+02  0.21591420364E+03  0.00000000000E+00 0. -1.
         11    1    1    2    0    0 -0.56459539978E+01 -0.17058805295E+02 -0.23334857733E+02  0.29451574153E+02  0.00000000000E+00 0.  1.
</event>
<event>
 7    1  0.2899775E-009  0.8781779E+02  0.7561462E-02  0.1308224E+00
          2   -1    0    0  501    0  0.00000000000E+00  0.00000000000E+00  0.34567134758E+03  0.34567134758E+03  0.00000000000E+00 0. -1.
         -2   -1    0    0    0  501 -0.00000000000E+00 -0.00000000000E+00 -0.40861979437E+02  0.40861979437E+02  0.00000000000E+00 0.  1.
         25    2    1    2    0    0 -0.26344540302E+02 -0.24781756163E+02  0.22843005170E+03  0.26293731824E+03  0.12509026565E+03 0.  0.
          5    1    3    3  502    0  0.16551654716E+02  0.40485237046E+02  0.12995096565E+03  0.13717775900E+03  0.41800000000E+01 0.  1.
         -5    1    3    3    0  502 -0.42896195017E+02 -0.65266993209E+02  0.98479086049E+02  0.12575955923E+03  0.41800000000E+01 0.  1.
        -11    1    1    2    0    0 -0.67752689868E+01  0.18596785815E+02  0.86246552884E+02  0.88488488499E+02  0.00000000000E+00 0. -1.
         11    1    1    2    0    0  0.33119809289E+02  0.61849703473E+01 -0.98672364359E+01  0.35107520283E+02  0.00000000000E+00 0.  1.
</event>
<event>
 7    1  0.2899775E-009  0.1054834E+03  0.7561462E-02  0.1269170E+00
         -4   -1    0    0    0  501 -0.00000000000E+00  0.00000000000E+00  0.26669703143E+03  0.26669703143E+03  0.00000000000E+00 0.  1.
          4   -1    0    0  501    0  0.00000000000E+00 -0.00000000000E+00 -0.52008705887E+02  0.52008705887E+02  0.00000000000E+00 0. -1.
         25    2    1    2    0    0  0.50882804562E+01  0.43027379252E+02  0.93152346944E+02  0.16187209454E+03  0.12509184341E+03 0.  0.
          5    1    3    3  502    0  0.25205760587E+02  0.83301416743E+02  0.63171933192E+02  0.10762259029E+03  0.41800000000E+01 0. -1.
         -5    1    3    3    0  502 -0.20117480130E+02 -0.40274037491E+02  0.29980413752E+02  0.54249504250E+02  0.41800000000E+01 0. -1.
        -11    1    1    2    0    0 -0.35235278559E+02 -0.27595366161E+02  0.11352979480E+03  0.12203296029E+03  0.00000000000E+00 0.  1.
         11    1    1    2    0    0  0.30146998103E+02 -0.15432013091E+02  0.80061837972E+01  0.34800682488E+02  0.00000000000E+00 0. -1.
</event>
<event>
 7    1  0.2899775E-009  0.1179661E+03  0.7561462E-02  0.1246490E+00
          2   -1    0    0  501    0  0.00000000000E+00  0.00000000000E+00  0.75218795024E+03  0.75218795024E+03  0.00000000000E+00 0. -1.
         -2   -1    0    0    0  501 -0.00000000000E+00 -0.00000000000E+00 -0.22929068897E+02  0.22929068897E+02  0.00000000000E+00 0.  1.
         25    2    1    2    0    0  0.47533673123E+02  0.10221993555E+02  0.23784981788E+03  0.27310078675E+03  0.12509022594E+03 0.  0.
          5    1    3    3  502    0  0.90356144962E+02  0.54427774466E+01  0.16930613989E+03  0.19203098230E+03  0.41800000000E+01 0.  1.
         -5    1    3    3    0  502 -0.42822471839E+02  0.47792161088E+01  0.68543677991E+02  0.81069804450E+02  0.41800000000E+01 0.  1.
        -11    1    1    2    0    0 -0.59950873244E+01  0.37948013774E+02  0.15893612974E+03  0.16351356567E+03  0.00000000000E+00 0. -1.
         11    1    1    2    0    0 -0.41538585798E+02 -0.48170007329E+02  0.33247293372E+03  0.33850266671E+03  0.00000000000E+00 0.  1.
</event>
<event>
 7    1  0.2899775E-009  0.1483680E+03  0.7561462E-02  0.1202493E+00
          2   -1    0    0  501    0  0.00000000000E+00  0.00000000000E+00  0.29259333744E+03  0.29259333744E+03  0.00000000000E+00 0.  1.
         -2   -1    0    0    0  501 -0.00000000000E+00 -0.00000000000E+00 -0.79823216783E+02  0.79823216783E+02  0.00000000000E+00 0. -1.
         25    2    1    2    0    0  0.85913682036E+02 -0.53186854999E+02  0.15097711609E+03  0.22057015301E+03  0.12508837079E+03 0.  0.
          5    1    3    3  502    0  0.87053898681E+02  0.17394391363E+02  0.97390156316E+02  0.13184559558E+03  0.41800000000E+01 0.  1.
         -5    1    3    3    0  502 -0.11402166449E+01 -0.70581246362E+02  0.53586959779E+02  0.88724557426E+02  0.41800000000E+01 0.  1.
        -11    1    1    2    0    0 -0.26574270894E+00  0.51483372942E+02  0.12378784958E+02  0.52951323173E+02  0.00000000000E+00 0. -1.
         11    1    1    2    0    0 -0.85647939328E+02  0.17034820568E+01  0.49414219604E+02  0.98895078043E+02  0.00000000000E+00 0.  1.
</event>
<event>
 7    1  0.2899775E-009  0.8510496E+02  0.7561462E-02  0.1315158E+00
          1   -1    0    0  501    0  0.00000000000E+00  0.00000000000E+00  0.19544517979E+03  0.19544517979E+03  0.00000000000E+00 0. -1.
         -1   -1    0    0    0  501 -0.00000000000E+00 -0.00000000000E+00 -0.70692406839E+02  0.70692406839E+02  0.00000000000E+00 0.  1.
         25    2    1    2    0    0 -0.16560126098E+02 -0.29856138753E+02  0.10210823298E+03  0.16504447718E+03  0.12509181191E+03 0.  0.
          5    1    3    3  502    0  0.32424901585E+02 -0.23298139179E+02  0.10788354101E+03  0.11511085245E+03  0.41800000000E+01 0. -1.
         -5    1    3    3    0  502 -0.48985027682E+02 -0.65579995736E+01 -0.57753080282E+01  0.49933624726E+02  0.41800000000E+01 0. -1.
        -11    1    1    2    0    0 -0.18252555452E+01 -0.23736966482E+02 -0.19259461482E+02  0.30621920125E+02  0.00000000000E+00 0.  1.
         11    1    1    2    0    0  0.18385381643E+02  0.53593105234E+02  0.41904001450E+02  0.70471189321E+02  0.00000000000E+00 0. -1.
</event>
<event>
 7    1  0.2899775E-009  0.1273194E+03  0.7561462E-02  0.1231488E+00
          3   -1    0    0  501    0  0.00000000000E+00  0.00000000000E+00  0.20784817436E+02  0.20784817436E+02  0.00000000000E+00 0. -1.
         -3   -1    0    0    0  501 -0.00000000000E+00 -0.00000000000E+00 -0.94385664572E+03  0.94385664572E+03  0.00000000000E+00 0.  1.
         25    2    1    2    0    0  0.24434844383E+02  0.68585055876E+02 -0.33219957339E+03  0.36236109477E+03  0.12509210581E+03 0.  0.
          5    1    3    3  502    0  0.71408644926E+02  0.32370517594E+02 -0.13268444946E+03  0.15417418885E+03  0.41800000000E+01 0.  1.
         -5    1    3    3    0  502 -0.46973800543E+02  0.36214538281E+02 -0.19951512393E+03  0.20818690592E+03  0.41800000000E+01 0.  1.
        -11    1    1    2    0    0  0.34926578102E+02 -0.23002578676E+02 -0.21436743379E+03  0.21840874789E+03  0.00000000000E+00 0.  1.
         11    1    1    2    0    0 -0.59361422485E+02 -0.45582477200E+02 -0.37650482111E+03  0.38387162050E+03  0.00000000000E+00 0. -1.
</event>
<event>
 7    1  0.2899775E-009  0.9845594E+02  0.7561462E-02  0.1283577E+00
          1   -1    0    0  501    0  0.00000000000E+00  0.00000000000E+00  0.27279661586E+03  0.27279661586E+03  0.00000000000E+00 0. -1.
         -1   -1    0    0    0  501 -0.00000000000E+00 -0.00000000000E+00 -0.57429765046E+02  0.57429765046E+02  0.00000000000E+00 0.  1.
         25    2    1    2    0    0  0.29940062837E+02 -0.41149237241E+02  0.16721600322E+03  0.21493942428E+03  0.12509235505E+03 0.  0.
          5    1    3    3  502    0 -0.20369833039E+02  0.10136584360E+02 -0.88232988775E+01  0.24758906349E+02  0.41800000000E+01 0. -1.
         -5    1    3    3    0  502  0.50309895876E+02 -0.51285821602E+02  0.17603930209E+03  0.19018051794E+03  0.41800000000E+01 0. -1.
        -11    1    1    2    0    0 -0.61462594493E+02  0.29855246261E+02  0.19080847469E+02  0.70944097649E+02  0.00000000000E+00 0.  1.
         11    1    1    2    0    0  0.31522531656E+02  0.11293990980E+02  0.29070000127E+02  0.44342858970E+02  0.00000000000E+00 0. -1.
</event>
<event>
 7    1  0.2899775E-009  0.1565538E+03  0.7561462E-02  0.1192643E+00
         -1   -1    0    0    0  501 -0.00000000000E+00  0.00000000000E+00  0.97300387701E+02  0.97300387701E+02  0.00000000000E+00 0.  1.
          1   -1    0    0  501    0  0.00000000000E+00 -0.00000000000E+00 -0.29230296163E+03  0.29230296163E+03  0.00000000000E+00 0. -1.
         25    2    1    2    0    0 -0.12856309725E+03  0.72282275480E+01 -0.10357186592E+03  0.20726029485E+03  0.12509588787E+03 0.  0.
          5    1    3    3  502    0 -0.13029876648E+03  0.46958049840E+02 -0.89078727507E+02  0.16472801548E+03  0.41800000000E+01 0. -1.
         -5    1    3    3    0  502  0.17356692303E+01 -0.39729822292E+02 -0.14493138411E+02  0.42532279365E+02  0.41800000000E+01 0. -1.
        -11    1    1    2    0    0  0.64492050970E+02  0.15925495865E+02 -0.92892608344E+02  0.11420106279E+03  0.00000000000E+00 0. -1.
         11    1    1    2    0    0  0.64071046280E+02 -0.23153723413E+02  0.14619003344E+01  0.68141991693E+02  0.00000000000E+00 0.  1.
</event>
<event>
 7    1  0.2899775E-009  0.2647110E+03  0.7561462E-02  0.1104345E+00
          1   -1    0    0  501    0  0.00000000000E+00  0.00000000000E+00  0.23384765892E+03  0.23384765892E+03  0.00000000000E+00 0. -1.
         -1   -1    0    0    0  501 -0.00000000000E+00 -0.00000000000E+00 -0.33106144835E+03  0.33106144835E+03  0.00000000000E+00 0.  1.
         25    2    1    2    0    0  0.24143446076E+03  0.48882169005E+02  0.19094164042E+02  0.27693092286E+03  0.12508430615E+03 0.  0.
          5    1    3    3  502    0  0.56789004571E+00 -0.16487435315E+02  0.21354194987E+02  0.27306264225E+02  0.41800000000E+01 0. -1.
         -5    1    3    3    0  502  0.24086657072E+03  0.65369604320E+02 -0.22600309449E+01  0.24962465863E+03  0.41800000000E+01 0. -1.
        -11    1    1    2    0    0 -0.16458553455E+03 -0.76013846658E+02 -0.89534683826E+02  0.20219535770E+03  0.00000000000E+00 0. -1.
         11    1    1    2    0    0 -0.76848926206E+02  0.27131677652E+02 -0.26773269647E+02  0.85782826713E+02  0.00000000000E+00 0.  1.
</event>
<event>
 7    1  0.2899775E-009  0.1589689E+03  0.7561462E-02  0.1189866E+00
         -2   -1    0    0    0  501 -0.00000000000E+00  0.00000000000E+00  0.34778073968E+02  0.34778073968E+02  0.00000000000E+00 0.  1.
          2   -1    0    0  501    0  0.00000000000E+00 -0.00000000000E+00 -0.89394376839E+03  0.89394376839E+03  0.00000000000E+00 0. -1.
         25    2    1    2    0    0  0.53531001812E+02  0.12848465017E+03 -0.49193808275E+03  0.52633192897E+03  0.12509335997E+03 0.  0.
          5    1    3    3  502    0 -0.14785454986E+02  0.32801088521E+02 -0.29286187769E+03  0.29509332912E+03  0.41800000000E+01 0.  1.
         -5    1    3    3    0  502  0.68316456797E+02  0.95683561648E+02 -0.19907620506E+03  0.23123859985E+03  0.41800000000E+01 0.  1.
        -11    1    1    2    0    0  0.13245257682E+02 -0.81144956737E+02 -0.16946896329E+03  0.18836047986E+03  0.00000000000E+00 0.  1.
         11    1    1    2    0    0 -0.66776259494E+02 -0.47339693432E+02 -0.19775864838E+03  0.21402943353E+03  0.00000000000E+00 0. -1.
</event>
<event>
 7    1  0.2899775E-009  0.1033936E+03  0.7561462E-02  0.1273317E+00
          2   -1    0    0  501    0  0.00000000000E+00  0.00000000000E+00  0.28178479312E+03  0.28178479312E+03  0.00000000000E+00 0.  1.
         -2   -1    0    0    0  501 -0.00000000000E+00 -0.00000000000E+00 -0.45864119987E+02  0.45864119987E+02  0.00000000000E+00 0. -1.
         25    2    1    2    0    0 -0.14997376730E+02  0.31062086349E+02  0.13463938093E+03  0.18700692233E+03  0.12511615237E+03 0.  0.
          5    1    3    3  502    0 -0.42575076879E+02 -0.23321727969E+02  0.12304067397E+02  0.50253384376E+02  0.41800000000E+01 0. -1.
         -5    1    3    3    0  502  0.27577700149E+02  0.54383814319E+02  0.12233531354E+03  0.13675353796E+03  0.41800000000E+01 0. -1.
        -11    1    1    2    0    0 -0.23364392910E+02  0.21580902053E+02  0.41003693402E+02  0.51893478030E+02  0.00000000000E+00 0.  1.
         11    1    1    2    0    0  0.38361769639E+02 -0.52642988402E+02  0.60277598796E+02  0.88748512744E+02  0.00000000000E+00 0. -1.
</event>
<event>
 7    1  0.2899775E-009  0.1268562E+03  0.7561462E-02  0.1232197E+00
          1   -1    0    0  501    0  0.00000000000E+00  0.00000000000E+00  0.69284955757E+02  0.69284955757E+02  0.00000000000E+00 0. -1.
         -1   -1    0    0    0  501 -0.00000000000E+00 -0.00000000000E+00 -0.36300601569E+03  0.36300601569E+03  0.00000000000E+00 0.  1.
         25    2    1    2    0    0  0.19743878245E+02  0.71220856024E+02 -0.26029980861E+03  0.29810522101E+03  0.12509397016E+03 0.  0.
          5    1    3    3  502    0 -0.44871386652E+02  0.59179133205E+02 -0.17640884874E+03  0.19145016444E+03  0.41800000000E+01 0.  1.
         -5    1    3    3    0  502  0.64615264897E+02  0.12041722820E+02 -0.83890959869E+02  0.10665505658E+03  0.41800000000E+01 0.  1.
        -11    1    1    2    0    0  0.21691936347E+02 -0.68600661492E+02 -0.51926720952E+02  0.88729787605E+02  0.00000000000E+00 0.  1.
         11    1    1    2    0    0 -0.41435814592E+02 -0.26201945327E+01  0.18505469632E+02  0.45455962828E+02  0.00000000000E+00 0. -1.
</event>
<event>
 7    1  0.2899775E-009  0.1277136E+03  0.7561462E-02  0.1230888E+00
          1   -1    0    0  501    0  0.00000000000E+00  0.00000000000E+00  0.41670070404E+02  0.41670070404E+02  0.00000000000E+00 0. -1.
         -1   -1    0    0    0  501 -0.00000000000E+00 -0.00000000000E+00 -0.85121368473E+03  0.85121368473E+03  0.00000000000E+00 0.  1.
         25    2    1    2    0    0  0.18320406458E+02  0.10646815521E+03 -0.16611662996E+03  0.23433473220E+03  0.12508767565E+03 0.  0.
          5    1    3    3  502    0 -0.10006621714E+02  0.83654099048E+01  0.18679491718E+02  0.23162650363E+02  0.41800000000E+01 0.  1.
         -5    1    3    3    0  502  0.28327028171E+02  0.98102745302E+02 -0.18479612168E+03  0.21117208184E+03  0.41800000000E+01 0.  1.
        -11    1    1    2    0    0 -0.38570172883E+02 -0.84997984204E+01 -0.21496888911E+03  0.21856698766E+03  0.00000000000E+00 0. -1.
         11    1    1    2    0    0  0.20249766425E+02 -0.97968356787E+02 -0.42845809526E+03  0.43998203527E+03  0.00000000000E+00 0.  1.
</event>
<event>
 6    1  0.2899775E-009  0.1059969E+03  0.7561462E-02  0.1268168E+00
         -1   -1    0    0    0  501 -0.00000000000E+00  0.00000000000E+00  0.21722071542E+02  0.21722071542E+02  0.00000000000E+00 0.  1.
          1   -1    0    0  501    0  0.00000000000E+00 -0.00000000000E+00 -0.59076156295E+03  0.59076156295E+03  0.00000000000E+00 0. -1.
          5    1    1    2  502    0  0.18822035477E+02  0.47415743802E+02 -0.11303961164E+03  0.12408846835E+03  0.41800000000E+01 0.  1.
         -5    1    1    2    0  502 -0.30928736837E+02 -0.69628307334E+02 -0.20127074110E+03  0.21524885962E+03  0.41800000000E+01 0.  1.
        -11    1    1    2    0    0  0.15429658613E+02  0.52149380395E+02 -0.86021857363E+02  0.10177127387E+03  0.00000000000E+00 0.  1.
         11    1    1    2    0    0 -0.33229572533E+01 -0.29936816864E+02 -0.16870728131E+03  0.17137503265E+03  0.00000000000E+00 0. -1.
</event>
<event>
 7    1  0.2899775E-009  0.1007695E+03  0.7561462E-02  0.1278686E+00
         -1   -1    0    0    0  501 -0.00000000000E+00  0.00000000000E+00  0.28295706696E+03  0.28295706696E+03  0.00000000000E+00 0.  1.
          1   -1    0    0  501    0  0.00000000000E+00 -0.00000000000E+00 -0.50837879135E+02  0.50837879135E+02  0.00000000000E+00 0. -1.
         25    2    1    2    0    0  0.11980928510E+01 -0.42535048726E+02  0.11521767909E+03  0.17531426620E+03  0.12509721245E+03 0.  0.
          5    1    3    3  502    0  0.35509399896E+02 -0.57337064518E+02  0.16326797307E+02  0.69516135960E+02  0.41800000000E+01 0.  1.
         -5    1    3    3    0  502 -0.34311307045E+02  0.14802015791E+02  0.98890881781E+02  0.10579813024E+03  0.41800000000E+01 0.  1.
        -11    1    1    2    0    0 -0.37850214752E+02 -0.29345445443E+01  0.82207971200E+02  0.90550542999E+02  0.00000000000E+00 0.  1.
         11    1    1    2    0    0  0.36652121901E+02  0.45469593271E+02  0.34693537536E+02  0.67930136897E+02  0.00000000000E+00 0. -1.
</event>
<event>
 7    1  0.2899775E-009  0.1290239E+03  0.7561462E-02  0.1228911E+00
         -2   -1    0    0    0  501 -0.00000000000E+00  0.00000000000E+00  0.12704855820E+03  0.12704855820E+03  0.00000000000E+00 0.  1.
          2   -1    0    0  501    0  0.00000000000E+00 -0.00000000000E+00 -0.13657116675E+03  0.13657116675E+03  0.00000000000E+00 0. -1.
         25    2    1    2    0    0  0.68726833442E+01 -0.74679556048E+02  0.14700075548E+02  0.14658519589E+03  0.12508739970E+03 0.  0.
          5    1    3    3  502    0 -0.46943596883E+02 -0.76264775182E+02  0.21396485979E+02  0.92169947565E+02  0.41800000000E+01 0. -1.
         -5    1    3    3    0  502  0.53816280228E+02  0.15852191335E+01 -0.66964104306E+01  0.54415248321E+02  0.41800000000E+01 0. -1.
        -11    1    1    2    0    0 -0.23622359165E+02  0.89170277003E+02 -0.17526102551E+02  0.93896317415E+02  0.00000000000E+00 0. -1.
         11    1    1    2    0    0  0.16749675821E+02 -0.14490720955E+02 -0.66965815500E+01  0.23138211650E+02  0.00000000000E+00 0.  1.
</event>
<event>
 7    1  0.2899775E-009  0.1159614E+03  0.7561462E-02  0.1249912E+00
         -2   -1    0    0    0  501 -0.00000000000E+00  0.00000000000E+00  0.49866991921E+02  0.49866991921E+02  0.00000000000E+00 0. -1.
          2   -1    0    0  501    0  0.00000000000E+00 -0.00000000000E+00 -0.29107189896E+03  0.29107189896E+03  0.00000000000E+00 0.  1.
         25    2    1    2    0    0  0.23204904989E+02 -0.36109583970E+02 -0.15622830561E+03  0.20468842501E+03  0.12509075982E+03 0.  0.
          5    1    3    3  502    0  0.16649373589E+02  0.46333333161E+02 -0.56273772401E+02  0.74887844561E+02  0.41800000000E+01 0. -1.
         -5    1    3    3    0  502  0.65555314006E+01 -0.82442917132E+02 -0.99954533208E+02  0.12980058045E+03  0.41800000000E+01 0. -1.
        -11    1    1    2    0    0 -0.46829820650E+02  0.52952074193E+02 -0.80096787208E+02  0.10682906713E+03  0.00000000000E+00 0.  1.
         11    1    1    2    0    0  0.23624915660E+02 -0.16842490223E+02 -0.48798142276E+01  0.29421398739E+02  0.00000000000E+00 0. -1.
</event>
<event>
 7    1  0.2899775E-009  0.1155298E+03  0.7561462E-02  0.1250659E+00
         -1   -1    0    0    0  501 -0.00000000000E+00  0.00000000000E+00  0.60756790484E+02  0.60756790484E+02  0.00000000000E+00 0.  1.
          1   -1    0    0  501    0  0.00000000000E+00 -0.00000000000E+00 -0.24690768916E+03  0.24690768916E+03  0.00000000000E+00 0. -1.
         25    2    1    2    0    0 -0.48630404559E+02 -0.24243693314E+02 -0.11638965717E+03  0.17929853414E+03  0.12509492051E+03 0.  0.
          5    1    3    3  502    0  0.72740135153E+01 -0.58754891750E+02 -0.20112104561E+02  0.62665921577E+02  0.41800000000E+01 0.  1.
         -5    1    3    3    0  502 -0.55904418074E+02  0.34511198436E+02 -0.96277552609E+02  0.11663261257E+03  0.41800000000E+01 0.  1.
        -11    1    1    2    0    0  0.46770610062E+02 -0.27396281546E+02 -0.23758053804E+02  0.59181849655E+02  0.00000000000E+00 0.  1.
         11    1    1    2    0    0  0.18597944972E+01  0.51639974860E+02 -0.46003187699E+02  0.69184095843E+02  0.00000000000E+00 0. -1.
</event>
<event>
 7    1  0.2899775E-009  0.8111389E+02  0.7561462E-02  0.1325920E+00
         -1   -1    0    0    0  501 -0.00000000000E+00  0.00000000000E+00  0.47004068592E+02  0.47004068592E+02  0.00000000000E+00 0.  1.
          1   -1    0    0  501    0  0.00000000000E+00 -0.00000000000E+00 -0.27903930030E+03  0.27903930030E+03  0.00000000000E+00 0. -1.
         25    2    1    2    0    0 -0.30467259921E+02 -0.27692885842E+02 -0.16954207176E+03  0.21467638219E+03  0.12508511152E+03 0.  0.
          5    1    3    3  502    0  0.24457877717E+02  0.30556820128E+02 -0.10374977164E+03  0.11096573595E+03  0.41800000000E+01 0. -1.
         -5    1    3    3    0  502 -0.54925137639E+02 -0.58249705970E+02 -0.65792300111E+02  0.10371064624E+03  0.41800000000E+01 0. -1.
        -11    1    1    2    0    0  0.17920054775E+02  0.86701627802E+01  0.18532120468E+02  0.27198153886E+02  0.00000000000E+00 0.  1.
         11    1    1    2    0    0  0.12547205147E+02  0.19022723062E+02 -0.81025280425E+02  0.84168832816E+02  0.00000000000E+00 0. -1.
</event>
<event>
 6    1  0.2899775E-009  0.1036919E+03  0.7561462E-02  0.1272719E+00
          3   -1    0    0  501    0  0.00000000000E+00  0.00000000000E+00  0.25452538344E+03  0.25452538344E+03  0.00000000000E+00 0. -1.
         -3   -1    0    0    0  501 -0.00000000000E+00 -0.00000000000E+00 -0.18520609604E+03  0.18520609604E+03  0.00000000000E+00 0.  1.
          5    1    1    2  502    0  0.96192963470E+02  0.12787315995E+02  0.17588245374E+03  0.20091966455E+03  0.41800000000E+01 0.  1.
         -5    1    1    2    0  502 -0.38170088164E+02  0.79991005544E+01  0.39768779390E+02  0.55856686746E+02  0.41800000000E+01 0.  1.
        -11    1    1    2    0    0 -0.19175291607E+02 -0.25493822231E+02 -0.13966217311E+03  0.14325902896E+03  0.00000000000E+00 0.  1.
         11    1    1    2    0    0 -0.38847583698E+02  0.47074056815E+01 -0.66697726154E+01  0.39696099232E+02  0.00000000000E+00 0. -1.
</event>
<event>
 7    1  0.2899775E-009  0.1644197E+03  0.7561462E-02  0.1183795E+00
         -3   -1    0    0    0  501 -0.00000000000E+00  0.00000000000E+00  0.47893919866E+02  0.47893919866E+02  0.00000000000E+00 0.  1.
          3   -1    0    0  501    0  0.00000000000E+00 -0.00000000000E+00 -0.67799294439E+03  0.67799294439E+03  0.00000000000E+00 0. -1.
         25    2    1    2    0    0 -0.13263164307E+03  0.54470830644E+02 -0.30829812654E+03  0.36229117345E+03  0.12509570495E+03 0.  0.
          5    1    3    3  502    0 -0.51403665640E+02 -0.31940013699E+02 -0.52180673483E+02  0.80017475600E+02  0.41800000000E+01 0.  1.
         -5    1    3    3    0  502 -0.81227977427E+02  0.86410844342E+02 -0.25611745306E+03  0.28227369785E+03  0.41800000000E+01 0.  1.
        -11    1    1    2    0    0  0.55988042304E+02 -0.45878041514E+02 -0.71741872916E+02  0.10191345301E+03  0.00000000000E+00 0. -1.
         11    1    1    2    0    0  0.76643600763E+02 -0.85927891301E+01 -0.25005902507E+03  0.26168223780E+03  0.00000000000E+00 0.  1.
</event>
<event>
 7    1  0.2899775E-009  0.6816341E+02  0.7561462E-02  0.1366452E+00
          2   -1    0    0  501    0  0.00000000000E+00  0.00000000000E+00  0.11333866556E+03  0.11333866556E+03  0.00000000000E+00 0.  1.
         -2   -1    0    0    0  501 -0.00000000000E+00 -0.00000000000E+00 -0.11536098968E+03  0.11536098968E+03  0.00000000000E+00 0. -1.
         25    2    1    2    0    0  0.26502648294E+02  0.45682455384E+00  0.12595293369E+02  0.12848716443E+03  0.12509081082E+03 0.  0.
          5    1    3    3  502    0  0.32527817872E+02  0.31500318857E+02  0.57561461345E+02  0.73356139864E+02  0.41800000000E+01 0. -1.
         -5    1    3    3    0  502 -0.60251695775E+01 -0.31043494303E+02 -0.44966167976E+02  0.55131024563E+02  0.41800000000E+01 0. -1.
        -11    1    1    2    0    0 -0.23012536857E+02 -0.25108146090E+02 -0.47822028868E+02  0.58710665963E+02  0.00000000000E+00 0. -1.
         11    1    1    2    0    0 -0.34901114369E+01  0.24651321537E+02  0.33204411378E+02  0.41501824855E+02  0.00000000000E+00 0.  1.
</event>
<event>
 7    1  0.2899775E-009  0.1883033E+03  0.7561462E-02  0.1160001E+00
         -2   -1    0    0    0  501 -0.00000000000E+00  0.00000000000E+00  0.24603366766E+03  0.24603366766E+03  0.00000000000E+00 0. -1.
          2   -1    0    0  501    0  0.00000000000E+00 -0.00000000000E+00 -0.20029156517E+03  0.20029156517E+03  0.00000000000E+00 0.  1.
         25    2    1    2    0    0  0.13919474690E+03  0.86593453441E+02 -0.78765507901E+02  0.22073984323E+03  0.12509384242E+03 0.  0.
          5    1    3    3  502    0 -0.16824047185E+02  0.24087281914E+02  0.90966570595E+01  0.31039769383E+02  0.41800000000E+01 0. -1.
         -5    1    3    3    0  502  0.15601879408E+03  0.62506171527E+02 -0.87862164961E+02  0.18970007385E+03  0.41800000000E+01 0. -1.
        -11    1    1    2    0    0 -0.95062106597E+02 -0.94417158442E+02  0.12115807211E+03  0.18063964779E+03  0.00000000000E+00 0. -1.
         11    1    1    2    0    0 -0.44132640302E+02  0.78237050011E+01  0.33495382827E+01  0.44945741808E+02  0.00000000000E+00 0.  1.
</event>
<event>
 7    1  0.2899775E-009  0.8414802E+02  0.7561462E-02  0.1317676E+00
          2   -1    0    0  501    0  0.00000000000E+00  0.00000000000E+00  0.21234271152E+02  0.21234271152E+02  0.00000000000E+00 0. -1.
         -2   -1    0    0    0  501 -0.00000000000E+00 -0.00000000000E+00 -0.72514669299E+03  0.72514669299E+03  0.00000000000E+00 0.  1.
         25    2    1    2    0    0 -0.53751715682E+02  0.25913835162E+02 -0.36376602241E+03  0.38927442998E+03  0.12509232182E+03 0.  0.
          5    1    3    3  502    0 -0.63961381041E+02  0.26920337533E+02 -0.37005970610E+03  0.37653342656E+03  0.41800000000E+01 0. -1.
         -5    1    3    3    0  502  0.10209665359E+02 -0.10065023712E+01  0.62936836856E+01  0.12741003418E+02  0.41800000000E+01 0. -1.
        -11    1    1    2    0    0 -0.69424757377E+01  0.13602626967E+02 -0.81662054976E+01  0.17318092909E+02  0.00000000000E+00 0. -1.
         11    1    1    2    0    0  0.60694191420E+02 -0.39516462129E+02 -0.33198019392E+03  0.33978844125E+03  0.00000000000E+00 0.  1.
</event>
<event>
 7    1  0.2899775E-009  0.3014781E+03  0.7561462E-02  0.1084504E+00
         -1   -1    0    0    0  501 -0.00000000000E+00  0.00000000000E+00  0.20335084446E+03  0.20335084446E+03  0.00000000000E+00 0.  1.
          1   -1    0    0  501    0  0.00000000000E+00 -0.00000000000E+00 -0.48743206381E+03  0.48743206381E+03  0.00000000000E+00 0. -1.
         25    2    1    2    0    0 -0.55263630928E+02 -0.27844725736E+03 -0.56002786529E+02  0.31522858864E+03  0.12508320017E+03 0.  0.
          5    1    3    3  502    0 -0.76784886061E+02 -0.27708298344E+03 -0.46483057734E+02  0.29128859486E+03  0.41800000000E+01 0.  1.
         -5    1    3    3    0  502  0.21521255133E+02 -0.13642739169E+01 -0.95197287951E+01  0.23939993779E+02  0.41800000000E+01 0.  1.
        -11    1    1    2    0    0  0.47191292680E+02  0.67654317743E+02 -0.96432489523E+02  0.12689897498E+03  0.00000000000E+00 0.  1.
         11    1    1    2    0    0  0.80723382479E+01  0.21079293961E+03 -0.13164594330E+03  0.24865534465E+03  0.00000000000E+00 0. -1.
</event>
<event>
 7    1  0.2899775E-009  0.1036817E+03  0.7561462E-02  0.1272739E+00
         -1   -1    0    0    0  501 -0.00000000000E+00  0.00000000000E+00  0.55043172064E+03  0.55043172064E+03  0.00000000000E+00 0.  1.
          1   -1    0    0  501    0  0.00000000000E+00 -0.00000000000E+00 -0.25329488509E+02  0.25329488509E+02  0.00000000000E+00 0. -1.
         25    2    1    2    0    0  0.20507157066E+01 -0.35150538723E+02  0.22236697077E+03  0.25755587788E+03  0.12509274453E+03 0.  0.
          5    1    3    3  502    0 -0.29267368453E+02  0.26755523049E+02  0.15755756886E+03  0.16252475743E+03  0.41800000000E+01 0.  1.
         -5    1    3    3    0  502  0.31318084160E+02 -0.61906061772E+02  0.64809401904E+02  0.95031120454E+02  0.41800000000E+01 0.  1.
        -11    1    1    2    0    0  0.44259421377E+02  0.24022666047E+02  0.15904914327E+03  0.16683109674E+03  0.00000000000E+00 0.  1.
         11    1    1    2    0    0 -0.46310137084E+02  0.11127872675E+02  0.14368611810E+03  0.15137423453E+03  0.00000000000E+00 0. -1.
</event>
<event>
 7    1  0.3389173E-009  0.1744086E+03  0.7561462E-02  0.1173327E+00
          2   -1    0    0  501    0  0.00000000000E+00  0.00000000000E+00  0.42549341117E+03  0.42549341117E+03  0.00000000000E+00 0. -1.
         -2   -1    0    0    0  501 -0.00000000000E+00 -0.00000000000E+00 -0.79730150909E+02  0.79730150909E+02  0.00000000000E+00 0.  1.
         25    2    1    2    0    0  0.90849816448E+01 -0.14622151100E+03  0.21377454137E+03  0.28776992848E+03  0.12509480417E+03 0.  0.
          5    1    3    3  502    0  0.58835831894E+02 -0.83629605551E+02  0.72607873581E+02  0.12547884979E+03  0.41800000000E+01 0. -1.
         -5    1    3    3    0  502 -0.49750850249E+02 -0.62591905445E+02  0.14116666778E+03  0.16229107869E+03  0.41800000000E+01 0. -1.
        -11    1    1    2    0    0 -0.38992018161E+02  0.39189918176E+02  0.73200290010E+02  0.91730636237E+02  0.00000000000E+00 0. -1.
         11    1    1    2    0    0  0.29907036516E+02  0.10703159282E+03  0.58788428880E+02  0.12572299736E+03  0.00000000000E+00 0.  1.
</event>
<event>
 7    1  0.2899775E-009  0.1445203E+03  0.7561462E-02  0.1207373E+00
         -1   -1    0    0    0  501 -0.00000000000E+00  0.00000000000E+00  0.59535969459E+02  0.59535969459E+02  0.00000000000E+00 0.  1.
          1   -1    0    0  501    0  0.00000000000E+00 -0.00000000000E+00 -0.44274053698E+03  0.44274053698E+03  0.00000000000E+00 0. -1.
         25    2    1    2    0    0  0.76194686865E+02  0.92601171975E+02 -0.17934270023E+03  0.24938199580E+03  0.12508784251E+03 0.  0.
          5    1    3    3  502    0  0.96089508000E+01 -0.16387823601E+02  0.92770443508E+01  0.21550606714E+02  0.41800000000E+01 0. -1.
         -5    1    3    3    0  502  0.66585736065E+02  0.10898899558E+03 -0.18861974458E+03  0.22783138908E+03  0.41800000000E+01 0. -1.
        -11    1    1    2    0    0 -0.77946836561E+02 -0.37193679641E+02 -0.82346285310E+02  0.11933142855E+03  0.00000000000E+00 0.  1.
         11    1    1    2    0    0  0.17521496960E+01 -0.55407492333E+02 -0.12151558197E+03  0.13356308209E+03  0.00000000000E+00 0. -1.
</event>
<event>
 7    1  0.3223106E-009  0.1861277E+03  0.7561462E-02  0.1162001E+00
         -1   -1    0    0    0  501 -0.00000000000E+00  0.00000000000E+00  0.59905116516E+02  0.59905116516E+02  0.00000000000E+00 0.  1.
          1   -1    0    0  501    0  0.00000000000E+00 -0.00000000000E+00 -0.83411752414E+03  0.83411752414E+03  0.00000000000E+00 0. -1.
         25    2    1    2    0    0  0.22222430189E+02 -0.15912176853E+03 -0.17942113190E+03  0.27138986394E+03  0.12508773743E+03 0.  0.
          5    1    3    3  502    0  0.72626288840E+02 -0.89638952413E+02 -0.82732429512E+02  0.14202762729E+03  0.41800000000E+01 0.  1.
         -5    1    3    3    0  502 -0.50403858651E+02 -0.69482816117E+02 -0.96688702387E+02  0.12936223665E+03  0.41800000000E+01 0.  1.
        -11    1    1    2    0    0  0.20008724715E+02  0.48856736409E+02 -0.91152908621E+02  0.10533841895E+03  0.00000000000E+00 0.  1.
         11    1    1    2    0    0 -0.42231154905E+02  0.11026503212E+03 -0.50363836711E+03  0.51729435776E+03  0.00000000000E+00 0. -1.
</event>
<event>
 7    1  0.2899775E-009  0.2217963E+03  0.7561462E-02  0.1132551E+00
          1   -1    0    0  501    0  0.00000000000E+00  0.00000000000E+00  0.40508594222E+03  0.40508594222E+03  0.00000000000E+00 0. -1.
         -1   -1    0    0    0  501 -0.00000000000E+00 -0.00000000000E+00 -0.15101947628E+03  0.15101947628E+03  0.00000000000E+00 0.  1.
         25    2    1    2    0    0 -0.14128255121E+03  0.15050952797E+03  0.22205751058E+03  0.32798091639E+03  0.12509223087E+03 0.  0.
          5    1    3    3  502    0 -0.38789482091E+02 -0.13545884336E+02  0.72480072646E+02  0.83420310681E+02  0.41800000000E+01 0. -1.
         -5    1    3    3    0  502 -0.10249306912E+03  0.16405541231E+03  0.14957743793E+03  0.24456060571E+03  0.41800000000E+01 0. -1.
        -11    1    1    2    0    0  0.59237090536E+02 -0.86059932441E+02 -0.27471834221E+02  0.10802798962E+03  0.00000000000E+00 0. -1.
         11    1    1    2    0    0  0.82045460674E+02 -0.64449595531E+02  0.59480789590E+02  0.12009651249E+03  0.00000000000E+00 0.  1.
</event>
<event>
 7    1  0.2899775E-009  0.1081167E+03  0.7561462E-02  0.1264098E+00
         -2   -1    0    0    0  501 -0.00000000000E+00  0.00000000000E+00  0.35215148404E+02  0.35215148404E+02  0.00000000000E+00 0.  1.
          2   -1    0    0  501    0  0.00000000000E+00 -0.00000000000E+00 -0.36071781218E+03  0.36071781218E+03  0.00000000000E+00 0. -1.
         25    2    1    2    0    0 -0.22095227345E+02 -0.12478046023E+02 -0.15658953021E+03  0.20201831019E+03  0.12508883235E+03 0.  0.
          5    1    3    3  502    0  0.23709727555E+02  0.45726474847E+02 -0.81204290909E+02  0.96253160700E+02  0.41800000000E+01 0.  1.
         -5    1    3    3    0  502 -0.45804954900E+02 -0.58204520870E+02 -0.75385239299E+02  0.10576514949E+03  0.41800000000E+01 0.  1.
        -11    1    1    2    0    0 -0.33679213090E+02  0.31996373113E+01 -0.35620508692E+02  0.49125835492E+02  0.00000000000E+00 0.  1.
         11    1    1    2    0    0  0.55774440435E+02  0.92784087118E+01 -0.13329262488E+03  0.14478881490E+03  0.00000000000E+00 0. -1.
</event>
<event>
 7    1  0.2899775E-009  0.1273616E+03  0.7561462E-02  0.1231424E+00
          2   -1    0    0  501    0  0.00000000000E+00  0.00000000000E+00  0.25531730711E+04  0.25531730711E+04  0.00000000000E+00 0. -1.
         -2   -1    0    0    0  501 -0.00000000000E+00 -0.00000000000E+00 -0.14000616186E+02  0.14000616186E+02  0.00000000000E+00 0.  1.
         25    2    1    2    0    0 -0.82900135705E+02 -0.18132413416E+02  0.22068973674E+04  0.22120681808E+04  0.12509368221E+03 0.  0.
          5    1    3    3  502    0 -0.11489734322E+03 -0.15241832197E+02  0.15262997412E+04  0.15306998678E+04  0.41800000000E+01 0.  1.
         -5    1    3    3    0  502  0.31997207520E+02 -0.28905812194E+01  0.68059762621E+03  0.68136831299E+03  0.41800000000E+01 0.  1.
        -11    1    1    2    0    0  0.42309057820E+02 -0.23335714408E+02  0.61646202470E+02  0.78325386814E+02  0.00000000000E+00 0.  1.
         11    1    1    2    0    0  0.40591077885E+02  0.41468127824E+02  0.27062888508E+03  0.27678011971E+03  0.00000000000E+00 0. -1.
</event>
<event>
 7    1  0.2899775E-009  0.1410145E+03  0.7561462E-02  0.1211970E+00
          3   -1    0    0  501    0  0.00000000000E+00  0.00000000000E+00  0.14508800067E+03  0.14508800067E+03  0.00000000000E+00 0. -1.
         -3   -1    0    0    0  501 -0.00000000000E+00 -0.00000000000E+00 -0.16771963533E+03  0.16771963533E+03  0.00000000000E+00 0.  1.
         25    2    1    2    0    0  0.25268908242E+01  0.11186101261E+03  0.28110212382E+01  0.16785300554E+03  0.12508980099E+03 0.  0.
          5    1    3    3  502    0 -0.19711673144E+02  0.12827332876E+03  0.24916489103E+02  0.13221535750E+03  0.41800000000E+01 0.  1.
         -5    1    3    3    0  502  0.22238563968E+02 -0.16412316150E+02 -0.22105467864E+02  0.35637648046E+02  0.41800000000E+01 0.  1.
        -11    1    1    2    0    0 -0.19699534871E+02 -0.12357236629E+02 -0.36602637949E+02  0.43365032873E+02  0.00000000000E+00 0.  1.
         11    1    1    2    0    0  0.17172644047E+02 -0.99503775980E+02  0.11159982044E+02  0.10158959758E+03  0.00000000000E+00 0. -1.
</event>
<event>
 7    1  0.2899775E-009  0.1094780E+03  0.7561462E-02  0.1261540E+00
          1   -1    0    0  501    0  0.00000000000E+00  0.00000000000E+00  0.41605365648E+02  0.41605365648E+02  0.00000000000E+00 0. -1.
         -1   -1    0    0    0  501 -0.00000000000E+00 -0.00000000000E+00 -0.29730040543E+03  0.29730040543E+03  0.00000000000E+00 0.  1.
         25    2    1    2    0    0  0.80982627787E+01 -0.25847619047E+02 -0.14267845648E+03  0.19167342583E+03  0.12509148235E+03 0.  0.
          5    1    3    3  502    0  0.57513687532E+02 -0.43725415864E+02 -0.61979345956E+02  0.95281939375E+02  0.41800000000E+01 0.  1.
         -5    1    3    3    0  502 -0.49415424754E+02  0.17877796817E+02 -0.80699110522E+02  0.96391486458E+02  0.41800000000E+01 0.  1.
        -11    1    1    2    0    0  0.27996522852E+02 -0.20808794235E+02 -0.34883629562E+02  0.49332330380E+02  0.00000000000E+00 0.  1.
         11    1    1    2    0    0 -0.36094785630E+02  0.46656413282E+02 -0.78132953742E+02  0.97900014864E+02  0.00000000000E+00 0. -1.
</event>
<event>
 7    1  0.2899775E-009  0.1273268E+03  0.7561462E-02  0.1231477E+00
         -1   -1    0    0    0  501 -0.00000000000E+00  0.00000000000E+00  0.16708412415E+02  0.16708412415E+02  0.00000000000E+00 0.  1.
          1   -1    0    0  501    0  0.00000000000E+00 -0.00000000000E+00 -0.12088092903E+04  0.12088092903E+04  0.00000000000E+00 0. -1.
         25    2    1    2    0    0 -0.84306840588E+02 -0.13773315852E+02 -0.79252683352E+03  0.80687342157E+03  0.12509432039E+03 0.  0.
          5    1    3    3  502    0 -0.90978267674E+02  0.25849180838E+02 -0.35235274148E+03  0.36484949249E+03  0.41800000000E+01 0.  1.
         -5    1    3    3    0  502  0.66714270856E+01 -0.39622496690E+02 -0.44017409204E+03  0.44202392909E+03  0.41800000000E+01 0.  1.
        -11    1    1    2    0    0 -0.38317591154E+01 -0.23557224320E+02 -0.40290487907E+02  0.46828929215E+02  0.00000000000E+00 0.  1.
         11    1    1    2    0    0  0.88138599703E+02  0.37330540172E+02 -0.35928355647E+03  0.37181535193E+03  0.00000000000E+00 0. -1.
</event>
<event>
 7    1  0.2899775E-009  0.1133338E+03  0.7561462E-02  0.1254518E+00
          2   -1    0    0  501    0  0.00000000000E+00  0.00000000000E+00  0.54298599815E+03  0.54298599815E+03  0.00000000000E+00 0.  1.
         -2   -1    0    0    0  501 -0.00000000000E+00 -0.00000000000E+00 -0.35074983145E+02  0.35074983145E+02  0.00000000000E+00 0. -1.
         25    2    1    2    0    0 -0.68026341246E+02  0.29014105510E+02  0.19911710628E+03  0.24650664907E+03  0.12509398307E+03 0.  0.
          5    1    3    3  502    0  0.35467657226E+02  0.10935332929E+02  0.32620869537E+02  0.49589613274E+02  0.41800000000E+01 0.  1.
         -5    1    3    3    0  502 -0.10349399847E+03  0.18078772581E+02  0.16649623674E+03  0.19691703579E+03  0.41800000000E+01 0.  1.
        -11    1    1    2    0    0  0.67748852158E+02 -0.14029430210E+02  0.30891371940E+03  0.31656660897E+03  0.00000000000E+00 0.  1.
         11    1    1    2    0    0  0.27748908836E+00 -0.14984675300E+02 -0.11981066351E+00  0.14987723264E+02  0.00000000000E+00 0. -1.
</event>
<event>
 7    1  0.2899775E-009  0.1299247E+03  0.7561462E-02  0.1227567E+00
          1   -1    0    0  501    0  0.00000000000E+00  0.00000000000E+00  0.49292813138E+03  0.49292813138E+03  0.00000000000E+00 0. -1.
         -1   -1    0    0    0  501 -0.00000000000E+00 -0.00000000000E+00 -0.42098017077E+02  0.42098017077E+02  0.00000000000E+00 0.  1.
         25    2    1    2    0    0 -0.78802197327E+02 -0.26576925322E+02  0.16078157018E+03  0.22003066556E+03  0.12508661485E+03 0.  0.
          5    1    3    3  502    0 -0.39988084162E+02  0.49856770114E+02  0.76021824629E+02  0.99405908381E+02  0.41800000000E+01 0. -1.
         -5    1    3    3    0  502 -0.38814113165E+02 -0.76433695436E+02  0.84759745550E+02  0.12062475718E+03  0.41800000000E+01 0. -1.
        -11    1    1    2    0    0  0.92508059273E+02  0.26644723460E+02  0.28425677599E+03  0.30011597261E+03  0.00000000000E+00 0. -1.
         11    1    1    2    0    0 -0.13705861946E+02 -0.67798137428E-01  0.57917681335E+01  0.14879510287E+02  0.00000000000E+00 0.  1.
</event>
<event>
 7    1  0.2899775E-009  0.1154780E+03  0.7561462E-02  0.1250749E+00
          2   -1    0    0  501    0  0.00000000000E+00  0.00000000000E+00  0.95764344490E+02  0.95764344490E+02  0.00000000000E+00 0. -1.
         -2   -1    0    0    0  501 -0.00000000000E+00 -0.00000000000E+00 -0.21673109576E+03  0.21673109576E+03  0.00000000000E+00 0.  1.
         25    2    1    2    0    0  0.64666237000E+02  0.60916939981E+02 -0.98964670027E+02  0.18257851380E+03  0.12509321327E+03 0.  0.
          5    1    3    3  502    0  0.10351744064E+02  0.61145752414E+02 -0.11060463264E+03  0.12687323912E+03  0.41800000000E+01 0.  1.
         -5    1    3    3    0  502  0.54314492936E+02 -0.22881243273E+00  0.11639962613E+02  0.55705274684E+02  0.41800000000E+01 0.  1.
        -11    1    1    2    0    0 -0.33062481446E+02  0.11744941622E+02  0.19843128789E+02  0.40309069615E+02  0.00000000000E+00 0. -1.
         11    1    1    2    0    0 -0.31603755554E+02 -0.72661881604E+02 -0.41845210036E+02  0.89607856833E+02  0.00000000000E+00 0.  1.
</event>
<event>
 7    1  0.2899775E-009  0.7137825E+02  0.7561462E-02  0.1355468E+00
         -1   -1    0    0    0  501 -0.00000000000E+00  0.00000000000E+00  0.13722571121E+03  0.13722571121E+03  0.00000000000E+00 0.  1.
          1   -1    0    0  501    0  0.00000000000E+00 -0.00000000000E+00 -0.99619428626E+02  0.99619428626E+02  0.00000000000E+00 0. -1.
         25    2    1    2    0    0  0.84348364502E+01 -0.40727529206E+02  0.34178964602E+02  0.13618167338E+03  0.12508944177E+03 0.  0.
          5    1    3    3  502    0  0.24487191095E+02  0.31882711559E+01  0.71787286746E+02  0.76030747327E+02  0.41800000000E+01 0. -1.
         -5    1    3    3    0  502 -0.16052354644E+02 -0.43915800362E+02 -0.37608322144E+02  0.60150926057E+02  0.41800000000E+01 0. -1.
        -11    1    1    2    0    0 -0.14175619690E+02 -0.11482406262E+02  0.34936537196E+02  0.39412630950E+02  0.00000000000E+00 0.  1.
         11    1    1    2    0    0  0.57407832396E+01  0.52209935468E+02 -0.31509219216E+02  0.61250835500E+02  0.00000000000E+00 0. -1.
</event>
<event>
 7    1  0.2899775E-009  0.9052877E+02  0.7561462E-02  0.1301576E+00
         -1   -1    0    0    0  501 -0.00000000000E+00  0.00000000000E+00  0.32139404471E+03  0.32139404471E+03  0.00000000000E+00 0.  1.
          1   -1    0    0  501    0  0.00000000000E+00 -0.00000000000E+00 -0.41152240457E+02  0.41152240457E+02  0.00000000000E+00 0. -1.
         25    2    1    2    0    0  0.34951471304E+02 -0.14258802425E+02  0.17816871619E+03  0.22094523637E+03  0.12509111582E+03 0.  0.
          5    1    3    3  502    0  0.44184932405E+02 -0.37453521558E+02  0.21004149829E+02  0.61755333687E+02  0.41800000000E+01 0.  1.
         -5    1    3    3    0  502 -0.92334611010E+01  0.23194719132E+02  0.15716456636E+03  0.15918990269E+03  0.41800000000E+01 0.  1.
        -11    1    1    2    0    0 -0.65713359098E+02  0.71706631086E+01  0.75395107715E+02  0.10027006652E+03  0.00000000000E+00 0.  1.
         11    1    1    2    0    0  0.30761887794E+02  0.70881393167E+01  0.26677980351E+02  0.41330982268E+02  0.00000000000E+00 0. -1.
</event>
<event>
 7    1  0.2899775E-009  0.1150133E+03  0.7561462E-02  0.1251558E+00
         -2   -1    0    0    0  501 -0.00000000000E+00  0.00000000000E+00  0.16424044924E+03  0.16424044924E+03  0.00000000000E+00 0.  1.
          2   -1    0    0  501    0  0.00000000000E+00 -0.00000000000E+00 -0.99595959799E+02  0.99595959799E+02  0.00000000000E+00 0. -1.
         25    2    1    2    0    0 -0.20250471868E+02  0.63801554809E+02  0.28994067174E+02  0.14480657826E+03  0.12509024410E+03 0.  0.
          5    1    3    3  502    0  0.48773708150E+02  0.21590768976E+02  0.34405720541E+02  0.63610234378E+02  0.41800000000E+01 0. -1.
         -5    1    3    3    0  502 -0.69024180018E+02  0.42210785833E+02 -0.54116533667E+01  0.81196343883E+02  0.41800000000E+01 0. -1.
        -11    1    1    2    0    0  0.40638827593E+02 -0.63166696722E+02  0.53264064491E+02  0.92079348657E+02  0.00000000000E+00 0.  1.
         11    1    1    2    0    0 -0.20388355725E+02 -0.63485808639E+00 -0.17613642227E+02  0.26950482119E+02  0.00000000000E+00 0. -1.
</event>
<event>
 7    1  0.2899775E-009  0.6273165E+03  0.7561462E-02  0.9850299E-01
         -2   -1    0    0    0  501 -0.00000000000E+00  0.00000000000E+00  0.55360171161E+03  0.55360171161E+03  0.00000000000E+00 0.  1.
          2   -1    0    0  501    0  0.00000000000E+00 -0.00000000000E+00 -0.94228224461E+03  0.94228224461E+03  0.00000000000E+00 0. -1.
         25    2    1    2    0    0 -0.36126426835E+03  0.50913339567E+03 -0.55345189670E+03  0.84361439164E+03  0.12509018205E+03 0.  0.
          5    1    3    3  502    0 -0.23270312509E+03  0.33406189261E+03 -0.27890114599E+03  0.49350928477E+03  0.41800000000E+01 0.  1.
         -5    1    3    3    0  502 -0.12856114327E+03  0.17507150306E+03 -0.27455075071E+03  0.35010510687E+03  0.41800000000E+01 0.  1.
        -11    1    1    2    0    0  0.45789192696E+02 -0.24378025988E+02  0.43109576920E+01  0.52053075558E+02  0.00000000000E+00 0. -1.
         11    1    1    2    0    0  0.31547507566E+03 -0.48475536968E+03  0.16046040601E+03  0.60021648902E+03  0.00000000000E+00 0.  1.
</event>
<event>
 7    1  0.2899775E-009  0.7926755E+02  0.7561462E-02  0.1331143E+00
         -1   -1    0    0    0  501 -0.00000000000E+00  0.00000000000E+00  0.83817356415E+02  0.83817356415E+02  0.00000000000E+00 0.  1.
          1   -1    0    0  501    0  0.00000000000E+00 -0.00000000000E+00 -0.14620963045E+03  0.14620963045E+03  0.00000000000E+00 0. -1.
         25    2    1    2    0    0  0.75063375522E+01 -0.22225141421E+02 -0.28550498155E+02  0.13043389555E+03  0.12509024002E+03 0.  0.
          5    1    3    3  502    0  0.45875783840E+02  0.60592687636E+01 -0.57947567223E+02  0.74274458786E+02  0.41800000000E+01 0.  1.
         -5    1    3    3    0  502 -0.38369446288E+02 -0.28284410184E+02  0.29397069067E+02  0.56159436764E+02  0.41800000000E+01 0.  1.
        -11    1    1    2    0    0 -0.33865034186E+02  0.13496127710E+02  0.18095636398E+02  0.40699361915E+02  0.00000000000E+00 0.  1.
         11    1    1    2    0    0  0.26358696634E+02  0.87290137105E+01 -0.51937412280E+02  0.58893729403E+02  0.00000000000E+00 0. -1.
</event>
<event>
 7    1  0.2899775E-009  0.9552760E+02  0.7561462E-02  0.1289992E+00
         -4   -1    0    0    0  501 -0.00000000000E+00  0.00000000000E+00  0.21397937798E+03  0.21397937798E+03  0.00000000000E+00 0.  1.
          4   -1    0    0  501    0  0.00000000000E+00 -0.00000000000E+00 -0.63228709764E+02  0.63228709764E+02  0.00000000000E+00 0. -1.
         25    2    1    2    0    0  0.34986644772E+02 -0.25087060786E+02  0.89093408876E+02  0.15949409436E+03  0.12508918698E+03 0.  0.
          5    1    3    3  502    0 -0.10714816577E+02  0.33198175438E+02  0.76589666336E+02  0.84263726099E+02  0.41800000000E+01 0.  1.
         -5    1    3    3    0  502  0.45701461349E+02 -0.58285236224E+02  0.12503742540E+02  0.75230368260E+02  0.41800000000E+01 0.  1.
        -11    1    1    2    0    0  0.14697814483E+02  0.28362802916E+02  0.59905722332E+02  0.67890867633E+02  0.00000000000E+00 0.  1.
         11    1    1    2    0    0 -0.49684459255E+02 -0.32757421300E+01  0.17515370096E+01  0.49823125753E+02  0.00000000000E+00 0. -1.
</event>
<event>
 7    1  0.2899775E-009  0.2092485E+03  0.7561462E-02  0.1142163E+00
         -2   -1    0    0    0  501 -0.00000000000E+00  0.00000000000E+00  0.40989557052E+03  0.40989557052E+03  0.00000000000E+00 0.  1.
          2   -1    0    0  501    0  0.00000000000E+00 -0.00000000000E+00 -0.12653295857E+03  0.12653295857E+03  0.00000000000E+00 0. -1.
         25    2    1    2    0    0  0.19249618260E+03  0.44595276167E+02  0.11667613811E+03  0.26135066277E+03  0.12508928313E+03 0.  0.
          5    1    3    3  502    0  0.22619915238E+02  0.42622250308E+02 -0.99221913325E+01  0.49439246227E+02  0.41800000000E+01 0. -1.
         -5    1    3    3    0  502  0.16987626736E+03  0.19730258590E+01  0.12659832944E+03  0.21191141654E+03  0.41800000000E+01 0. -1.
        -11    1    1    2    0    0 -0.71972035253E+02 -0.10642980064E+01  0.10012490400E+02  0.72672942371E+02  0.00000000000E+00 0. -1.
         11    1    1    2    0    0 -0.12052414735E+03 -0.43530978160E+02  0.15667398344E+03  0.20240492395E+03  0.00000000000E+00 0.  1.
</event>
<event>
 7    1  0.2899775E-009  0.6973696E+02  0.7561462E-02  0.1360990E+00
          1   -1    0    0  501    0  0.00000000000E+00  0.00000000000E+00  0.11801356224E+02  0.11801356224E+02  0.00000000000E+00 0. -1.
         -1   -1    0    0    0  501 -0.00000000000E+00 -0.00000000000E+00 -0.10245381138E+04  0.10245381138E+04  0.00000000000E+00 0.  1.
         25    2    1    2    0    0  0.74920027990E+01 -0.17351186675E+02 -0.59684864281E+03  0.61011039387E+03  0.12509674857E+03 0.  0.
          5    1    3    3  502    0  0.81295122853E+01 -0.30781799892E+02 -0.32853272722E+02  0.45939287142E+02  0.41800000000E+01 0.  1.
         -5    1    3    3    0  502 -0.63750948636E+00  0.13430613218E+02 -0.56399537009E+03  0.56417110673E+03  0.41800000000E+01 0.  1.
        -11    1    1    2    0    0 -0.44408311485E+02  0.30744453460E+02 -0.24656750019E+03  0.25241404814E+03  0.00000000000E+00 0.  1.
         11    1    1    2    0    0  0.36916308686E+02 -0.13393266785E+02 -0.16932061458E+03  0.17381502801E+03  0.00000000000E+00 0. -1.
</event>
<event>
 7    1  0.2899775E-009  0.1455859E+03  0.7561462E-02  0.1206004E+00
          2   -1    0    0  501    0  0.00000000000E+00  0.00000000000E+00  0.10727705256E+04  0.10727705256E+04  0.00000000000E+00 0. -1.
         -2   -1    0    0    0  501 -0.00000000000E+00 -0.00000000000E+00 -0.25173218319E+02  0.25173218319E+02  0.00000000000E+00 0.  1.
         25    2    1    2    0    0  0.58872123914E+02  0.94948877374E+02  0.38031769135E+03  0.41565634980E+03  0.12508972174E+03 0.  0.
          5    1    3    3  502    0 -0.19181229849E+02  0.85326717484E+02  0.17324735295E+03  0.19411513594E+03  0.41800000000E+01 0.  1.
         -5    1    3    3    0  502  0.78053353763E+02  0.96221598897E+01  0.20707033840E+03  0.22154121386E+03  0.41800000000E+01 0.  1.
        -11    1    1    2    0    0 -0.69212457628E+02 -0.89599871481E+02  0.65722177653E+03  0.66690251522E+03  0.00000000000E+00 0. -1.
         11    1    1    2    0    0  0.10340333714E+02 -0.53490058932E+01  0.10057839397E+02  0.15384878898E+02  0.00000000000E+00 0.  1.
</event>
<event>
 7    1  0.2899775E-009  0.1105931E+03  0.7561462E-02  0.1259476E+00
         -2   -1    0    0    0  501 -0.00000000000E+00  0.00000000000E+00  0.37636002368E+02  0.37636002368E+02  0.00000000000E+00 0.  1.
          2   -1    0    0  501    0  0.00000000000E+00 -0.00000000000E+00 -0.34830198303E+03  0.34830198303E+03  0.00000000000E+00 0. -1.
         25    2    1    2    0    0  0.14925303802E+02 -0.19518681991E+02 -0.14091568980E+03  0.19002173530E+03  0.12508910669E+03 0.  0.
          5    1    3    3  502    0  0.64764049405E+02 -0.36600400569E+02 -0.78335266809E+02  0.10811039655E+03  0.41800000000E+01 0. -1.
         -5    1    3    3    0  502 -0.49838745603E+02  0.17081718577E+02 -0.62580422991E+02  0.81911338742E+02  0.41800000000E+01 0. -1.
        -11    1    1    2    0    0 -0.53251715380E+02  0.83114862228E+01 -0.69095060692E+02  0.87629637716E+02  0.00000000000E+00 0.  1.
         11    1    1    2    0    0  0.38326411578E+02  0.11207195769E+02 -0.10065523017E+03  0.10828661238E+03  0.00000000000E+00 0. -1.
</event>
<event>
 7    1  0.2899775E-009  0.1336930E+03  0.7561462E-02  0.1222077E+00
          1   -1    0    0  501    0  0.00000000000E+00  0.00000000000E+00  0.72651979609E+03  0.72651979609E+03  0.00000000000E+00 0. -1.
         -1   -1    0    0    0  501 -0.00000000000E+00 -0.00000000000E+00 -0.27417730314E+02  0.27417730314E+02  0.00000000000E+00 0.  1.
         25    2    1    2    0    0 -0.70983102620E+02 -0.24183540707E+02  0.27423989843E+03  0.31061150314E+03  0.12509412253E+03 0.  0.
          5    1    3    3  502    0 -0.22499755425E+02 -0.71130318671E+02  0.10980727665E+03  0.13281894305E+03  0.41800000000E+01 0. -1.
         -5    1    3    3    0  502 -0.48483347195E+02  0.46946777965E+02  0.16443262178E+03  0.17779256009E+03  0.41800000000E+01 0. -1.
        -11    1    1    2    0    0  0.96199665070E+02  0.26335384985E+02  0.36385760226E+03  0.37728011184E+03  0.00000000000E+00 0. -1.
         11    1    1    2    0    0 -0.25216562450E+02 -0.21518442785E+01  0.61004565078E+02  0.66045911425E+02  0.00000000000E+00 0.  1.
</event>
<event>
 7    1  0.2899775E-009  0.1721090E+03  0.7561462E-02  0.1175666E+00
          2   -1    0    0  501    0  0.00000000000E+00  0.00000000000E+00  0.47761849794E+03  0.47761849794E+03  0.00000000000E+00 0. -1.
         -2   -1    0    0    0  501 -0.00000000000E+00 -0.00000000000E+00 -0.80757891165E+02  0.80757891165E+02  0.00000000000E+00 0.  1.
         25    2    1    2    0    0 -0.11089314872E+03  0.11961156050E+03  0.20791712560E+03  0.29237365218E+03  0.12509438651E+03 0.  0.
          5    1    3    3  502    0 -0.24211820095E+02  0.83592971749E+02  0.31783378602E+02  0.92745095361E+02  0.41800000000E+01 0.  1.
         -5    1    3    3    0  502 -0.86681328626E+02  0.36018588753E+02  0.17613374700E+03  0.19962855682E+03  0.41800000000E+01 0.  1.
        -11    1    1    2    0    0  0.60931166458E+02 -0.67634531419E+02  0.16774586814E+03  0.19085521518E+03  0.00000000000E+00 0. -1.
         11    1    1    2    0    0  0.49961982263E+02 -0.51977029083E+02  0.21197613036E+02  0.75147521731E+02  0.00000000000E+00 0.  1.
</event>
<event>
 7    1  0.2899775E-009  0.8603539E+02  0.7561462E-02  0.1312747E+00
         -2   -1    0    0    0  501 -0.00000000000E+00  0.00000000000E+00  0.46863936182E+02  0.46863936182E+02  0.00000000000E+00 0.  1.
          2   -1    0    0  501    0  0.00000000000E+00 -0.00000000000E+00 -0.37204544471E+03  0.37204544471E+03  0.00000000000E+00 0. -1.
         25    2    1    2    0    0 -0.35843343303E+02 -0.48369998900E+02 -0.10480314030E+03  0.17393713672E+03  0.12508408076E+03 0.  0.
          5    1    3    3  502    0  0.22501802733E+02 -0.14884045705E+02  0.18802350137E+02  0.33149158563E+02  0.41800000000E+01 0.  1.
         -5    1    3    3    0  502 -0.58345146036E+02 -0.33485953195E+02 -0.12360549043E+03  0.14078797815E+03  0.41800000000E+01 0.  1.
        -11    1    1    2    0    0  0.17095570471E+02  0.54912434420E+02 -0.21741825742E+03  0.22489627086E+03  0.00000000000E+00 0. -1.
         11    1    1    2    0    0  0.18747772833E+02 -0.65424355195E+01 -0.29601108065E+01  0.20075973319E+02  0.00000000000E+00 0.  1.
</event>
<event>
 7    1  0.2899775E-009  0.8622686E+02  0.7561462E-02  0.1312255E+00
          2   -1    0    0  501    0  0.00000000000E+00  0.00000000000E+00  0.17281405670E+03  0.17281405670E+03  0.00000000000E+00 0. -1.
         -2   -1    0    0    0  501 -0.00000000000E+00 -0.00000000000E+00 -0.97317015955E+02  0.97317015955E+02  0.00000000000E+00 0.  1.
         25    2    1    2    0    0 -0.62380036236E+02 -0.22554599777E+02  0.11679249530E+02  0.14207023851E+03  0.12509024306E+03 0.  0.
          5    1    3    3  502    0 -0.74492241885E+02 -0.28673564730E+02 -0.39358207815E+02  0.89094378822E+02  0.41800000000E+01 0. -1.
         -5    1    3    3    0  502  0.12112205649E+02  0.61189649526E+01  0.51037457345E+02  0.52975859691E+02  0.41800000000E+01 0. -1.
        -11    1    1    2    0    0  0.42033366143E+02  0.34806817105E+02 -0.54393186790E+01  0.54844366839E+02  0.00000000000E+00 0. -1.
         11    1    1    2    0    0  0.20346670092E+02 -0.12252217328E+02  0.69257109892E+02  0.73216467300E+02  0.00000000000E+00 0.  1.
</event>
<event>
 7    1  0.2899775E-009  0.2032024E+03  0.7561462E-02  0.1147065E+00
         -3   -1    0    0    0  501 -0.00000000000E+00  0.00000000000E+00  0.13205221121E+03  0.13205221121E+03  0.00000000000E+00 0.  1.
          3   -1    0    0  501    0  0.00000000000E+00 -0.00000000000E+00 -0.34231957927E+03  0.34231957927E+03  0.00000000000E+00 0. -1.
         25    2    1    2    0    0 -0.13308799069E+03 -0.12222026231E+03 -0.14165412245E+03  0.26146543212E+03  0.12509226996E+03 0.  0.
          5    1    3    3  502    0 -0.14178406188E+03 -0.55449393578E+02 -0.99045481101E+02  0.18167232914E+03  0.41800000000E+01 0. -1.
         -5    1    3    3    0  502  0.86960711894E+01 -0.66770868731E+02 -0.42608641347E+02  0.79793102976E+02  0.41800000000E+01 0. -1.
        -11    1    1    2    0    0  0.11533366872E+03  0.78663800662E+02 -0.84586546803E+02  0.16323214320E+03  0.00000000000E+00 0.  1.
         11    1    1    2    0    0  0.17754321967E+02  0.43556461647E+02  0.15973301189E+02  0.49674215148E+02  0.00000000000E+00 0. -1.
</event>
<event>
 7    1  0.2899775E-009  0.2005402E+03  0.7561462E-02  0.1149284E+00
         -1   -1    0    0    0  501 -0.00000000000E+00  0.00000000000E+00  0.11741496913E+03  0.11741496913E+03  0.00000000000E+00 0.  1.
          1   -1    0    0  501    0  0.00000000000E+00 -0.00000000000E+00 -0.50019821382E+03  0.50019821382E+03  0.00000000000E+00 0. -1.
         25    2    1    2    0    0 -0.17734001973E+03 -0.60888261510E+02 -0.33801746248E+03  0.40627654719E+03  0.12509182576E+03 0.  0.
          5    1    3    3  502    0 -0.82894576307E+02 -0.61399738943E+02 -0.27209319156E+03  0.29102167620E+03  0.41800000000E+01 0.  1.
         -5    1    3    3    0  502 -0.94445443420E+02  0.51147743371E+00 -0.65924270917E+02  0.11525487099E+03  0.41800000000E+01 0.  1.
        -11    1    1    2    0    0  0.16712172095E+03  0.77168432361E+02 -0.28733606656E+02  0.18630688854E+03  0.00000000000E+00 0.  1.
         11    1    1    2    0    0  0.10218298777E+02 -0.16280170851E+02 -0.16032175552E+02  0.25029747218E+02  0.00000000000E+00 0. -1.
</event>
<event>
 7    1  0.2899775E-009  0.3123509E+03  0.7561462E-02  0.1079224E+00
         -1   -1    0    0    0  501 -0.00000000000E+00  0.00000000000E+00  0.49151690211E+03  0.49151690211E+03  0.00000000000E+00 0.  1.
          1   -1    0    0  501    0  0.00000000000E+00 -0.00000000000E+00 -0.21064175735E+03  0.21064175735E+03  0.00000000000E+00 0. -1.
         25    2    1    2    0    0 -0.30110898736E+03 -0.17788212761E+02  0.16676092441E+03  0.36666046262E+03  0.12509055184E+03 0.  0.
          5    1    3    3  502    0 -0.27330122554E+03 -0.36016662582E+02  0.10240161785E+03  0.29409917308E+03  0.41800000000E+01 0.  1.
         -5    1    3    3    0  502 -0.27807761817E+02  0.18228449821E+02  0.64359306552E+02  0.72561289542E+02  0.41800000000E+01 0.  1.
        -11    1    1    2    0    0  0.18116306770E+03 -0.34887141353E+02  0.66455032273E+02  0.19609548961E+03  0.00000000000E+00 0. -1.
         11    1    1    2    0    0  0.11994591966E+03  0.52675354114E+02  0.47659188089E+02  0.13940270723E+03  0.00000000000E+00 0.  1.
</event>
<event>
 7    1  0.2899775E-009  0.3869776E+03  0.7561462E-02  0.1048385E+00
          1   -1    0    0  501    0  0.00000000000E+00  0.00000000000E+00  0.64255661877E+03  0.64255661877E+03  0.00000000000E+00 0. -1.
         -1   -1    0    0    0  501 -0.00000000000E+00 -0.00000000000E+00 -0.23489601861E+03  0.23489601861E+03  0.00000000000E+00 0.  1.
         25    2    1    2    0    0 -0.12690128721E+03  0.35054554492E+03  0.20226890161E+03  0.44220811028E+03  0.12509671648E+03 0.  0.
          5    1    3    3  502    0 -0.91398655546E+02  0.92518180155E+02  0.43758493589E+02  0.13727929944E+03  0.41800000000E+01 0.  1.
         -5    1    3    3    0  502 -0.35502631666E+02  0.25802736477E+03  0.15851040802E+03  0.30492881083E+03  0.41800000000E+01 0.  1.
        -11    1    1    2    0    0  0.83300614595E+02 -0.10535629196E+03  0.81378046851E+02  0.15703925355E+03  0.00000000000E+00 0.  1.
         11    1    1    2    0    0  0.43600672617E+02 -0.24518925296E+03  0.12401365170E+03  0.27820527355E+03  0.00000000000E+00 0. -1.
</event>
<event>
 7    1  0.2899775E-009  0.6850236E+02  0.7561462E-02  0.1365261E+00
          1   -1    0    0  501    0  0.00000000000E+00  0.00000000000E+00  0.26966499566E+03  0.26966499566E+03  0.00000000000E+00 0. -1.
         -1   -1    0    0    0  501 -0.00000000000E+00 -0.00000000000E+00 -0.50827525002E+02  0.50827525002E+02  0.00000000000E+00 0.  1.
         25    2    1    2    0    0 -0.16095884763E+02  0.39866679982E+02  0.12173198173E+03  0.17976309438E+03  0.12509062734E+03 0.  0.
          5    1    3    3  502    0 -0.27167840770E+02  0.17256116369E+02  0.14294145765E+03  0.14657966380E+03  0.41800000000E+01 0.  1.
         -5    1    3    3    0  502  0.11071956007E+02  0.22610563614E+02 -0.21209475921E+02  0.33183430588E+02  0.41800000000E+01 0.  1.
        -11    1    1    2    0    0  0.37943443856E+02 -0.55489426323E+01  0.33078896430E+01  0.38489450891E+02  0.00000000000E+00 0.  1.
         11    1    1    2    0    0 -0.21847559093E+02 -0.34317737350E+02  0.93797599291E+02  0.10223997539E+03  0.00000000000E+00 0. -1.
</event>
<event>
 7    1  0.2899775E-009  0.1110060E+03  0.7561462E-02  0.1258718E+00
         -1   -1    0    0    0  501 -0.00000000000E+00  0.00000000000E+00  0.21618008183E+02  0.21618008183E+02  0.00000000000E+00 0.  1.
          1   -1    0    0  501    0  0.00000000000E+00 -0.00000000000E+00 -0.71048755367E+03  0.71048755367E+03  0.00000000000E+00 0. -1.
         25    2    1    2    0    0 -0.27128387981E+02  0.10153439071E+02 -0.23297981470E+03  0.26601972783E+03  0.12509140568E+03 0.  0.
          5    1    3    3  502    0  0.45190662144E+02  0.27697068569E+02 -0.83536450674E+02  0.99020879331E+02  0.41800000000E+01 0.  1.
         -5    1    3    3    0  502 -0.72319050126E+02 -0.17543629498E+02 -0.14944336403E+03  0.16699884850E+03  0.41800000000E+01 0.  1.
        -11    1    1    2    0    0  0.51803066053E+02 -0.32389027392E+02 -0.34349014354E+03  0.34888119103E+03  0.00000000000E+00 0. -1.
         11    1    1    2    0    0 -0.24674678071E+02  0.22235588321E+02 -0.11239958724E+03  0.11720464299E+03  0.00000000000E+00 0.  1.
</event>
<event>
 7    1  0.2899775E-009  0.1344076E+03  0.7561462E-02  0.1221058E+00
         -1   -1    0    0    0  501 -0.00000000000E+00  0.00000000000E+00  0.73303424006E+02  0.73303424006E+02  0.00000000000E+00 0.  1.
          1   -1    0    0  501    0  0.00000000000E+00 -0.00000000000E+00 -0.28306702702E+03  0.28306702702E+03  0.00000000000E+00 0. -1.
         25    2    1    2    0    0 -0.77330913262E+02  0.23781244866E+02 -0.17624830861E+03  0.23076942049E+03  0.12508173886E+03 0.  0.
          5    1    3    3  502    0 -0.10403266501E+03  0.45916184950E+02 -0.12913824649E+03  0.17211987258E+03  0.41800000000E+01 0. -1.
         -5    1    3    3    0  502  0.26701751744E+02 -0.22134940083E+02 -0.47110062112E+02  0.58649547917E+02  0.41800000000E+01 0. -1.
        -11    1    1    2    0    0  0.96189949333E+02 -0.29098275853E+02 -0.33733757778E+02  0.10600557733E+03  0.00000000000E+00 0. -1.
         11    1    1    2    0    0 -0.18859036071E+02  0.53170309865E+01  0.21846337185E+00  0.19595453204E+02  0.00000000000E+00 0.  1.
</event>
<event>
 7    1  0.2899775E-009  0.2734580E+03  0.7561462E-02  0.1099317E+00
         -2   -1    0    0    0  501 -0.00000000000E+00  0.00000000000E+00  0.98537807920E+02  0.98537807920E+02  0.00000000000E+00 0.  1.
          2   -1    0    0  501    0  0.00000000000E+00 -0.00000000000E+00 -0.82736960835E+03  0.82736960835E+03  0.00000000000E+00 0. -1.
         25    2    1    2    0    0  0.26102213876E+03 -0.28899450516E+02 -0.40349208885E+03  0.49741351408E+03  0.12508638243E+03 0.  0.
          5    1    3    3  502    0  0.26464673559E+03 -0.26903921456E+02 -0.40992969352E+03  0.48869370947E+03  0.41800000000E+01 0.  1.
         -5    1    3    3    0  502 -0.36245968324E+01 -0.19955290603E+01  0.64376046766E+01  0.87198046079E+01  0.41800000000E+01 0.  1.
        -11    1    1    2    0    0 -0.18608397348E+03 -0.17412895053E+02 -0.18626260198E+03  0.26386400095E+03  0.00000000000E+00 0.  1.
         11    1    1    2    0    0 -0.74938165280E+02  0.46312345569E+02 -0.13907710960E+03  0.16462990124E+03  0.00000000000E+00 0. -1.
</event>
<event>
 7    1  0.2899775E-009  0.1454274E+03  0.7561462E-02  0.1206207E+00
          2   -1    0    0  501    0  0.00000000000E+00  0.00000000000E+00  0.42515160350E+03  0.42515160350E+03  0.00000000000E+00 0. -1.
         -2   -1    0    0    0  501 -0.00000000000E+00 -0.00000000000E+00 -0.67205252259E+02  0.67205252259E+02  0.00000000000E+00 0.  1.
         25    2    1    2    0    0  0.10386140470E+03  0.50348978691E+02  0.27024821129E+03  0.31938018203E+03  0.12508954363E+03 0.  0.
          5    1    3    3  502    0  0.55667719494E+02  0.83908274446E+02  0.11269461391E+03  0.15118545538E+03  0.41800000000E+01 0.  1.
         -5    1    3    3    0  502  0.48193685203E+02 -0.33559295755E+02  0.15755359738E+03  0.16819472665E+03  0.41800000000E+01 0.  1.
        -11    1    1    2    0    0 -0.28549089568E+02 -0.48000038042E+02 -0.19328626393E+01  0.55881930221E+02  0.00000000000E+00 0.  1.
         11    1    1    2    0    0 -0.75312315129E+02 -0.23489406482E+01  0.89631002594E+02  0.11709474351E+03  0.00000000000E+00 0. -1.
</event>
<event>
 7    1  0.2899775E-009  0.1351388E+03  0.7561462E-02  0.1220024E+00
          2   -1    0    0  501    0  0.00000000000E+00  0.00000000000E+00  0.10351678807E+04  0.10351678807E+04  0.00000000000E+00 0. -1.
         -2   -1    0    0    0  501 -0.00000000000E+00 -0.00000000000E+00 -0.25146178943E+02  0.25146178943E+02  0.00000000000E+00 0.  1.
         25    2    1    2    0    0  0.10582281423E+03  0.41468634785E+02  0.64857480989E+03  0.67023467160E+03  0.12508843000E+03 0.  0.
          5    1    3    3  502    0  0.34323706642E+02  0.52195169349E+02  0.10804091590E+03  0.12487099123E+03  0.41800000000E+01 0. -1.
         -5    1    3    3    0  502  0.71499107592E+02 -0.10726534564E+02  0.54053389398E+03  0.54536368038E+03  0.41800000000E+01 0. -1.
        -11    1    1    2    0    0 -0.13659596647E+02 -0.40860417378E+02  0.53805535271E+02  0.68928904784E+02  0.00000000000E+00 0.  1.
         11    1    1    2    0    0 -0.92163217586E+02 -0.60821740658E+00  0.30764135662E+03  0.32115048327E+03  0.00000000000E+00 0. -1.
</event>
<event>
 7    1  0.2899775E-009  0.1733545E+03  0.7561462E-02  0.1174394E+00
          2   -1    0    0  501    0  0.00000000000E+00  0.00000000000E+00  0.55069899807E+03  0.55069899807E+03  0.00000000000E+00 0. -1.
         -2   -1    0    0    0  501 -0.00000000000E+00 -0.00000000000E+00 -0.60795069977E+02  0.60795069977E+02  0.00000000000E+00 0.  1.
         25    2    1    2    0    0  0.25611062364E+02 -0.14402782003E+03  0.25282830053E+03  0.31775539954E+03  0.12508559041E+03 0.  0.
          5    1    3    3  502    0  0.32787517419E+02  0.57701167975E+01  0.15445867138E+02  0.36937281410E+02  0.41800000000E+01 0.  1.
         -5    1    3    3    0  502 -0.71764550544E+01 -0.14979793683E+03  0.23738243339E+03  0.28081811813E+03  0.41800000000E+01 0.  1.
        -11    1    1    2    0    0  0.23508518494E+02  0.24763891900E+02  0.99312823045E+02  0.10501874883E+03  0.00000000000E+00 0. -1.
         11    1    1    2    0    0 -0.49119580858E+02  0.11926392813E+03  0.13776280451E+03  0.18871991968E+03  0.00000000000E+00 0.  1.
</event>
<event>
 7    1  0.2899775E-009  0.6829669E+02  0.7561462E-02  0.1365983E+00
         -1   -1    0    0    0  501 -0.00000000000E+00  0.00000000000E+00  0.41346384129E+03  0.41346384129E+03  0.00000000000E+00 0.  1.
          1   -1    0    0  501    0  0.00000000000E+00 -0.00000000000E+00 -0.32723098913E+02  0.32723098913E+02  0.00000000000E+00 0. -1.
         25    2    1    2    0    0  0.12550761126E+02 -0.36475368107E+01  0.29894352406E+03  0.32432184572E+03  0.12508638177E+03 0.  0.
          5    1    3    3  502    0 -0.20746438155E+02  0.51679171681E+00 -0.22018085208E+01  0.21283846705E+02  0.41800000000E+01 0.  1.
         -5    1    3    3    0  502  0.33297199281E+02 -0.41643285276E+01  0.30114533258E+03  0.30303799902E+03  0.41800000000E+01 0.  1.
        -11    1    1    2    0    0 -0.44111927339E+02  0.17085212355E+02  0.20360397886E+02  0.51500605985E+02  0.00000000000E+00 0. -1.
         11    1    1    2    0    0  0.31561166213E+02 -0.13437675544E+02  0.61436820428E+02  0.70364488494E+02  0.00000000000E+00 0.  1.
</event>
<event>
 7    1  0.2899775E-009  0.8927956E+02  0.7561462E-02  0.1304606E+00
         -1   -1    0    0    0  501 -0.00000000000E+00  0.00000000000E+00  0.51095756791E+02  0.51095756791E+02  0.00000000000E+00 0.  1.
          1   -1    0    0  501    0  0.00000000000E+00 -0.00000000000E+00 -0.26980099944E+03  0.26980099944E+03  0.00000000000E+00 0. -1.
         25    2    1    2    0    0  0.26093385882E+02 -0.11889196123E+01 -0.19290857944E+03  0.23139460391E+03  0.12508982524E+03 0.  0.
          5    1    3    3  502    0  0.73456531793E+02  0.78661481850E+01 -0.14753486232E+03  0.16505073871E+03  0.41800000000E+01 0.  1.
         -5    1    3    3    0  502 -0.47363145911E+02 -0.90550677974E+01 -0.45373717121E+02  0.66343865193E+02  0.41800000000E+01 0.  1.
        -11    1    1    2    0    0 -0.40718406406E+02 -0.33327888961E+01  0.16848723673E+02  0.44192483427E+02  0.00000000000E+00 0.  1.
         11    1    1    2    0    0  0.14625020524E+02  0.45217085084E+01 -0.42645386882E+02  0.45309668896E+02  0.00000000000E+00 0. -1.
</event>
<event>
 7    1  0.2899775E-009  0.1585973E+03  0.7561462E-02  0.1190290E+00
          2   -1    0    0  501    0  0.00000000000E+00  0.00000000000E+00  0.16719672343E+03  0.16719672343E+03  0.00000000000E+00 0. -1.
         -2   -1    0    0    0  501 -0.00000000000E+00 -0.00000000000E+00 -0.23315605506E+03  0.23315605506E+03  0.00000000000E+00 0.  1.
         25    2    1    2    0    0 -0.10853660913E+02 -0.11561645601E+03 -0.15206274266E+03  0.22859443807E+03  0.12508945820E+03 0.  0.
          5    1    3    3  502    0 -0.66365176323E+02 -0.55077014251E+02 -0.59990587956E+02  0.10513875199E+03  0.41800000000E+01 0. -1.
         -5    1    3    3    0  502  0.55511515409E+02 -0.60539441762E+02 -0.92072154704E+02  0.12345568607E+03  0.41800000000E+01 0. -1.
        -11    1    1    2    0    0 -0.40772299230E+02  0.61745129999E+02  0.43891357341E+02  0.86030766080E+02  0.00000000000E+00 0.  1.
         11    1    1    2    0    0  0.51625960143E+02  0.53871326014E+02  0.42212053683E+02  0.85727574347E+02  0.00000000000E+00 0. -1.
</event>
<event>
 7    1  0.2899775E-009  0.1236127E+03  0.7561462E-02  0.1237254E+00
         -1   -1    0    0    0  501 -0.00000000000E+00  0.00000000000E+00  0.10477877682E+03  0.10477877682E+03  0.00000000000E+00 0.  1.
          1   -1    0    0  501    0  0.00000000000E+00 -0.00000000000E+00 -0.19764692706E+03  0.19764692706E+03  0.00000000000E+00 0. -1.
         25    2    1    2    0    0 -0.88276893771E+02 -0.25110183344E+02 -0.28571731594E+02  0.15775693921E+03  0.12509027437E+03 0.  0.
          5    1    3    3  502    0 -0.67852029501E+02 -0.66999366902E+02 -0.48305568994E+02  0.10697529373E+03  0.41800000000E+01 0.  1.
         -5    1    3    3    0  502 -0.20424864270E+02  0.41889183558E+02  0.19733837400E+02  0.50781645485E+02  0.41800000000E+01 0.  1.
        -11    1    1    2    0    0  0.86409532378E+02  0.69035842104E+01 -0.98669686577E+01  0.87244620644E+02  0.00000000000E+00 0.  1.
         11    1    1    2    0    0  0.18673613926E+01  0.18206599134E+02 -0.54429449989E+02  0.57424144022E+02  0.00000000000E+00 0. -1.
</event>
<event>
 7    1  0.2899775E-009  0.9910058E+02  0.7561462E-02  0.1282199E+00
          1   -1    0    0  501    0  0.00000000000E+00  0.00000000000E+00  0.20328436840E+02  0.20328436840E+02  0.00000000000E+00 0. -1.
         -1   -1    0    0    0  501 -0.00000000000E+00 -0.00000000000E+00 -0.63683826781E+03  0.63683826781E+03  0.00000000000E+00 0.  1.
         25    2    1    2    0    0 -0.88253986026E+01  0.68476455509E+01 -0.27796180703E+03  0.30501748718E+03  0.12509245943E+03 0.  0.
          5    1    3    3  502    0 -0.27589170235E+02  0.49247309402E+02 -0.61406130945E+02  0.83514340776E+02  0.41800000000E+01 0. -1.
         -5    1    3    3    0  502  0.18763771633E+02 -0.42399663851E+02 -0.21655567609E+03  0.22150314640E+03  0.41800000000E+01 0. -1.
        -11    1    1    2    0    0  0.49238979467E+02  0.11649483625E+02 -0.21425667653E+03  0.22015020102E+03  0.00000000000E+00 0.  1.
         11    1    1    2    0    0 -0.40413580864E+02 -0.18497129176E+02 -0.12429134740E+03  0.13199901645E+03  0.00000000000E+00 0. -1.
</event>
<event>
 7    1  0.2899775E-009  0.9291524E+02  0.7561462E-02  0.1295942E+00
          2   -1    0    0  501    0  0.00000000000E+00  0.00000000000E+00  0.46568796464E+03  0.46568796464E+03  0.00000000000E+00 0. -1.
         -2   -1    0    0    0  501 -0.00000000000E+00 -0.00000000000E+00 -0.27259817619E+02  0.27259817619E+02  0.00000000000E+00 0.  1.
         25    2    1    2    0    0  0.13834296652E+02 -0.28268893936E+02  0.25052635976E+03  0.28178206430E+03  0.12508859540E+03 0.  0.
          5    1    3    3  502    0 -0.27754492557E+02  0.13287503753E+02  0.78227283973E+01  0.32024008067E+02  0.41800000000E+01 0.  1.
         -5    1    3    3    0  502  0.41588789210E+02 -0.41556397688E+02  0.24270363137E+03  0.24975805624E+03  0.41800000000E+01 0.  1.
        -11    1    1    2    0    0 -0.42022663870E+02 -0.14636780864E+02  0.76421612508E+02  0.88433039590E+02  0.00000000000E+00 0.  1.
         11    1    1    2    0    0  0.28188367218E+02  0.42905674800E+02  0.11148017475E+03  0.12273267836E+03  0.00000000000E+00 0. -1.
</event>
<event>
 7    1  0.2899775E-009  0.7883453E+02  0.7561462E-02  0.1332392E+00
         -2   -1    0    0    0  501 -0.00000000000E+00  0.00000000000E+00  0.32723762818E+02  0.32723762818E+02  0.00000000000E+00 0.  1.
          2   -1    0    0  501    0  0.00000000000E+00 -0.00000000000E+00 -0.45182452029E+03  0.45182452029E+03  0.00000000000E+00 0. -1.
         25    2    1    2    0    0  0.35093494350E+02  0.16399078239E+02 -0.31236890191E+03  0.33870660570E+03  0.12508937105E+03 0.  0.
          5    1    3    3  502    0  0.29806440939E+02  0.30955386143E+02 -0.31858946491E+03  0.32150175645E+03  0.41800000000E+01 0.  1.
         -5    1    3    3    0  502  0.52870534118E+01 -0.14556307904E+02  0.62205629940E+01  0.17204849245E+02  0.41800000000E+01 0.  1.
        -11    1    1    2    0    0  0.28289069224E+02  0.97013720844E+01 -0.42013331325E+02  0.51570418526E+02  0.00000000000E+00 0. -1.
         11    1    1    2    0    0 -0.63382563575E+02 -0.26100450323E+02 -0.64718524231E+02  0.94271258881E+02  0.00000000000E+00 0.  1.
</event>
<event>
 7    1  0.2899775E-009  0.1529201E+03  0.7561462E-02  0.1196930E+00
          1   -1    0    0  501    0  0.00000000000E+00  0.00000000000E+00  0.36396520131E+03  0.36396520131E+03  0.00000000000E+00 0.  1.
         -1   -1    0    0    0  501 -0.00000000000E+00 -0.00000000000E+00 -0.99586602009E+02  0.99586602009E+02  0.00000000000E+00 0. -1.
         25    2    1    2    0    0  0.19338320082E+02  0.13926723340E+03  0.22138627024E+03  0.29056726978E+03  0.12509246460E+03 0.  0.
          5    1    3    3  502    0  0.11255011162E+02  0.65781503910E+02  0.20375948873E+03  0.21445112072E+03  0.41800000000E+01 0.  1.
         -5    1    3    3    0  502  0.80833089206E+01  0.73485729488E+02  0.17626781508E+02  0.76116149061E+02  0.41800000000E+01 0.  1.
        -11    1    1    2    0    0 -0.46217657131E+02 -0.37056749763E+02  0.95939039572E+00  0.59246898346E+02  0.00000000000E+00 0.  1.
         11    1    1    2    0    0  0.26879337049E+02 -0.10221048363E+03  0.42032938668E+02  0.11373763519E+03  0.00000000000E+00 0. -1.
</event>
<event>
 7    1  0.2899775E-009  0.2650914E+03  0.7561462E-02  0.1104122E+00
          2   -1    0    0  501    0  0.00000000000E+00  0.00000000000E+00  0.40348121351E+03  0.40348121351E+03  0.00000000000E+00 0. -1.
         -2   -1    0    0    0  501 -0.00000000000E+00 -0.00000000000E+00 -0.25565651660E+03  0.25565651660E+03  0.00000000000E+00 0.  1.
         25    2    1    2    0    0 -0.70785112032E+02  0.24719054012E+03 -0.86619954246E+02  0.29877124451E+03  0.12509014694E+03 0.  0.
          5    1    3    3  502    0 -0.48874007695E+02  0.20972573266E+03 -0.16263114499E+02  0.21599887237E+03  0.41800000000E+01 0. -1.
         -5    1    3    3    0  502 -0.21911104337E+02  0.37464807454E+02 -0.70356839747E+02  0.82772372142E+02  0.41800000000E+01 0. -1.
        -11    1    1    2    0    0  0.60346722574E+01 -0.17141974634E+03  0.17109054149E+03  0.24226663016E+03  0.00000000000E+00 0.  1.
         11    1    1    2    0    0  0.64750439775E+02 -0.75770793783E+02  0.63354109674E+02  0.11809985544E+03  0.00000000000E+00 0. -1.
</event>
<event>
 7    1  0.2899775E-009  0.1052561E+03  0.7561462E-02  0.1269616E+00
         -3   -1    0    0    0  501 -0.00000000000E+00  0.00000000000E+00  0.36903844069E+02  0.36903844069E+02  0.00000000000E+00 0.  1.
          3   -1    0    0  501    0  0.00000000000E+00 -0.00000000000E+00 -0.32001549161E+03  0.32001549161E+03  0.00000000000E+00 0. -1.
         25    2    1    2    0    0  0.12953551560E+02  0.18363112059E+01 -0.16338375662E+03  0.20618996269E+03  0.12509549252E+03 0.  0.
          5    1    3    3  502    0 -0.49908417068E+02  0.23618233972E+02 -0.49709767186E+02  0.74412394289E+02  0.41800000000E+01 0.  1.
         -5    1    3    3    0  502  0.62861968628E+02 -0.21781922766E+02 -0.11367398944E+03  0.13177756840E+03  0.41800000000E+01 0.  1.
        -11    1    1    2    0    0 -0.25011379763E+02  0.38760596913E+02 -0.42861852163E+02  0.62968971419E+02  0.00000000000E+00 0.  1.
         11    1    1    2    0    0  0.12057828203E+02 -0.40596908119E+02 -0.76866038752E+02  0.87760401567E+02  0.00000000000E+00 0. -1.
</event>
<event>
 7    1  0.2899775E-009  0.8592375E+02  0.7561462E-02  0.1313034E+00
         -2   -1    0    0    0  501 -0.00000000000E+00  0.00000000000E+00  0.40262242568E+02  0.40262242568E+02  0.00000000000E+00 0.  1.
          2   -1    0    0  501    0  0.00000000000E+00 -0.00000000000E+00 -0.33513976922E+03  0.33513976922E+03  0.00000000000E+00 0. -1.
         25    2    1    2    0    0 -0.13761109014E+02  0.17385049577E+02 -0.22417322413E+03  0.25766853895E+03  0.12509130058E+03 0.  0.
          5    1    3    3  502    0 -0.45971618298E+02  0.31278641499E+02 -0.21365091202E+03  0.22080744487E+03  0.41800000000E+01 0. -1.
         -5    1    3    3    0  502  0.32210509284E+02 -0.13893591922E+02 -0.10522312107E+02  0.36861094082E+02  0.41800000000E+01 0. -1.
        -11    1    1    2    0    0  0.46308249195E+02 -0.10873450286E+02 -0.69877113379E+02  0.84531040682E+02  0.00000000000E+00 0. -1.
         11    1    1    2    0    0 -0.32547140181E+02 -0.65115992913E+01 -0.82718915014E+00  0.33202432158E+02  0.00000000000E+00 0.  1.
</event>
<event>
 7    1  0.2899775E-009  0.8596578E+02  0.7561462E-02  0.1312926E+00
          1   -1    0    0  501    0  0.00000000000E+00  0.00000000000E+00  0.35029444184E+03  0.35029444184E+03  0.00000000000E+00 0. -1.
         -1   -1    0    0    0  501 -0.00000000000E+00 -0.00000000000E+00 -0.38538363992E+02  0.38538363992E+02  0.00000000000E+00 0.  1.
         25    2    1    2    0    0 -0.24289126227E+02  0.63775444172E+01  0.23124836397E+03  0.26410965844E+03  0.12508985217E+03 0.  0.
          5    1    3    3  502    0 -0.15222248807E+02  0.39430080068E+02  0.22505919721E+03  0.22903179413E+03  0.41800000000E+01 0. -1.
         -5    1    3    3    0  502 -0.90668774198E+01 -0.33052535651E+02  0.61891667521E+01  0.35077864305E+02  0.41800000000E+01 0. -1.
        -11    1    1    2    0    0  0.55990503436E+02  0.13393401759E+02  0.43710768922E+02  0.72283822571E+02  0.00000000000E+00 0.  1.
         11    1    1    2    0    0 -0.31701377209E+02 -0.19770946176E+02  0.36796944963E+02  0.52439324826E+02  0.00000000000E+00 0. -1.
</event>
<event>
 7    1  0.2899775E-009  0.9491996E+02  0.7561462E-02  0.1291356E+00
         -4   -1    0    0    0  501 -0.00000000000E+00  0.00000000000E+00  0.18517327486E+03  0.18517327486E+03  0.00000000000E+00 0.  1.
          4   -1    0    0  501    0  0.00000000000E+00 -0.00000000000E+00 -0.72819629749E+02  0.72819629749E+02  0.00000000000E+00 0. -1.
         25    2    1    2    0    0  0.30080609235E+02  0.43985438833E+01  0.97358845214E+02  0.16140809035E+03  0.12509850778E+03 0.  0.
          5    1    3    3  502    0 -0.47841388574E+02 -0.54081988451E+01  0.24430861204E+02  0.54151513872E+02  0.41800000000E+01 0.  1.
         -5    1    3    3    0  502  0.77921997809E+02  0.98067427284E+01  0.72927984010E+02  0.10725657648E+03  0.41800000000E+01 0.  1.
        -11    1    1    2    0    0 -0.14189555829E+02 -0.29740825553E+02  0.43964798290E+02  0.54943277003E+02  0.00000000000E+00 0.  1.
         11    1    1    2    0    0 -0.15891053406E+02  0.25342281669E+02 -0.28969998392E+02  0.41641537260E+02  0.00000000000E+00 0. -1.
</event>
<event>
 7    1  0.2899775E-009  0.5909388E+02  0.7561462E-02  0.1401674E+00
          2   -1    0    0  501    0  0.00000000000E+00  0.00000000000E+00  0.78993903147E+02  0.78993903147E+02  0.00000000000E+00 0.  1.
         -2   -1    0    0    0  501 -0.00000000000E+00 -0.00000000000E+00 -0.15520966939E+03  0.15520966939E+03  0.00000000000E+00 0. -1.
         25    2    1    2    0    0  0.59146152708E+01  0.89486867074E+01 -0.70290311609E+02  0.14388823171E+03  0.12509210068E+03 0.  0.
          5    1    3    3  502    0 -0.16523133342E+02  0.17628834186E+02 -0.10140970309E+03  0.10433211399E+03  0.41800000000E+01 0. -1.
         -5    1    3    3    0  502  0.22437748613E+02 -0.86801474791E+01  0.31119391478E+02  0.39556117719E+02  0.41800000000E+01 0. -1.
        -11    1    1    2    0    0 -0.37259501253E+02 -0.63418882809E+01  0.25705145965E+02  0.45708254284E+02  0.00000000000E+00 0.  1.
         11    1    1    2    0    0  0.31344885982E+02 -0.26067984265E+01 -0.31630600595E+02  0.44607086536E+02  0.00000000000E+00 0. -1.
</event>
<event>
 7    1  0.2899775E-009  0.9683604E+02  0.7561462E-02  0.1287094E+00
          1   -1    0    0  501    0  0.00000000000E+00  0.00000000000E+00  0.25720540109E+03  0.25720540109E+03  0.00000000000E+00 0. -1.
         -1   -1    0    0    0  501 -0.00000000000E+00 -0.00000000000E+00 -0.49371281275E+02  0.49371281275E+02  0.00000000000E+00 0.  1.
         25    2    1    2    0    0  0.17082089315E+02  0.12363491689E+00  0.15512679866E+03  0.19998818012E+03  0.12505652908E+03 0.  0.
          5    1    3    3  502    0  0.46602300663E+02  0.49588478637E+02  0.90638571942E+02  0.11341787674E+03  0.41800000000E+01 0.  1.
         -5    1    3    3    0  502 -0.29520211348E+02 -0.49464843720E+02  0.64488226715E+02  0.86570303379E+02  0.41800000000E+01 0.  1.
        -11    1    1    2    0    0  0.19930309917E+02  0.17702502318E+02 -0.12560485719E+02  0.29467976572E+02  0.00000000000E+00 0.  1.
         11    1    1    2    0    0 -0.37012399232E+02 -0.17826137235E+02  0.65267806876E+02  0.77120525673E+02  0.00000000000E+00 0. -1.
</event>
<event>
 7    1  0.2899775E-009  0.1155272E+03  0.7561462E-02  0.1250664E+00
         -2   -1    0    0    0  501 -0.00000000000E+00  0.00000000000E+00  0.47617276625E+03  0.47617276625E+03  0.00000000000E+00 0. -1.
          2   -1    0    0  501    0  0.00000000000E+00 -0.00000000000E+00 -0.44300182145E+02  0.44300182145E+02  0.00000000000E+00 0.  1.
         25    2    1    2    0    0 -0.17070491308E+02 -0.48911957606E+02  0.37961922341E+03  0.40303758277E+03  0.12507900332E+03 0.  0.
          5    1    3    3  502    0 -0.32772214518E+01  0.37715291577E+02  0.56073262506E+02  0.67785445099E+02  0.41800000000E+01 0. -1.
         -5    1    3    3    0  502 -0.13793269856E+02 -0.86627249183E+02  0.32354596091E+03  0.33525213767E+03  0.41800000000E+01 0. -1.
        -11    1    1    2    0    0 -0.52906705904E+01  0.72472980332E+02  0.35027355272E+02  0.80667463644E+02  0.00000000000E+00 0.  1.
         11    1    1    2    0    0  0.22361161898E+02 -0.23561022725E+02  0.17226005419E+02  0.36767901980E+02  0.00000000000E+00 0. -1.
</event>
<event>
 7    1  0.2899775E-009  0.1119765E+03  0.7561462E-02  0.1256953E+00
         -1   -1    0    0    0  501 -0.00000000000E+00  0.00000000000E+00  0.58612457535E+02  0.58612457535E+02  0.00000000000E+00 0.  1.
          1   -1    0    0  501    0  0.00000000000E+00 -0.00000000000E+00 -0.33621153583E+03  0.33621153583E+03  0.00000000000E+00 0. -1.
         25    2    1    2    0    0  0.78051892057E+02 -0.39823655662E+02 -0.17176996195E+03  0.22985355963E+03  0.12509883149E+03 0.  0.
          5    1    3    3  502    0  0.16429447825E+02 -0.64693373709E+02 -0.14191471027E+03  0.15688344957E+03  0.41800000000E+01 0.  1.
         -5    1    3    3    0  502  0.61622444232E+02  0.24869718047E+02 -0.29855251676E+02  0.72970110056E+02  0.41800000000E+01 0.  1.
        -11    1    1    2    0    0 -0.55793618821E+02  0.39268423409E+02 -0.12931381882E+02  0.69441757002E+02  0.00000000000E+00 0.  1.
         11    1    1    2    0    0 -0.22258273236E+02  0.55523225263E+00 -0.92897734465E+02  0.95528676736E+02  0.00000000000E+00 0. -1.
</event>
<event>
 7    1  0.2899775E-009  0.9657661E+02  0.7561462E-02  0.1287664E+00
         -2   -1    0    0    0  501 -0.00000000000E+00  0.00000000000E+00  0.36300746955E+02  0.36300746955E+02  0.00000000000E+00 0.  1.
          2   -1    0    0  501    0  0.00000000000E+00 -0.00000000000E+00 -0.39000705936E+03  0.39000705936E+03  0.00000000000E+00 0. -1.
         25    2    1    2    0    0 -0.19987859100E+02 -0.19410505449E+02 -0.27727457988E+03  0.30545816132E+03  0.12508882218E+03 0.  0.
          5    1    3    3  502    0 -0.14250081198E+02 -0.70448784995E+02 -0.20012890779E+03  0.21268556193E+03  0.41800000000E+01 0. -1.
         -5    1    3    3    0  502 -0.57377779025E+01  0.51038279546E+02 -0.77145672087E+02  0.92772599381E+02  0.41800000000E+01 0. -1.
        -11    1    1    2    0    0 -0.13524147413E+02 -0.15947993193E+02 -0.68338043344E+02  0.71465580654E+02  0.00000000000E+00 0. -1.
         11    1    1    2    0    0  0.33512006513E+02  0.35358498642E+02 -0.80936891830E+01  0.49384064346E+02  0.00000000000E+00 0.  1.
</event>
<event>
 7    1  0.2899775E-009  0.1972687E+03  0.7561462E-02  0.1152064E+00
          2   -1    0    0  501    0  0.00000000000E+00  0.00000000000E+00  0.43353386784E+03  0.43353386784E+03  0.00000000000E+00 0.  1.
         -2   -1    0    0    0  501 -0.00000000000E+00 -0.00000000000E+00 -0.95199365752E+02  0.95199365752E+02  0.00000000000E+00 0. -1.
         25    2    1    2    0    0  0.13550785891E+03 -0.10213451178E+03  0.14279957062E+03  0.25462395489E+03  0.12509117758E+03 0.  0.
          5    1    3    3  502    0  0.73856530945E+02 -0.11805842807E+03  0.12783391642E+03  0.18908083506E+03  0.41800000000E+01 0.  1.
         -5    1    3    3    0  502  0.61651327967E+02  0.15923916292E+02  0.14965654201E+02  0.65543119821E+02  0.41800000000E+01 0.  1.
        -11    1    1    2    0    0 -0.78509109342E+02  0.10863835612E+03  0.12598142755E+03  0.18394915808E+03  0.00000000000E+00 0. -1.
         11    1    1    2    0    0 -0.56998749570E+02 -0.65038443429E+01  0.69553503925E+02  0.90160120631E+02  0.00000000000E+00 0.  1.
</event>
<event>
 7    1  0.2899775E-009  0.9747107E+02  0.7561462E-02  0.1285706E+00
         -1   -1    0    0    0  501 -0.00000000000E+00  0.00000000000E+00  0.18554128179E+03  0.18554128179E+03  0.00000000000E+00 0.  1.
          1   -1    0    0  501    0  0.00000000000E+00 -0.00000000000E+00 -0.93317993245E+02  0.93317993245E+02  0.00000000000E+00 0. -1.
         25    2    1    2    0    0 -0.58685663525E+02 -0.27749365283E+02  0.94433463828E+02  0.16964461542E+03  0.12509029568E+03 0.  0.
          5    1    3    3  502    0  0.25103188454E+01 -0.26180258308E+02 -0.24263477225E+02  0.36026328607E+02  0.41800000000E+01 0. -1.
         -5    1    3    3    0  502 -0.61195982371E+02 -0.15691069747E+01  0.11869694105E+03  0.13361828681E+03  0.41800000000E+01 0. -1.
        -11    1    1    2    0    0 -0.60120669906E+01 -0.23600352950E+02  0.87785892641E+01  0.25887936154E+02  0.00000000000E+00 0.  1.
         11    1    1    2    0    0  0.64697730516E+02  0.51349718233E+02 -0.10988764547E+02  0.83326723461E+02  0.00000000000E+00 0. -1.
</event>
<event>
 7    1  0.2899775E-009  0.1013349E+03  0.7561462E-02  0.1277514E+00
          2   -1    0    0  501    0  0.00000000000E+00  0.00000000000E+00  0.53723547902E+02  0.53723547902E+02  0.00000000000E+00 0. -1.
         -2   -1    0    0    0  501 -0.00000000000E+00 -0.00000000000E+00 -0.22511115781E+03  0.22511115781E+03  0.00000000000E+00 0.  1.
         25    2    1    2    0    0  0.12987975262E+02 -0.65945987985E+01 -0.11132467790E+03  0.16808704243E+03  0.12509154123E+03 0.  0.
          5    1    3    3  502    0 -0.71135665943E+01  0.53449353073E+02 -0.81886208091E+02  0.98133886345E+02  0.41800000000E+01 0. -1.
         -5    1    3    3    0  502  0.20101541856E+02 -0.60043951871E+02 -0.29438469810E+02  0.69953156084E+02  0.41800000000E+01 0. -1.
        -11    1    1    2    0    0  0.29364895586E+02  0.25366011398E+02 -0.55334478833E+01  0.39196309424E+02  0.00000000000E+00 0.  1.
         11    1    1    2    0    0 -0.42352870848E+02 -0.18771412599E+02 -0.54529484119E+02  0.71551353854E+02  0.00000000000E+00 0. -1.
</event>
<event>
 7    1  0.2899775E-009  0.1041321E+03  0.7561462E-02  0.1271839E+00
          1   -1    0    0  501    0  0.00000000000E+00  0.00000000000E+00  0.12463382614E+04  0.12463382614E+04  0.00000000000E+00 0. -1.
         -1   -1    0    0    0  501 -0.00000000000E+00 -0.00000000000E+00 -0.12411630872E+02  0.12411630872E+02  0.00000000000E+00 0.  1.
         25    2    1    2    0    0  0.17873764207E+01 -0.96187622433E+01  0.99068402302E+03  0.99859130029E+03  0.12503613972E+03 0.  0.
          5    1    3    3  502    0 -0.84318332308E+01  0.56200139530E+02  0.37572027045E+03  0.38001677005E+03  0.41800000000E+01 0. -1.
         -5    1    3    3    0  502  0.10219209651E+02 -0.65818901773E+02  0.61496375258E+03  0.61857453024E+03  0.41800000000E+01 0. -1.
        -11    1    1    2    0    0  0.19096773755E+02  0.41927772483E+02  0.18275916576E+03  0.18847688862E+03  0.00000000000E+00 0. -1.
         11    1    1    2    0    0 -0.20884150175E+02 -0.32309010240E+02  0.60483441696E+02  0.71681703318E+02  0.00000000000E+00 0.  1.
</event>
<event>
 7    1  0.2899775E-009  0.1144266E+03  0.7561462E-02  0.1252585E+00
          2   -1    0    0  501    0  0.00000000000E+00  0.00000000000E+00  0.86245190567E+03  0.86245190567E+03  0.00000000000E+00 0.  1.
         -2   -1    0    0    0  501 -0.00000000000E+00 -0.00000000000E+00 -0.21752155741E+02  0.21752155741E+02  0.00000000000E+00 0. -1.
         25    2    1    2    0    0  0.13151518740E+02  0.80387935282E+02  0.41219939678E+03  0.43839667578E+03  0.12509244598E+03 0.  0.
          5    1    3    3  502    0 -0.59866067800E+01  0.88656860817E+02  0.14335536482E+03  0.16871310398E+03  0.41800000000E+01 0.  1.
         -5    1    3    3    0  502  0.19138125520E+02 -0.82689255350E+01  0.26884403196E+03  0.26968357180E+03  0.41800000000E+01 0.  1.
        -11    1    1    2    0    0  0.35744001549E+02 -0.48538521317E+02  0.27641376569E+03  0.28291021820E+03  0.00000000000E+00 0.  1.
         11    1    1    2    0    0 -0.48895520288E+02 -0.31849413965E+02  0.15208658745E+03  0.16289716743E+03  0.00000000000E+00 0. -1.
</event>
<event>
 7    1  0.2987567E-009  0.9665898E+02  0.7561462E-02  0.1287483E+00
         -2   -1    0    0    0  501 -0.00000000000E+00  0.00000000000E+00  0.12354635501E+03  0.12354635501E+03  0.00000000000E+00 0.  1.
          2   -1    0    0  501    0  0.00000000000E+00 -0.00000000000E+00 -0.13879091762E+03  0.13879091762E+03  0.00000000000E+00 0. -1.
         25    2    1    2    0    0  0.45918763193E+02  0.53723976216E+02 -0.26157861958E+02  0.14604135476E+03  0.12509614352E+03 0.  0.
          5    1    3    3  502    0  0.54559510529E+02  0.59754614738E+02 -0.66072273203E+02  0.10454841872E+03  0.41800000000E+01 0.  1.
         -5    1    3    3    0  502 -0.86407473355E+01 -0.60306385221E+01  0.39914411245E+02  0.41492936031E+02  0.41800000000E+01 0.  1.
        -11    1    1    2    0    0  0.95676385684E+01 -0.43497709034E+02  0.33285437495E+02  0.55601355633E+02  0.00000000000E+00 0.  1.
         11    1    1    2    0    0 -0.55486401762E+02 -0.10226267182E+02 -0.22372138138E+02  0.60694562243E+02  0.00000000000E+00 0. -1.
</event>
<event>
 7    1  0.2899775E-009  0.2735900E+03  0.7561462E-02  0.1099242E+00
         -2   -1    0    0    0  501 -0.00000000000E+00  0.00000000000E+00  0.25790212605E+03  0.25790212605E+03  0.00000000000E+00 0.  1.
          2   -1    0    0  501    0  0.00000000000E+00 -0.00000000000E+00 -0.41182066222E+03  0.41182066222E+03  0.00000000000E+00 0. -1.
         25    2    1    2    0    0  0.22110397486E+03 -0.13711041005E+03  0.88422611389E+02  0.30191463061E+03  0.12509058209E+03 0.  0.
          5    1    3    3  502    0  0.23139154649E+03 -0.14426376959E+03  0.74459748092E+02  0.28269384409E+03  0.41800000000E+01 0. -1.
         -5    1    3    3    0  502 -0.10287571628E+02  0.71533595410E+01  0.13962863297E+02  0.19220786513E+02  0.41800000000E+01 0. -1.
        -11    1    1    2    0    0 -0.10748829128E+03  0.52654732859E+02 -0.17247906737E+03  0.20994114017E+03  0.00000000000E+00 0.  1.
         11    1    1    2    0    0 -0.11361568358E+03  0.84455677188E+02 -0.69862080193E+02  0.15786701749E+03  0.00000000000E+00 0. -1.
</event>
<event>
 7    1  0.2899775E-009  0.3078116E+03  0.7561462E-02  0.1081400E+00
          2   -1    0    0  501    0  0.00000000000E+00  0.00000000000E+00  0.10527557435E+04  0.10527557435E+04  0.00000000000E+00 0. -1.
         -2   -1    0    0    0  501 -0.00000000000E+00 -0.00000000000E+00 -0.11012436528E+03  0.11012436528E+03  0.00000000000E+00 0.  1.
         25    2    1    2    0    0 -0.25957530425E+03 -0.15818579854E+03  0.66235914992E+03  0.73943906124E+03  0.12509355052E+03 0.  0.
          5    1    3    3  502    0 -0.87680732701E+02 -0.19824419546E+02  0.31747621285E+03  0.32998414602E+03  0.41800000000E+01 0. -1.
         -5    1    3    3    0  502 -0.17189457154E+03 -0.13836137899E+03  0.34488293707E+03  0.40945491523E+03  0.41800000000E+01 0. -1.
        -11    1    1    2    0    0  0.14584734519E+03  0.10278273462E+03  0.10416436454E+03  0.20660579246E+03  0.00000000000E+00 0. -1.
         11    1    1    2    0    0  0.11372795905E+03  0.55403063914E+02  0.17610786372E+03  0.21683525503E+03  0.00000000000E+00 0.  1.
</event>
<event>
 7    1  0.2899775E-009  0.1041512E+03  0.7561462E-02  0.1271801E+00
          2   -1    0    0  501    0  0.00000000000E+00  0.00000000000E+00  0.10210596544E+04  0.10210596544E+04  0.00000000000E+00 0. -1.
         -2   -1    0    0    0  501 -0.00000000000E+00 -0.00000000000E+00 -0.12947672452E+02  0.12947672452E+02  0.00000000000E+00 0.  1.
         25    2    1    2    0    0  0.64599497316E+01  0.23388426284E+02  0.70988717999E+03  0.72123245908E+03  0.12509077616E+03 0.  0.
          5    1    3    3  502    0 -0.39662491538E+02  0.49248331165E+02  0.23508888972E+03  0.24348053275E+03  0.41800000000E+01 0. -1.
         -5    1    3    3    0  502  0.46122441270E+02 -0.25859904880E+02  0.47479829027E+03  0.47775192633E+03  0.41800000000E+01 0. -1.
        -11    1    1    2    0    0  0.22231431254E+02  0.26345294284E+02  0.14774897401E+03  0.15171707349E+03  0.00000000000E+00 0.  1.
         11    1    1    2    0    0 -0.28691380986E+02 -0.49733720569E+02  0.15047582797E+03  0.16105779431E+03  0.00000000000E+00 0. -1.
</event>
<event>
 7    1  0.2899775E-009  0.1071294E+03  0.7561462E-02  0.1265980E+00
          1   -1    0    0  501    0  0.00000000000E+00  0.00000000000E+00  0.99072868095E+02  0.99072868095E+02  0.00000000000E+00 0. -1.
         -1   -1    0    0    0  501 -0.00000000000E+00 -0.00000000000E+00 -0.13626370787E+03  0.13626370787E+03  0.00000000000E+00 0.  1.
         25    2    1    2    0    0  0.45063029887E+01 -0.25704223450E+02  0.14044126784E+02  0.12861047894E+03  0.12514952627E+03 0.  0.
          5    1    3    3  502    0  0.41834882584E+02 -0.57994062015E+02 -0.12030069907E+02  0.72633763580E+02  0.41800000000E+01 0.  1.
         -5    1    3    3    0  502 -0.37328579596E+02  0.32289838565E+02  0.26074196691E+02  0.55976715358E+02  0.41800000000E+01 0.  1.
        -11    1    1    2    0    0 -0.57005423766E+01  0.59252213984E+02 -0.38121620381E+02  0.70686483757E+02  0.00000000000E+00 0. -1.
         11    1    1    2    0    0  0.11942393879E+01 -0.33547990533E+02 -0.13113346173E+02  0.36039613267E+02  0.00000000000E+00 0.  1.
</event>
<event>
 7    1  0.2899775E-009  0.1028275E+03  0.7561462E-02  0.1274460E+00
          1   -1    0    0  501    0  0.00000000000E+00  0.00000000000E+00  0.30521621793E+02  0.30521621793E+02  0.00000000000E+00 0. -1.
         -1   -1    0    0    0  501 -0.00000000000E+00 -0.00000000000E+00 -0.40985834437E+03  0.40985834437E+03  0.00000000000E+00 0.  1.
         25    2    1    2    0    0 -0.28623256266E+02 -0.45614860931E+01 -0.24476154022E+03  0.27639598889E+03  0.12508570322E+03 0.  0.
          5    1    3    3  502    0 -0.13776277136E+02 -0.58089228055E+02 -0.65708012162E+02  0.88877215809E+02  0.41800000000E+01 0. -1.
         -5    1    3    3    0  502 -0.14846979131E+02  0.53527741962E+02 -0.17905352806E+03  0.18751877308E+03  0.41800000000E+01 0. -1.
        -11    1    1    2    0    0  0.11119642942E+02 -0.40374635807E+02 -0.85363111897E+02  0.95082167352E+02  0.00000000000E+00 0.  1.
         11    1    1    2    0    0  0.17503613325E+02  0.44936121901E+02 -0.49212070464E+02  0.68901809920E+02  0.00000000000E+00 0. -1.
</event>
<event>
 7    1  0.2899775E-009  0.1005653E+03  0.7561462E-02  0.1279112E+00
         -1   -1    0    0    0  501 -0.00000000000E+00  0.00000000000E+00  0.99199383696E+02  0.99199383696E+02  0.00000000000E+00 0.  1.
          1   -1    0    0  501    0  0.00000000000E+00 -0.00000000000E+00 -0.12547139493E+03  0.12547139493E+03  0.00000000000E+00 0. -1.
         25    2    1    2    0    0  0.11441079438E+02 -0.30115758675E+01  0.55264746106E+01  0.12576506695E+03  0.12508533989E+03 0.  0.
          5    1    3    3  502    0 -0.48898051100E+02 -0.31970961401E+02  0.16803089513E+01  0.58595713260E+02  0.41800000000E+01 0. -1.
         -5    1    3    3    0  502  0.60339130539E+02  0.28959385533E+02  0.38461656593E+01  0.67169353688E+02  0.41800000000E+01 0. -1.
        -11    1    1    2    0    0 -0.69769673106E+01 -0.35779188743E+02  0.13706176003E+02  0.38944674611E+02  0.00000000000E+00 0.  1.
         11    1    1    2    0    0 -0.44641121278E+01  0.38790764610E+02 -0.45504661844E+02  0.59961037063E+02  0.00000000000E+00 0. -1.
</event>
<event>
 7    1  0.2899775E-009  0.1642256E+03  0.7561462E-02  0.1184007E+00
         -2   -1    0    0    0  501 -0.00000000000E+00  0.00000000000E+00  0.21753027040E+03  0.21753027040E+03  0.00000000000E+00 0.  1.
          2   -1    0    0  501    0  0.00000000000E+00 -0.00000000000E+00 -0.24214729225E+03  0.24214729225E+03  0.00000000000E+00 0. -1.
         25    2    1    2    0    0  0.80097054461E+02 -0.13664181793E+03 -0.13837792884E+03  0.24471238660E+03  0.12509666831E+03 0.  0.
          5    1    3    3  502    0  0.23165374074E+02 -0.74106330277E+02  0.53058067851E+01  0.77935914243E+02  0.41800000000E+01 0.  1.
         -5    1    3    3    0  502  0.56931680387E+02 -0.62535487654E+02 -0.14368373563E+03  0.16677647236E+03  0.41800000000E+01 0.  1.
        -11    1    1    2    0    0  0.46276171214E+01  0.27347288475E+02 -0.99008556748E+01  0.29450228696E+02  0.00000000000E+00 0.  1.
         11    1    1    2    0    0 -0.84724671582E+02  0.10929452946E+03  0.12366176268E+03  0.18551494735E+03  0.00000000000E+00 0. -1.
</event>
<event>
 7    1  0.2899775E-009  0.2211792E+03  0.7561462E-02  0.1133007E+00
         -1   -1    0    0    0  501 -0.00000000000E+00  0.00000000000E+00  0.62944816985E+02  0.62944816985E+02  0.00000000000E+00 0.  1.
          1   -1    0    0  501    0  0.00000000000E+00 -0.00000000000E+00 -0.90715059208E+03  0.90715059208E+03  0.00000000000E+00 0. -1.
         25    2    1    2    0    0 -0.20233308463E+03  0.60765779656E+02 -0.41961845317E+03  0.48616784217E+03  0.12509343471E+03 0.  0.
          5    1    3    3  502    0 -0.59315650349E+02  0.29750320034E+02 -0.26508709475E+03  0.27329849638E+03  0.41800000000E+01 0.  1.
         -5    1    3    3    0  502 -0.14301743428E+03  0.31015459623E+02 -0.15453135841E+03  0.21286934579E+03  0.41800000000E+01 0.  1.
        -11    1    1    2    0    0  0.95999451306E+02  0.17310224172E+02 -0.14470403840E+03  0.17451302886E+03  0.00000000000E+00 0. -1.
         11    1    1    2    0    0  0.10633363333E+03 -0.78076003828E+02 -0.27988328353E+03  0.30941453804E+03  0.00000000000E+00 0.  1.
</event>
<event>
 7    1  0.2899775E-009  0.1252687E+03  0.7561462E-02  0.1234650E+00
         -2   -1    0    0    0  501 -0.00000000000E+00  0.00000000000E+00  0.47083778595E+02  0.47083778595E+02  0.00000000000E+00 0.  1.
          2   -1    0    0  501    0  0.00000000000E+00 -0.00000000000E+00 -0.33638660704E+03  0.33638660704E+03  0.00000000000E+00 0. -1.
         25    2    1    2    0    0  0.67169898922E+01 -0.61684882996E+02 -0.17912310978E+03  0.22711749442E+03  0.12508846899E+03 0.  0.
          5    1    3    3  502    0 -0.55988625949E+02 -0.74817917179E+01 -0.72190044923E+02  0.91758260821E+02  0.41800000000E+01 0.  1.
         -5    1    3    3    0  502  0.62705615841E+02 -0.54203091278E+02 -0.10693306485E+03  0.13535923360E+03  0.41800000000E+01 0.  1.
        -11    1    1    2    0    0 -0.46645890146E+02  0.13979179794E+02 -0.46597495106E+02  0.67398687564E+02  0.00000000000E+00 0. -1.
         11    1    1    2    0    0  0.39928900254E+02  0.47705703201E+02 -0.63582223563E+02  0.88954203648E+02  0.00000000000E+00 0.  1.
</event>
<event>
 7    1  0.2899775E-009  0.1078085E+03  0.7561462E-02  0.1264683E+00
          2   -1    0    0  501    0  0.00000000000E+00  0.00000000000E+00  0.58967564812E+03  0.58967564812E+03  0.00000000000E+00 0. -1.
         -2   -1    0    0    0  501 -0.00000000000E+00 -0.00000000000E+00 -0.22705841033E+02  0.22705841033E+02  0.00000000000E+00 0.  1.
         25    2    1    2    0    0 -0.19904876244E+02 -0.33333597944E+02  0.29164003823E+03  0.31970218338E+03  0.12509293069E+03 0.  0.
          5    1    3    3  502    0 -0.71328571563E+02 -0.22076619052E+02  0.13404159154E+03  0.15349189846E+03  0.41800000000E+01 0.  1.
         -5    1    3    3    0  502  0.51423695319E+02 -0.11256978892E+02  0.15759844669E+03  0.16621028492E+03  0.41800000000E+01 0.  1.
        -11    1    1    2    0    0  0.32253617136E+02 -0.16819161874E+02  0.52035468295E+02  0.63489132812E+02  0.00000000000E+00 0.  1.
         11    1    1    2    0    0 -0.12348740892E+02  0.50152759817E+02  0.22329430057E+03  0.22919017297E+03  0.00000000000E+00 0. -1.
</event>
<event>
 7    1  0.2899775E-009  0.1610374E+03  0.7561462E-02  0.1187530E+00
          1   -1    0    0  501    0  0.00000000000E+00  0.00000000000E+00  0.92997028543E+02  0.92997028543E+02  0.00000000000E+00 0. -1.
         -1   -1    0    0    0  501 -0.00000000000E+00 -0.00000000000E+00 -0.30631093209E+03  0.30631093209E+03  0.00000000000E+00 0.  1.
         25    2    1    2    0    0  0.71699765196E+02  0.98103289941E+02 -0.61862151461E+02  0.18503751396E+03  0.12508734533E+03 0.  0.
          5    1    3    3  502    0 -0.15882436632E+02  0.79820123156E+02 -0.47501281795E+02  0.94325754840E+02  0.41800000000E+01 0. -1.
         -5    1    3    3    0  502  0.87582201827E+02  0.18283166785E+02 -0.14360869666E+02  0.90711759118E+02  0.41800000000E+01 0. -1.
        -11    1    1    2    0    0 -0.56587967475E+02 -0.51283931524E+01 -0.48224829609E+02  0.74526053633E+02  0.00000000000E+00 0. -1.
         11    1    1    2    0    0 -0.15111797720E+02 -0.92974896789E+02 -0.10322692248E+03  0.13974439305E+03  0.00000000000E+00 0.  1.
</event>
<event>
 7    1  0.2899775E-009  0.1104147E+03  0.7561462E-02  0.1259804E+00
         -1   -1    0    0    0  501 -0.00000000000E+00  0.00000000000E+00  0.25084936529E+02  0.25084936529E+02  0.00000000000E+00 0.  1.
          1   -1    0    0  501    0  0.00000000000E+00 -0.00000000000E+00 -0.82287788763E+03  0.82287788763E+03  0.00000000000E+00 0. -1.
         25    2    1    2    0    0  0.21658990259E+02  0.24463656964E+02 -0.70214472419E+03  0.71394790706E+03  0.12508724118E+03 0.  0.
          5    1    3    3  502    0 -0.13626120750E+02  0.69835785545E+02 -0.36084224683E+03  0.36781422975E+03  0.41800000000E+01 0. -1.
         -5    1    3    3    0  502  0.35285111008E+02 -0.45372128581E+02 -0.34130247737E+03  0.34613367731E+03  0.41800000000E+01 0. -1.
        -11    1    1    2    0    0  0.12936596785E+02  0.26985212484E+02 -0.19070498394E+02  0.35485787834E+02  0.00000000000E+00 0.  1.
         11    1    1    2    0    0 -0.34595587044E+02 -0.51448869448E+02 -0.76577728517E+02  0.98529129273E+02  0.00000000000E+00 0. -1.
</event>
<event>
 7    1  0.2899775E-009  0.2046001E+03  0.7561462E-02  0.1145915E+00
          1   -1    0    0  501    0  0.00000000000E+00  0.00000000000E+00  0.82702458464E+03  0.82702458464E+03  0.00000000000E+00 0. -1.
         -1   -1    0    0    0  501 -0.00000000000E+00 -0.00000000000E+00 -0.55346928912E+02  0.55346928912E+02  0.00000000000E+00 0.  1.
         25    2    1    2    0    0  0.10011064630E+03  0.15134174966E+03  0.41438830943E+03  0.46935279542E+03  0.12509160196E+03 0.  0.
          5    1    3    3  502    0  0.11477203933E+03  0.16424976492E+03  0.37693434010E+03  0.42690464443E+03  0.41800000000E+01 0. -1.
         -5    1    3    3    0  502 -0.14661393030E+02 -0.12908015264E+02  0.37453969325E+02  0.42448150982E+02  0.41800000000E+01 0. -1.
        -11    1    1    2    0    0 -0.36734086184E+02 -0.17444527059E+02  0.21489159255E+02  0.45994440725E+02  0.00000000000E+00 0.  1.
         11    1    1    2    0    0 -0.63376560115E+02 -0.13389722260E+03  0.33580018704E+03  0.36702427741E+03  0.00000000000E+00 0. -1.
</event>
<event>
 7    1  0.2899775E-009  0.1891782E+03  0.7561462E-02  0.1159205E+00
          2   -1    0    0  501    0  0.00000000000E+00  0.00000000000E+00  0.11250569754E+04  0.11250569754E+04  0.00000000000E+00 0. -1.
         -2   -1    0    0    0  501 -0.00000000000E+00 -0.00000000000E+00 -0.34044249338E+02  0.34044249338E+02  0.00000000000E+00 0.  1.
         25    2    1    2    0    0  0.15635263287E+03 -0.17359371990E+02  0.44520484917E+03  0.48846949198E+03  0.12509034040E+03 0.  0.
          5    1    3    3  502    0  0.89846132396E+01  0.40762603198E+02  0.79003622942E+02  0.89450309851E+02  0.41800000000E+01 0.  1.
         -5    1    3    3    0  502  0.14736801963E+03 -0.58121975188E+02  0.36620122623E+03  0.39901918213E+03  0.41800000000E+01 0.  1.
        -11    1    1    2    0    0 -0.13144809970E+03  0.46657596917E+02  0.45145993885E+03  0.47251625438E+03  0.00000000000E+00 0.  1.
         11    1    1    2    0    0 -0.24904533175E+02 -0.29298224927E+02  0.19434793803E+03  0.19811547838E+03  0.00000000000E+00 0. -1.
</event>
<event>
 7    1  0.2899775E-009  0.1339987E+03  0.7561462E-02  0.1221640E+00
          3   -1    0    0  501    0  0.00000000000E+00  0.00000000000E+00  0.20482485580E+03  0.20482485580E+03  0.00000000000E+00 0. -1.
         -3   -1    0    0    0  501 -0.00000000000E+00 -0.00000000000E+00 -0.11908756307E+03  0.11908756307E+03  0.00000000000E+00 0.  1.
         25    2    1    2    0    0 -0.94404930959E+02  0.54158613810E+02  0.20015755544E+02  0.16701541782E+03  0.12509225747E+03 0.  0.
          5    1    3    3  502    0 -0.83765539436E+02 -0.12340970832E+02  0.43865473803E+02  0.95449553954E+02  0.41800000000E+01 0.  1.
         -5    1    3    3    0  502 -0.10639391523E+02  0.66499584642E+02 -0.23849718259E+02  0.71565863864E+02  0.41800000000E+01 0.  1.
        -11    1    1    2    0    0  0.28436894176E+02 -0.38648115803E+02 -0.16140819169E+02  0.50624696038E+02  0.00000000000E+00 0.  1.
         11    1    1    2    0    0  0.65968036783E+02 -0.15510498007E+02  0.81862356356E+02  0.10627230502E+03  0.00000000000E+00 0. -1.
</event>
<event>
 7    1  0.2899775E-009  0.1342217E+03  0.7561462E-02  0.1221323E+00
          2   -1    0    0  501    0  0.00000000000E+00  0.00000000000E+00  0.33625736426E+03  0.33625736426E+03  0.00000000000E+00 0. -1.
         -2   -1    0    0    0  501 -0.00000000000E+00 -0.00000000000E+00 -0.72170563802E+02  0.72170563802E+02  0.00000000000E+00 0.  1.
         25    2    1    2    0    0  0.52074935582E+02  0.89963549117E+02  0.88200671250E+02  0.18501319524E+03  0.12508111336E+03 0.  0.
          5    1    3    3  502    0  0.92333411278E+01  0.10854123602E+03  0.84605215666E+02  0.13799264264E+03  0.41800000000E+01 0.  1.
         -5    1    3    3    0  502  0.42841594454E+02 -0.18577686906E+02  0.35954555847E+01  0.47020552602E+02  0.41800000000E+01 0.  1.
        -11    1    1    2    0    0 -0.24016228248E+02 -0.78749863844E+02  0.17475423509E+03  0.19317702492E+03  0.00000000000E+00 0. -1.
         11    1    1    2    0    0 -0.28058707334E+02 -0.11213685273E+02  0.11318941180E+01  0.30237707898E+02  0.00000000000E+00 0.  1.
</event>
<event>
 7    1  0.2899775E-009  0.8274192E+02  0.7561462E-02  0.1321446E+00
          1   -1    0    0  501    0  0.00000000000E+00  0.00000000000E+00  0.50782881575E+03  0.50782881575E+03  0.00000000000E+00 0. -1.
         -1   -1    0    0    0  501 -0.00000000000E+00 -0.00000000000E+00 -0.47324381508E+02  0.47324381508E+02  0.00000000000E+00 0.  1.
         25    2    1    2    0    0  0.12264581138E+02 -0.23612662140E+02  0.44162041627E+03  0.45976317977E+03  0.12508241940E+03 0.  0.
          5    1    3    3  502    0  0.81680231177E+00 -0.46183168828E+02  0.53534726325E+02  0.70830724772E+02  0.41800000000E+01 0. -1.
         -5    1    3    3    0  502  0.11447778826E+02  0.22570506688E+02  0.38808568994E+03  0.38893245500E+03  0.41800000000E+01 0. -1.
        -11    1    1    2    0    0  0.18597774799E+02  0.49685859074E+02  0.12232871371E+02  0.54444512684E+02  0.00000000000E+00 0. -1.
         11    1    1    2    0    0 -0.30862355937E+02 -0.26073196934E+02  0.66511466010E+01  0.40945504802E+02  0.00000000000E+00 0.  1.
</event>
<event>
 7    1  0.2899775E-009  0.3387536E+03  0.7561462E-02  0.1067328E+00
         -2   -1    0    0    0  501 -0.00000000000E+00  0.00000000000E+00  0.11614053309E+03  0.11614053309E+03  0.00000000000E+00 0.  1.
          2   -1    0    0  501    0  0.00000000000E+00 -0.00000000000E+00 -0.10466149254E+04  0.10466149254E+04  0.00000000000E+00 0. -1.
         25    2    1    2    0    0  0.32718503631E+03  0.68738079820E+01 -0.38691778152E+03  0.52196722731E+03  0.12508844672E+03 0.  0.
          5    1    3    3  502    0 -0.97708896276E+01  0.79317270085E+01 -0.12319445553E+02  0.18100378896E+02  0.41800000000E+01 0. -1.
         -5    1    3    3    0  502  0.33695592594E+03 -0.10579190265E+01 -0.37459833597E+03  0.50386684841E+03  0.41800000000E+01 0. -1.
        -11    1    1    2    0    0 -0.85105118614E+02 -0.96134449986E+00 -0.22560115578E+03  0.24112172628E+03  0.00000000000E+00 0.  1.
         11    1    1    2    0    0 -0.24207991770E+03 -0.59124634821E+01 -0.31795545506E+03  0.39966650495E+03  0.00000000000E+00 0. -1.
</event>
<event>
 7    1  0.2899775E-009  0.1301484E+03  0.7561462E-02  0.1227236E+00
         -1   -1    0    0    0  501 -0.00000000000E+00  0.00000000000E+00  0.43809581742E+03  0.43809581742E+03  0.00000000000E+00 0.  1.
          1   -1    0    0  501    0  0.00000000000E+00 -0.00000000000E+00 -0.64924099278E+02  0.64924099278E+02  0.00000000000E+00 0. -1.
         25    2    1    2    0    0 -0.46288223278E+02  0.86926139889E+02  0.32515474944E+03  0.36203807338E+03  0.12508877679E+03 0.  0.
          5    1    3    3  502    0 -0.27169606438E+02 -0.97628684145E+01  0.85177805050E+01  0.30389572198E+02  0.41800000000E+01 0. -1.
         -5    1    3    3    0  502 -0.19118616840E+02  0.96689008303E+02  0.31663696894E+03  0.33164850118E+03  0.41800000000E+01 0. -1.
        -11    1    1    2    0    0 -0.24932658755E+02 -0.80427306472E+01  0.75969938169E+01  0.27277047199E+02  0.00000000000E+00 0. -1.
         11    1    1    2    0    0  0.71220882033E+02 -0.78883409242E+02  0.40419974879E+02  0.11370479612E+03  0.00000000000E+00 0.  1.
</event>
<event>
 7    1  0.2899775E-009  0.2337686E+03  0.7561462E-02  0.1124015E+00
          2   -1    0    0  501    0  0.00000000000E+00  0.00000000000E+00  0.22873512831E+03  0.22873512831E+03  0.00000000000E+00 0. -1.
         -2   -1    0    0    0  501 -0.00000000000E+00 -0.00000000000E+00 -0.25046038195E+03  0.25046038195E+03  0.00000000000E+00 0.  1.
         25    2    1    2    0    0 -0.12718845100E+02  0.20955449236E+03 -0.45373705245E+02  0.24855895560E+03  0.12509167435E+03 0.  0.
          5    1    3    3  502    0  0.47586688348E+02  0.13236508797E+03 -0.52645657037E+02  0.15024662068E+03  0.41800000000E+01 0. -1.
         -5    1    3    3    0  502 -0.60305533447E+02  0.77189404396E+02  0.72719517917E+01  0.98312334924E+02  0.41800000000E+01 0. -1.
        -11    1    1    2    0    0  0.51804747873E+02 -0.13490771869E+03  0.65637682024E+01  0.14466135461E+03  0.00000000000E+00 0. -1.
         11    1    1    2    0    0 -0.39085902774E+02 -0.74646773677E+02  0.17084683400E+02  0.85975200046E+02  0.00000000000E+00 0.  1.
</event>
<event>
 7    1  0.2899775E-009  0.2197821E+03  0.7561462E-02  0.1134046E+00
         -2   -1    0    0    0  501 -0.00000000000E+00  0.00000000000E+00  0.54666374905E+02  0.54666374905E+02  0.00000000000E+00 0.  1.
          2   -1    0    0  501    0  0.00000000000E+00 -0.00000000000E+00 -0.10619987981E+04  0.10619987981E+04  0.00000000000E+00 0. -1.
         25    2    1    2    0    0  0.21381262309E+03  0.17477870248E+02 -0.49724455569E+03  0.55580673003E+03  0.12509060412E+03 0.  0.
          5    1    3    3  502    0  0.53289007736E+02  0.30007981476E+02 -0.27247971640E+03  0.27928993098E+03  0.41800000000E+01 0.  1.
         -5    1    3    3    0  502  0.16052361536E+03 -0.12530111228E+02 -0.22476483929E+03  0.27651679905E+03  0.41800000000E+01 0.  1.
        -11    1    1    2    0    0 -0.75655001803E+02  0.10065992288E+02 -0.91233925104E+02  0.11894802474E+03  0.00000000000E+00 0.  1.
         11    1    1    2    0    0 -0.13815762129E+03 -0.27543862536E+02 -0.41885394239E+03  0.44191041823E+03  0.00000000000E+00 0. -1.
</event>
<event>
 7    1  0.2899775E-009  0.1058972E+03  0.7561462E-02  0.1268362E+00
         -2   -1    0    0    0  501 -0.00000000000E+00  0.00000000000E+00  0.16197903539E+03  0.16197903539E+03  0.00000000000E+00 0. -1.
          2   -1    0    0  501    0  0.00000000000E+00 -0.00000000000E+00 -0.13808848130E+03  0.13808848130E+03  0.00000000000E+00 0.  1.
         25    2    1    2    0    0 -0.29730438192E+02  0.39650867801E+02 -0.76902040980E+02  0.15497640497E+03  0.12509065481E+03 0.  0.
          5    1    3    3  502    0  0.16223888551E+02 -0.23907933974E+02 -0.70342548188E+02  0.76160031199E+02  0.41800000000E+01 0.  1.
         -5    1    3    3    0  502 -0.45954326743E+02  0.63558801775E+02 -0.65594927926E+01  0.78816373776E+02  0.41800000000E+01 0.  1.
        -11    1    1    2    0    0  0.56275350974E+02  0.79538523922E-01  0.60040768736E+02  0.82291040606E+02  0.00000000000E+00 0.  1.
         11    1    1    2    0    0 -0.26544912782E+02 -0.39730406325E+02  0.40751826340E+02  0.62800071110E+02  0.00000000000E+00 0. -1.
</event>
<event>
 7    1  0.2899775E-009  0.1043122E+03  0.7561462E-02  0.1271481E+00
         -2   -1    0    0    0  501 -0.00000000000E+00  0.00000000000E+00  0.57165420026E+02  0.57165420026E+02  0.00000000000E+00 0.  1.
          2   -1    0    0  501    0  0.00000000000E+00 -0.00000000000E+00 -0.23352851293E+03  0.23352851293E+03  0.00000000000E+00 0. -1.
         25    2    1    2    0    0  0.30145713491E+02 -0.20877415333E+02 -0.75578459362E+02  0.15066731926E+03  0.12507560538E+03 0.  0.
          5    1    3    3  502    0 -0.43075750280E+02  0.38130663162E+01 -0.13949583154E+01  0.43468126778E+02  0.41800000000E+01 0.  1.
         -5    1    3    3    0  502  0.73221463771E+02 -0.24690481650E+02 -0.74183501047E+02  0.10719919248E+03  0.41800000000E+01 0.  1.
        -11    1    1    2    0    0 -0.53946224175E+02 -0.30658856046E+01 -0.89284587839E+02  0.10436154648E+03  0.00000000000E+00 0. -1.
         11    1    1    2    0    0  0.23800510684E+02  0.23943300938E+02 -0.11500045700E+02  0.35665067219E+02  0.00000000000E+00 0.  1.
</event>
<event>
 7    1  0.2899775E-009  0.1247326E+03  0.7561462E-02  0.1235488E+00
          2   -1    0    0  501    0  0.00000000000E+00  0.00000000000E+00  0.27574932761E+03  0.27574932761E+03  0.00000000000E+00 0. -1.
         -2   -1    0    0    0  501 -0.00000000000E+00 -0.00000000000E+00 -0.74262201749E+02  0.74262201749E+02  0.00000000000E+00 0.  1.
         25    2    1    2    0    0  0.66412242857E+02  0.65244315928E+02  0.10752481308E+03  0.18940997803E+03  0.12508855897E+03 0.  0.
          5    1    3    3  502    0  0.85577330626E+02  0.71437575877E+02  0.39496243275E+02  0.11833947945E+03  0.41800000000E+01 0. -1.
         -5    1    3    3    0  502 -0.19165087768E+02 -0.61932599490E+01  0.68028569804E+02  0.71070498574E+02  0.41800000000E+01 0. -1.
        -11    1    1    2    0    0 -0.51504061302E+01 -0.54985701370E+02  0.79542838996E+02  0.96835000253E+02  0.00000000000E+00 0.  1.
         11    1    1    2    0    0 -0.61261836727E+02 -0.10258614559E+02  0.14419473782E+02  0.63766551075E+02  0.00000000000E+00 0. -1.
</event>
<event>
 7    1  0.2899775E-009  0.1022118E+03  0.7561462E-02  0.1275712E+00
         -1   -1    0    0    0  501 -0.00000000000E+00  0.00000000000E+00  0.32910290853E+03  0.32910290853E+03  0.00000000000E+00 0. -1.
          1   -1    0    0  501    0  0.00000000000E+00 -0.00000000000E+00 -0.51595947177E+02  0.51595947177E+02  0.00000000000E+00 0.  1.
         25    2    1    2    0    0 -0.13889526402E+02  0.93723925029E+01  0.51434720257E+02  0.13627437466E+03  0.12507763212E+03 0.  0.
          5    1    3    3  502    0  0.22133120078E+02 -0.43846811408E+02  0.52298870324E+02  0.71868366561E+02  0.41800000000E+01 0. -1.
         -5    1    3    3    0  502 -0.36022646480E+02  0.53219203911E+02 -0.86415006664E+00  0.64406008102E+02  0.41800000000E+01 0. -1.
        -11    1    1    2    0    0 -0.37959425964E+02  0.43133749473E+00  0.69391452277E+02  0.79096635330E+02  0.00000000000E+00 0.  1.
         11    1    1    2    0    0  0.51848952366E+02 -0.98037299977E+01  0.15668078882E+03  0.16532784571E+03  0.00000000000E+00 0. -1.
</event>
<event>
 7    1  0.2899775E-009  0.1192812E+03  0.7561462E-02  0.1244288E+00
         -1   -1    0    0    0  501 -0.00000000000E+00  0.00000000000E+00  0.51089323421E+02  0.51089323421E+02  0.00000000000E+00 0. -1.
          1   -1    0    0  501    0  0.00000000000E+00 -0.00000000000E+00 -0.30390702938E+03  0.30390702938E+03  0.00000000000E+00 0.  1.
         25    2    1    2    0    0 -0.77565356007E+01 -0.64453503117E+02 -0.17159624845E+03  0.22205304147E+03  0.12509141793E+03 0.  0.
          5    1    3    3  502    0 -0.16725829546E+01 -0.10017654586E+03 -0.14741411907E+03  0.17828778078E+03  0.41800000000E+01 0. -1.
         -5    1    3    3    0  502 -0.60839526460E+01  0.35723042741E+02 -0.24182129373E+02  0.43765260692E+02  0.41800000000E+01 0. -1.
        -11    1    1    2    0    0 -0.33567735208E+02  0.13446051780E+02 -0.13423871200E+02  0.38571874124E+02  0.00000000000E+00 0. -1.
         11    1    1    2    0    0  0.41324270808E+02  0.51007451337E+02 -0.67797586313E+02  0.94371437202E+02  0.00000000000E+00 0.  1.
</event>
<event>
 7    1  0.2899775E-009  0.6453497E+02  0.7561462E-02  0.1379729E+00
         -1   -1    0    0    0  501 -0.00000000000E+00  0.00000000000E+00  0.59151662893E+02  0.59151662893E+02  0.00000000000E+00 0.  1.
          1   -1    0    0  501    0  0.00000000000E+00 -0.00000000000E+00 -0.23673377416E+03  0.23673377416E+03  0.00000000000E+00 0. -1.
         25    2    1    2    0    0  0.46223979551E+02  0.46241458873E+01 -0.91323409917E+02  0.16169594237E+03  0.12509026169E+03 0.  0.
          5    1    3    3  502    0  0.20895359362E+02  0.33217047926E+02 -0.11151184925E+03  0.11828927779E+03  0.41800000000E+01 0. -1.
         -5    1    3    3    0  502  0.25328620188E+02 -0.28592902038E+02  0.20188439336E+02  0.43406664585E+02  0.41800000000E+01 0. -1.
        -11    1    1    2    0    0 -0.26614388083E+02 -0.13280599396E+02 -0.10286195808E+03  0.10707605892E+03  0.00000000000E+00 0. -1.
         11    1    1    2    0    0 -0.19609591467E+02  0.86564535087E+01  0.16603256728E+02  0.27113435763E+02  0.00000000000E+00 0.  1.
</event>
<event>
 7    1  0.2899775E-009  0.1957151E+03  0.7561462E-02  0.1153405E+00
          1   -1    0    0  501    0  0.00000000000E+00  0.00000000000E+00  0.95653666666E+03  0.95653666666E+03  0.00000000000E+00 0. -1.
         -1   -1    0    0    0  501 -0.00000000000E+00 -0.00000000000E+00 -0.61397338984E+02  0.61397338984E+02  0.00000000000E+00 0.  1.
         25    2    1    2    0    0 -0.89526312508E+02  0.15336390037E+03  0.20402486565E+03  0.29800852010E+03  0.12508991039E+03 0.  0.
          5    1    3    3  502    0  0.28422478632E+01 -0.75240342860E+01  0.66305015647E+02  0.66921722668E+02  0.41800000000E+01 0. -1.
         -5    1    3    3    0  502 -0.92368560371E+02  0.16088793466E+03  0.13771985001E+03  0.23108679744E+03  0.41800000000E+01 0. -1.
        -11    1    1    2    0    0  0.92865799583E+02 -0.77758058699E+02  0.49784586962E+03  0.51236791695E+03  0.00000000000E+00 0. -1.
         11    1    1    2    0    0 -0.33394870750E+01 -0.75605841673E+02  0.19326859241E+03  0.20755756859E+03  0.00000000000E+00 0.  1.
</event>
<event>
 7    1  0.4047151E-009  0.1420307E+03  0.7561462E-02  0.1210622E+00
         -1   -1    0    0    0  501 -0.00000000000E+00  0.00000000000E+00  0.62177310876E+02  0.62177310876E+02  0.00000000000E+00 0.  1.
          1   -1    0    0  501    0  0.00000000000E+00 -0.00000000000E+00 -0.48354378553E+03  0.48354378553E+03  0.00000000000E+00 0. -1.
         25    2    1    2    0    0  0.11297858578E+02  0.11212246802E+03 -0.10739288634E+03  0.19969872762E+03  0.12508900964E+03 0.  0.
          5    1    3    3  502    0 -0.52679123692E+02  0.23797974624E+02 -0.25848115511E+02  0.63458893345E+02  0.41800000000E+01 0.  1.
         -5    1    3    3    0  502  0.63976982270E+02  0.88324493392E+02 -0.81544770825E+02  0.13623983427E+03  0.41800000000E+01 0.  1.
        -11    1    1    2    0    0 -0.19746131362E+02 -0.42875549042E+02 -0.35825155168E+02  0.59259295914E+02  0.00000000000E+00 0.  1.
         11    1    1    2    0    0  0.84482727844E+01 -0.69246918974E+02 -0.27814843315E+03  0.28676307287E+03  0.00000000000E+00 0. -1.
</event>
<event>
 7    1  0.2899775E-009  0.1074806E+03  0.7561462E-02  0.1265308E+00
          2   -1    0    0  501    0  0.00000000000E+00  0.00000000000E+00  0.51631601036E+03  0.51631601036E+03  0.00000000000E+00 0. -1.
         -2   -1    0    0    0  501 -0.00000000000E+00 -0.00000000000E+00 -0.26746429607E+02  0.26746429607E+02  0.00000000000E+00 0.  1.
         25    2    1    2    0    0 -0.33575692781E+02  0.13298688921E+01  0.20564004795E+03  0.24303144158E+03  0.12508939435E+03 0.  0.
          5    1    3    3  502    0 -0.79132874480E+02 -0.69040129991E+01  0.15547206742E+03  0.17463880831E+03  0.41800000000E+01 0.  1.
         -5    1    3    3    0  502  0.45557181699E+02  0.82338818912E+01  0.50167980526E+02  0.68392633269E+02  0.41800000000E+01 0.  1.
        -11    1    1    2    0    0 -0.26545455883E+02 -0.96395768843E+01  0.42053089378E+02  0.50656144709E+02  0.00000000000E+00 0.  1.
         11    1    1    2    0    0  0.60121148664E+02  0.83097079922E+01  0.24187644343E+03  0.24937485368E+03  0.00000000000E+00 0. -1.
</event>
<event>
 7    1  0.2899775E-009  0.8198164E+02  0.7561462E-02  0.1323520E+00
          1   -1    0    0  501    0  0.00000000000E+00  0.00000000000E+00  0.74095213659E+02  0.74095213659E+02  0.00000000000E+00 0. -1.
         -1   -1    0    0    0  501 -0.00000000000E+00 -0.00000000000E+00 -0.18296826698E+03  0.18296826698E+03  0.00000000000E+00 0.  1.
         25    2    1    2    0    0 -0.29719011162E+02  0.13377051282E+02 -0.19446984227E+02  0.13072001430E+03  0.12508945526E+03 0.  0.
          5    1    3    3  502    0 -0.85986602923E+01  0.55199126158E+02 -0.49619494546E+02  0.74836135165E+02  0.41800000000E+01 0. -1.
         -5    1    3    3    0  502 -0.21120350869E+02 -0.41822074876E+02  0.30172510319E+02  0.55883879131E+02  0.41800000000E+01 0. -1.
        -11    1    1    2    0    0 -0.13233345989E+02 -0.12101641599E+02  0.81702090508E+01  0.19705925286E+02  0.00000000000E+00 0. -1.
         11    1    1    2    0    0  0.42952357151E+02 -0.12754096834E+01 -0.97596278150E+02  0.10663754106E+03  0.00000000000E+00 0.  1.
</event>
<event>
 7    1  0.2899775E-009  0.1222879E+03  0.7561462E-02  0.1239370E+00
         -2   -1    0    0    0  501 -0.00000000000E+00  0.00000000000E+00  0.35503858092E+03  0.35503858092E+03  0.00000000000E+00 0.  1.
          2   -1    0    0  501    0  0.00000000000E+00 -0.00000000000E+00 -0.95019440427E+02  0.95019440427E+02  0.00000000000E+00 0. -1.
         25    2    1    2    0    0  0.24685252178E+01 -0.11753768389E+03  0.24906925190E+03  0.30249733087E+03  0.12509173511E+03 0.  0.
          5    1    3    3  502    0 -0.14756674612E+02 -0.98644286002E+02  0.70876468430E+02  0.12243120837E+03  0.41800000000E+01 0. -1.
         -5    1    3    3    0  502  0.17225199829E+02 -0.18893397888E+02  0.17819278347E+03  0.18006612250E+03  0.41800000000E+01 0. -1.
        -11    1    1    2    0    0 -0.99528999011E+01  0.73482042822E+02 -0.36270050586E+02  0.82548091457E+02  0.00000000000E+00 0. -1.
         11    1    1    2    0    0  0.74843746834E+01  0.44055641068E+02  0.47219939179E+02  0.65012599013E+02  0.00000000000E+00 0.  1.
</event>
<event>
 7    1  0.2899775E-009  0.1045299E+03  0.7561462E-02  0.1271049E+00
         -2   -1    0    0    0  501 -0.00000000000E+00  0.00000000000E+00  0.13462411034E+03  0.13462411034E+03  0.00000000000E+00 0.  1.
          2   -1    0    0  501    0  0.00000000000E+00 -0.00000000000E+00 -0.13197527310E+03  0.13197527310E+03  0.00000000000E+00 0. -1.
         25    2    1    2    0    0 -0.74091088792E+02 -0.22957073451E+02  0.63679483659E+01  0.14733333558E+03  0.12510013728E+03 0.  0.
          5    1    3    3  502    0 -0.74132274443E+02  0.30072239667E+01  0.54725301496E+02  0.92287423487E+02  0.41800000000E+01 0.  1.
         -5    1    3    3    0  502  0.41185650347E-01 -0.25964297417E+02 -0.48357353130E+02  0.55045912095E+02  0.41800000000E+01 0.  1.
        -11    1    1    2    0    0  0.84044646511E+02  0.36512209186E+02 -0.22194692783E+02  0.94282810812E+02  0.00000000000E+00 0. -1.
         11    1    1    2    0    0 -0.99535577187E+01 -0.13555135736E+02  0.18475581654E+02  0.24983237051E+02  0.00000000000E+00 0.  1.
</event>
<event>
 7    1  0.2899775E-009  0.1252541E+03  0.7561462E-02  0.1234673E+00
         -2   -1    0    0    0  501 -0.00000000000E+00  0.00000000000E+00  0.77951696287E+02  0.77951696287E+02  0.00000000000E+00 0.  1.
          2   -1    0    0  501    0  0.00000000000E+00 -0.00000000000E+00 -0.27424252991E+03  0.27424252991E+03  0.00000000000E+00 0. -1.
         25    2    1    2    0    0 -0.26347148216E+01 -0.89371422567E+02 -0.58116034093E+02  0.16437339300E+03  0.12508775325E+03 0.  0.
          5    1    3    3  502    0  0.12049217290E+02  0.30399062043E+02 -0.10736061714E+02  0.34670189378E+02  0.41800000000E+01 0. -1.
         -5    1    3    3    0  502 -0.14683932112E+02 -0.11977048461E+03 -0.47379972379E+02  0.12970320362E+03  0.41800000000E+01 0. -1.
        -11    1    1    2    0    0 -0.12346324865E+02  0.75112650451E+02 -0.14683959356E+03  0.16539712281E+03  0.00000000000E+00 0. -1.
         11    1    1    2    0    0  0.14981039687E+02  0.14258772116E+02  0.86647940292E+01  0.22423710396E+02  0.00000000000E+00 0.  1.
</event>
<event>
 7    1  0.2899775E-009  0.1222602E+03  0.7561462E-02  0.1239414E+00
         -1   -1    0    0    0  501 -0.00000000000E+00  0.00000000000E+00  0.36927639920E+02  0.36927639920E+02  0.00000000000E+00 0.  1.
          1   -1    0    0  501    0  0.00000000000E+00 -0.00000000000E+00 -0.41008588163E+03  0.41008588163E+03  0.00000000000E+00 0. -1.
         25    2    1    2    0    0  0.63989121028E+02 -0.36331642639E+00 -0.19402336290E+03  0.23955309231E+03  0.12508348841E+03 0.  0.
          5    1    3    3  502    0  0.74242839296E+02 -0.50009505669E+02 -0.12169402460E+03  0.15112861366E+03  0.41800000000E+01 0.  1.
         -5    1    3    3    0  502 -0.10253718269E+02  0.49646189242E+02 -0.72329338296E+02  0.88424478641E+02  0.41800000000E+01 0.  1.
        -11    1    1    2    0    0 -0.10708246309E+02  0.37563107252E+02 -0.56734424570E+02  0.68879957148E+02  0.00000000000E+00 0. -1.
         11    1    1    2    0    0 -0.53280874719E+02 -0.37199790826E+02 -0.12240045424E+03  0.13858047209E+03  0.00000000000E+00 0.  1.
</event>
<event>
 7    1  0.2899775E-009  0.1492786E+03  0.7561462E-02  0.1201362E+00
          2   -1    0    0  501    0  0.00000000000E+00  0.00000000000E+00  0.18353399911E+03  0.18353399911E+03  0.00000000000E+00 0. -1.
         -2   -1    0    0    0  501 -0.00000000000E+00 -0.00000000000E+00 -0.16472293832E+03  0.16472293832E+03  0.00000000000E+00 0.  1.
         25    2    1    2    0    0 -0.11455480185E+03  0.71856278719E+02  0.16805603179E+02  0.18497503057E+03  0.12508879334E+03 0.  0.
          5    1    3    3  502    0 -0.13682432146E+02  0.16975918461E+02 -0.48117330917E+02  0.52991892697E+02  0.41800000000E+01 0.  1.
         -5    1    3    3    0  502 -0.10087236970E+03  0.54880360258E+02  0.64922934096E+02  0.13198313787E+03  0.41800000000E+01 0.  1.
        -11    1    1    2    0    0  0.63475013323E+01 -0.50816952030E+02 -0.10702116954E+02  0.52318148802E+02  0.00000000000E+00 0.  1.
         11    1    1    2    0    0  0.10820730051E+03 -0.21039326689E+02  0.12707574564E+02  0.11096375806E+03  0.00000000000E+00 0. -1.
</event>
<event>
 7    1  0.2899775E-009  0.7988158E+02  0.7561462E-02  0.1329388E+00
         -1   -1    0    0    0  501 -0.00000000000E+00  0.00000000000E+00  0.11377176254E+02  0.11377176254E+02  0.00000000000E+00 0.  1.
          1   -1    0    0  501    0  0.00000000000E+00 -0.00000000000E+00 -0.84524586732E+03  0.84524586732E+03  0.00000000000E+00 0. -1.
         25    2    1    2    0    0  0.36767945669E+02 -0.41506998366E+02 -0.57918983538E+03  0.59513225563E+03  0.12508726369E+03 0.  0.
          5    1    3    3  502    0  0.16917809490E+02  0.25836907124E+02 -0.36895545908E+02  0.48296084267E+02  0.41800000000E+01 0. -1.
         -5    1    3    3    0  502  0.19850136179E+02 -0.67343905490E+02 -0.54229428947E+03  0.54683617136E+03  0.41800000000E+01 0. -1.
        -11    1    1    2    0    0 -0.25627531072E+02  0.15443184061E+02 -0.10639851722E+03  0.11052559319E+03  0.00000000000E+00 0.  1.
         11    1    1    2    0    0 -0.11140414596E+02  0.26063814305E+02 -0.14828033846E+03  0.15096519476E+03  0.00000000000E+00 0. -1.
</event>
<event>
 7    1  0.2899775E-009  0.2098739E+03  0.7561462E-02  0.1141666E+00
         -1   -1    0    0    0  501 -0.00000000000E+00  0.00000000000E+00  0.84582249742E+02  0.84582249742E+02  0.00000000000E+00 0.  1.
          1   -1    0    0  501    0  0.00000000000E+00 -0.00000000000E+00 -0.59243066199E+03  0.59243066199E+03  0.00000000000E+00 0. -1.
         25    2    1    2    0    0 -0.16392127825E+03 -0.10119114280E+03 -0.34053878337E+03  0.41076043722E+03  0.12509053108E+03 0.  0.
          5    1    3    3  502    0 -0.55994496416E+02 -0.10031367847E+03 -0.22455984680E+03  0.25227527607E+03  0.41800000000E+01 0.  1.
         -5    1    3    3    0  502 -0.10792678183E+03 -0.87746432758E+00 -0.11597893657E+03  0.15848516116E+03  0.41800000000E+01 0.  1.
        -11    1    1    2    0    0  0.60132265260E+02  0.15277240530E+02 -0.16863447594E+02  0.64293539864E+02  0.00000000000E+00 0.  1.
         11    1    1    2    0    0  0.10378901299E+03  0.85913902272E+02 -0.15044618129E+03  0.20195893465E+03  0.00000000000E+00 0. -1.
</event>
<event>
 7    1  0.2899775E-009  0.8070412E+02  0.7561462E-02  0.1327065E+00
          1   -1    0    0  501    0  0.00000000000E+00  0.00000000000E+00  0.16246343560E+03  0.16246343560E+03  0.00000000000E+00 0. -1.
         -1   -1    0    0    0  501 -0.00000000000E+00 -0.00000000000E+00 -0.36725540574E+03  0.36725540574E+03  0.00000000000E+00 0.  1.
         25    2    1    2    0    0 -0.51615906754E+02 -0.22322227323E+02 -0.33462914489E+03  0.36164451379E+03  0.12509039166E+03 0.  0.
          5    1    3    3  502    0 -0.58913507694E+02 -0.31133243278E+02 -0.69997261548E+02  0.96732462235E+02  0.41800000000E+01 0.  1.
         -5    1    3    3    0  502  0.72976009403E+01  0.88110159549E+01 -0.26463188334E+03  0.26491205156E+03  0.41800000000E+01 0.  1.
        -11    1    1    2    0    0  0.49047146672E+02  0.40805449820E+02  0.37788322243E+02  0.74152981259E+02  0.00000000000E+00 0.  1.
         11    1    1    2    0    0  0.25687600818E+01 -0.18483222497E+02  0.92048852504E+02  0.93921346293E+02  0.00000000000E+00 0. -1.
</event>
<event>
 7    1  0.2899775E-009  0.2414054E+03  0.7561462E-02  0.1118860E+00
         -1   -1    0    0    0  501 -0.00000000000E+00  0.00000000000E+00  0.39641637286E+03  0.39641637286E+03  0.00000000000E+00 0.  1.
          1   -1    0    0  501    0  0.00000000000E+00 -0.00000000000E+00 -0.20565729046E+03  0.20565729046E+03  0.00000000000E+00 0. -1.
         25    2    1    2    0    0 -0.21984172874E+03 -0.58832905451E+02  0.23848943458E+03  0.35258635787E+03  0.12509289706E+03 0.  0.
          5    1    3    3  502    0 -0.18348797617E+03 -0.83124154226E+02  0.23345532179E+03  0.30837691562E+03  0.41800000000E+01 0.  1.
         -5    1    3    3    0  502 -0.36353752568E+02  0.24291248775E+02  0.50341127889E+01  0.44209442254E+02  0.41800000000E+01 0.  1.
        -11    1    1    2    0    0  0.16647116658E+03  0.12861794381E+02 -0.48815012510E+01  0.16703863060E+03  0.00000000000E+00 0.  1.
         11    1    1    2    0    0  0.53370562153E+02  0.45971111070E+02 -0.42848850928E+02  0.82448674843E+02  0.00000000000E+00 0. -1.
</event>
<event>
 7    1  0.2899775E-009  0.2623750E+03  0.7561462E-02  0.1105725E+00
         -2   -1    0    0    0  501 -0.00000000000E+00  0.00000000000E+00  0.44318165525E+02  0.44318165525E+02  0.00000000000E+00 0.  1.
          2   -1    0    0  501    0  0.00000000000E+00 -0.00000000000E+00 -0.17805755132E+04  0.17805755132E+04  0.00000000000E+00 0. -1.
         25    2    1    2    0    0  0.22186026003E+03 -0.11116915060E+03 -0.11351006919E+04  0.11686243146E+04  0.12509457554E+03 0.  0.
          5    1    3    3  502    0  0.11226461220E+03 -0.25226275021E+01 -0.64718595740E+03  0.65686896917E+03  0.41800000000E+01 0. -1.
         -5    1    3    3    0  502  0.10959564783E+03 -0.10864652310E+03 -0.48791473449E+03  0.51175534539E+03  0.41800000000E+01 0. -1.
        -11    1    1    2    0    0 -0.91173910055E+02  0.80472145686E+01 -0.27921195129E+03  0.29383116458E+03  0.00000000000E+00 0.  1.
         11    1    1    2    0    0 -0.13068634998E+03  0.10312193603E+03 -0.32194470449E+03  0.36243819957E+03  0.00000000000E+00 0. -1.
</event>
<event>
 7    1  0.2899775E-009  0.3337360E+03  0.7561462E-02  0.1069496E+00
          2   -1    0    0  501    0  0.00000000000E+00  0.00000000000E+00  0.32692306690E+03  0.32692306690E+03  0.00000000000E+00 0.  1.
         -2   -1    0    0    0  501 -0.00000000000E+00 -0.00000000000E+00 -0.35263739774E+03  0.35263739774E+03  0.00000000000E+00 0. -1.
         25    2    1    2    0    0 -0.26783452133E+03  0.16825764384E+03 -0.70177337012E+02  0.34730219479E+03  0.12509192760E+03 0.  0.
          5    1    3    3  502    0 -0.22624074806E+03  0.77251085562E+02 -0.60825355527E+02  0.24671806293E+03  0.41800000000E+01 0. -1.
         -5    1    3    3    0  502 -0.41593773276E+02  0.91006558275E+02 -0.93519814849E+01  0.10058413186E+03  0.41800000000E+01 0. -1.
        -11    1    1    2    0    0  0.17768579928E+03 -0.15748346697E+03  0.20237422981E+02  0.23829149990E+03  0.00000000000E+00 0. -1.
         11    1    1    2    0    0  0.90148722050E+02 -0.10774176863E+02  0.24225583189E+02  0.93966769952E+02  0.00000000000E+00 0.  1.
</event>
<event>
 7    1  0.2899775E-009  0.9562959E+02  0.7561462E-02  0.1289764E+00
         -2   -1    0    0    0  501 -0.00000000000E+00  0.00000000000E+00  0.60372543997E+02  0.60372543997E+02  0.00000000000E+00 0.  1.
          2   -1    0    0  501    0  0.00000000000E+00 -0.00000000000E+00 -0.39194571301E+03  0.39194571301E+03  0.00000000000E+00 0. -1.
         25    2    1    2    0    0  0.40747027761E+02 -0.34130767573E+02 -0.29137199162E+03  0.32151341507E+03  0.12509200217E+03 0.  0.
          5    1    3    3  502    0  0.59074241879E+02 -0.72025877062E+02 -0.21110847391E+03  0.23078508006E+03  0.41800000000E+01 0. -1.
         -5    1    3    3    0  502 -0.18327214118E+02  0.37895109489E+02 -0.80263517707E+02  0.90728335019E+02  0.41800000000E+01 0. -1.
        -11    1    1    2    0    0 -0.12639353659E+02  0.21402063428E+02  0.38751042518E+02  0.46037429078E+02  0.00000000000E+00 0.  1.
         11    1    1    2    0    0 -0.28107674102E+02  0.12728704145E+02 -0.78952219913E+02  0.84767412853E+02  0.00000000000E+00 0. -1.
</event>
<event>
 7    1  0.2899775E-009  0.1995218E+03  0.7561462E-02  0.1150143E+00
          2   -1    0    0  501    0  0.00000000000E+00  0.00000000000E+00  0.86898258656E+02  0.86898258656E+02  0.00000000000E+00 0. -1.
         -2   -1    0    0    0  501 -0.00000000000E+00 -0.00000000000E+00 -0.56952510952E+03  0.56952510952E+03  0.00000000000E+00 0.  1.
         25    2    1    2    0    0 -0.12063133018E+03  0.12795973597E+03 -0.13048457451E+03  0.25218885868E+03  0.12508950558E+03 0.  0.
          5    1    3    3  502    0 -0.71008881613E+02 -0.33306411212E+01 -0.68120037683E+02  0.98545250379E+02  0.41800000000E+01 0. -1.
         -5    1    3    3    0  502 -0.49622448569E+02  0.13129037709E+03 -0.62364536827E+02  0.15364360830E+03  0.41800000000E+01 0. -1.
        -11    1    1    2    0    0  0.57577949774E+02 -0.10603648953E+03 -0.28530073656E+03  0.30976679566E+03  0.00000000000E+00 0.  1.
         11    1    1    2    0    0  0.63053380408E+02 -0.21923246441E+02 -0.66841539799E+02  0.94467713839E+02  0.00000000000E+00 0. -1.
</event>
<event>
 7    1  0.2899775E-009  0.1579119E+03  0.7561462E-02  0.1191075E+00
         -2   -1    0    0    0  501 -0.00000000000E+00  0.00000000000E+00  0.10670293802E+03  0.10670293802E+03  0.00000000000E+00 0.  1.
          2   -1    0    0  501    0  0.00000000000E+00 -0.00000000000E+00 -0.35043762347E+03  0.35043762347E+03  0.00000000000E+00 0. -1.
         25    2    1    2    0    0 -0.71578530996E+02 -0.12333793828E+03 -0.44290376942E+02  0.19479470602E+03  0.12509039486E+03 0.  0.
          5    1    3    3  502    0  0.10553266546E+01 -0.25204195733E+02  0.39218455972E+02  0.46817997455E+02  0.41800000000E+01 0. -1.
         -5    1    3    3    0  502 -0.72633857650E+02 -0.98133742547E+02 -0.83508832914E+02  0.14797670857E+03  0.41800000000E+01 0. -1.
        -11    1    1    2    0    0  0.79660666537E+02  0.49444370920E+02 -0.89408398422E+02  0.12955473483E+03  0.00000000000E+00 0.  1.
         11    1    1    2    0    0 -0.80821355413E+01  0.73893567361E+02 -0.11003591008E+03  0.13279112064E+03  0.00000000000E+00 0. -1.
</event>
<event>
 7    1  0.2899775E-009  0.1208043E+03  0.7561462E-02  0.1241776E+00
          3   -1    0    0  501    0  0.00000000000E+00  0.00000000000E+00  0.49033905708E+02  0.49033905708E+02  0.00000000000E+00 0. -1.
         -3   -1    0    0    0  501 -0.00000000000E+00 -0.00000000000E+00 -0.40098525732E+03  0.40098525732E+03  0.00000000000E+00 0.  1.
         25    2    1    2    0    0 -0.70076281632E+02 -0.46716217910E+02 -0.23841033760E+03  0.28209961484E+03  0.12509042073E+03 0.  0.
          5    1    3    3  502    0  0.13658103037E+02 -0.28909238999E+02 -0.16831986848E+03  0.17138068270E+03  0.41800000000E+01 0.  1.
         -5    1    3    3    0  502 -0.83734384669E+02 -0.17806978911E+02 -0.70090469124E+02  0.11071893215E+03  0.41800000000E+01 0.  1.
        -11    1    1    2    0    0  0.31438655618E+02 -0.26337164344E+02 -0.35201664847E+02  0.54048057326E+02  0.00000000000E+00 0. -1.
         11    1    1    2    0    0  0.38637626014E+02  0.73053382254E+02 -0.78339349168E+02  0.11387149086E+03  0.00000000000E+00 0.  1.
</event>
<event>
 7    1  0.2899775E-009  0.1229087E+03  0.7561462E-02  0.1238374E+00
          4   -1    0    0  501    0  0.00000000000E+00  0.00000000000E+00  0.72184797297E+02  0.72184797297E+02  0.00000000000E+00 0. -1.
         -4   -1    0    0    0  501 -0.00000000000E+00 -0.00000000000E+00 -0.38403631686E+03  0.38403631686E+03  0.00000000000E+00 0.  1.
         25    2    1    2    0    0 -0.25118977366E+02 -0.11559752736E+03 -0.22757582060E+03  0.28536364055E+03  0.12509157395E+03 0.  0.
          5    1    3    3  502    0 -0.18026688862E+02 -0.90710705557E+02 -0.23934775505E+03  0.25662855231E+03  0.41800000000E+01 0.  1.
         -5    1    3    3    0  502 -0.70922885034E+01 -0.24886821800E+02  0.11771934453E+02  0.28735088242E+02  0.41800000000E+01 0.  1.
        -11    1    1    2    0    0 -0.13242837107E+02  0.19678596387E+02 -0.60312203016E+02  0.64808808993E+02  0.00000000000E+00 0.  1.
         11    1    1    2    0    0  0.38361814472E+02  0.95918930970E+02 -0.23963495952E+02  0.10604866461E+03  0.00000000000E+00 0. -1.
</event>
<event>
 7    1  0.2899775E-009  0.1071851E+03  0.7561462E-02  0.1265873E+00
         -1   -1    0    0    0  501 -0.00000000000E+00  0.00000000000E+00  0.15648265353E+03  0.15648265353E+03  0.00000000000E+00 0.  1.
          1   -1    0    0  501    0  0.00000000000E+00 -0.00000000000E+00 -0.12571149699E+03  0.12571149699E+03  0.00000000000E+00 0. -1.
         25    2    1    2    0    0 -0.86843530395E+02 -0.94931290347E+01  0.31810473252E+02  0.15585551987E+03  0.12508844310E+03 0.  0.
          5    1    3    3  502    0 -0.15744025108E+02  0.24849291002E+02 -0.39467099793E+02  0.49401274842E+02  0.41800000000E+01 0.  1.
         -5    1    3    3    0  502 -0.71099505288E+02 -0.34342420036E+02  0.71277573045E+02  0.10645424503E+03  0.41800000000E+01 0.  1.
        -11    1    1    2    0    0  0.66705346808E+02  0.33176494708E+02  0.31902847162E+02  0.81043659536E+02  0.00000000000E+00 0. -1.
         11    1    1    2    0    0  0.20138183588E+02 -0.23683365673E+02 -0.32942163871E+02  0.45294971115E+02  0.00000000000E+00 0.  1.
</event>
<event>
 7    1  0.2899775E-009  0.1112515E+03  0.7561462E-02  0.1258270E+00
         -1   -1    0    0    0  501 -0.00000000000E+00  0.00000000000E+00  0.10130172968E+03  0.10130172968E+03  0.00000000000E+00 0.  1.
          1   -1    0    0  501    0  0.00000000000E+00 -0.00000000000E+00 -0.13863776329E+03  0.13863776329E+03  0.00000000000E+00 0. -1.
         25    2    1    2    0    0  0.56106230612E+01 -0.51946121683E+02 -0.26881802802E+02  0.13820337175E+03  0.12509061512E+03 0.  0.
          5    1    3    3  502    0  0.54779550689E+02 -0.38097708165E+01 -0.39955807892E+02  0.68038610448E+02  0.41800000000E+01 0. -1.
         -5    1    3    3    0  502 -0.49168927628E+02 -0.48136350866E+02  0.13074005090E+02  0.70164761297E+02  0.41800000000E+01 0. -1.
        -11    1    1    2    0    0  0.34626777495E+02  0.24573149607E+01 -0.14948455714E+02  0.37795614094E+02  0.00000000000E+00 0. -1.
         11    1    1    2    0    0 -0.40237400556E+02  0.49488806722E+02  0.44942249120E+01  0.63940507129E+02  0.00000000000E+00 0.  1.
</event>
<event>
 7    1  0.2899775E-009  0.7754549E+02  0.7561462E-02  0.1336165E+00
         -1   -1    0    0    0  501 -0.00000000000E+00  0.00000000000E+00  0.28484260523E+03  0.28484260523E+03  0.00000000000E+00 0.  1.
          1   -1    0    0  501    0  0.00000000000E+00 -0.00000000000E+00 -0.47537469329E+02  0.47537469329E+02  0.00000000000E+00 0. -1.
         25    2    1    2    0    0  0.11218791969E+02 -0.12255688970E+02  0.18650762835E+03  0.22518345773E+03  0.12508569460E+03 0.  0.
          5    1    3    3  502    0 -0.35367877891E+02 -0.79411038471E+01  0.39757770645E+01  0.36704592630E+02  0.41800000000E+01 0.  1.
         -5    1    3    3    0  502  0.46586669860E+02 -0.43145851233E+01  0.18253185129E+03  0.18847886510E+03  0.41800000000E+01 0.  1.
        -11    1    1    2    0    0 -0.27127884526E+02 -0.21302089642E+02  0.59753511139E+02  0.68994081162E+02  0.00000000000E+00 0.  1.
         11    1    1    2    0    0  0.15909092558E+02  0.33557778613E+02 -0.89560035901E+01  0.38202535672E+02  0.00000000000E+00 0. -1.
</event>
<event>
 7    1  0.2899775E-009  0.3816039E+03  0.7561462E-02  0.1050343E+00
          2   -1    0    0  501    0  0.00000000000E+00  0.00000000000E+00  0.21275512340E+04  0.21275512340E+04  0.00000000000E+00 0. -1.
         -2   -1    0    0    0  501 -0.00000000000E+00 -0.00000000000E+00 -0.10403139561E+03  0.10403139561E+03  0.00000000000E+00 0.  1.
         25    2    1    2    0    0  0.12664528263E+03  0.34225589747E+03  0.36688716969E+03  0.53238375867E+03  0.12509254275E+03 0.  0.
          5    1    3    3  502    0 -0.45873950843E+01  0.16294859409E+03  0.14231340470E+03  0.21643443827E+03  0.41800000000E+01 0.  1.
         -5    1    3    3    0  502  0.13123267771E+03  0.17930730338E+03  0.22457376499E+03  0.31594932041E+03  0.41800000000E+01 0.  1.
        -11    1    1    2    0    0  0.11590204645E+02 -0.85639887019E+02  0.36765959735E+03  0.37767989438E+03  0.00000000000E+00 0. -1.
         11    1    1    2    0    0 -0.13823548727E+03 -0.25661601045E+03  0.12889730714E+04  0.13215189766E+04  0.00000000000E+00 0.  1.
</event>
<event>
 7    1  0.2899775E-009  0.1488738E+03  0.7561462E-02  0.1201864E+00
          2   -1    0    0  501    0  0.00000000000E+00  0.00000000000E+00  0.13667200509E+03  0.13667200509E+03  0.00000000000E+00 0.  1.
         -2   -1    0    0    0  501 -0.00000000000E+00 -0.00000000000E+00 -0.23619417181E+03  0.23619417181E+03  0.00000000000E+00 0. -1.
         25    2    1    2    0    0 -0.59491037148E+02  0.11173184541E+03 -0.12151992479E+03  0.21549398745E+03  0.12508947888E+03 0.  0.
          5    1    3    3  502    0 -0.72601078822E+02  0.10183724789E+03 -0.14176311699E+03  0.18909255788E+03  0.41800000000E+01 0.  1.
         -5    1    3    3    0  502  0.13110041674E+02  0.98945975157E+01  0.20243192208E+02  0.26401429572E+02  0.41800000000E+01 0.  1.
        -11    1    1    2    0    0 -0.23517190896E+02 -0.37718817764E+02  0.95597100786E+01  0.45465982206E+02  0.00000000000E+00 0. -1.
         11    1    1    2    0    0  0.83008228044E+02 -0.74013027642E+02  0.12438047988E+02  0.11190620725E+03  0.00000000000E+00 0.  1.
</event>
<event>
 7    1  0.2899775E-009  0.1446394E+03  0.7561462E-02  0.1207219E+00
          2   -1    0    0  501    0  0.00000000000E+00  0.00000000000E+00  0.81403708312E+02  0.81403708312E+02  0.00000000000E+00 0. -1.
         -2   -1    0    0    0  501 -0.00000000000E+00 -0.00000000000E+00 -0.31419042775E+03  0.31419042775E+03  0.00000000000E+00 0.  1.
         25    2    1    2    0    0 -0.43177510718E+02  0.10929600341E+03 -0.10313272391E+03  0.20023408490E+03  0.12508963276E+03 0.  0.
          5    1    3    3  502    0 -0.99232174172E+01  0.13064617730E+03 -0.87076825873E+02  0.15737452110E+03  0.41800000000E+01 0. -1.
         -5    1    3    3    0  502 -0.33254293301E+02 -0.21350173887E+02 -0.16055898033E+02  0.42859563806E+02  0.41800000000E+01 0. -1.
        -11    1    1    2    0    0  0.10034146473E+02 -0.45117426347E+02  0.81932767673E+00  0.46227021897E+02  0.00000000000E+00 0. -1.
         11    1    1    2    0    0  0.33143364245E+02 -0.64178577064E+02 -0.13047332321E+03  0.14913302926E+03  0.00000000000E+00 0.  1.
</event>
<event>
 7    1  0.2899775E-009  0.7925965E+02  0.7561462E-02  0.1331166E+00
         -2   -1    0    0    0  501 -0.00000000000E+00  0.00000000000E+00  0.74439812428E+02  0.74439812428E+02  0.00000000000E+00 0. -1.
          2   -1    0    0  501    0  0.00000000000E+00 -0.00000000000E+00 -0.19361722059E+03  0.19361722059E+03  0.00000000000E+00 0.  1.
         25    2    1    2    0    0 -0.26276220618E+02  0.15661563753E+02 -0.20308917196E+02  0.13037063580E+03  0.12509327005E+03 0.  0.
          5    1    3    3  502    0 -0.19001531443E+02  0.36067612880E+02 -0.67108003716E+02  0.78631338910E+02  0.41800000000E+01 0. -1.
         -5    1    3    3    0  502 -0.72746891755E+01 -0.20406049127E+02  0.46799086520E+02  0.51739296890E+02  0.41800000000E+01 0. -1.
        -11    1    1    2    0    0  0.49532841149E+02 -0.38609575801E+02 -0.70505322123E+02  0.94420348143E+02  0.00000000000E+00 0. -1.
         11    1    1    2    0    0 -0.23256620531E+02  0.22948012049E+02 -0.28363168840E+02  0.43266049070E+02  0.00000000000E+00 0.  1.
</event>
<event>
 7    1  0.2975185E-009  0.8649150E+02  0.7561462E-02  0.1311578E+00
         -2   -1    0    0    0  501 -0.00000000000E+00  0.00000000000E+00  0.30980141899E+02  0.30980141899E+02  0.00000000000E+00 0.  1.
          2   -1    0    0  501    0  0.00000000000E+00 -0.00000000000E+00 -0.49180647262E+03  0.49180647262E+03  0.00000000000E+00 0. -1.
         25    2    1    2    0    0  0.14793688662E+02  0.45341685228E+02 -0.18453702820E+03  0.22798152669E+03  0.12508772958E+03 0.  0.
          5    1    3    3  502    0  0.47131030640E+02  0.51741108809E+02 -0.42236097573E+02  0.81852530371E+02  0.41800000000E+01 0.  1.
         -5    1    3    3    0  502 -0.32337341978E+02 -0.63994235801E+01 -0.14230093063E+03  0.14612899632E+03  0.41800000000E+01 0.  1.
        -11    1    1    2    0    0 -0.79922776170E+01 -0.56234114982E+02 -0.27618302367E+03  0.28196314431E+03  0.00000000000E+00 0. -1.
         11    1    1    2    0    0 -0.68014110448E+01  0.10892429753E+02 -0.10627885929E+00  0.12841943518E+02  0.00000000000E+00 0.  1.
</event>
<event>
 7    1  0.2899775E-009  0.8998095E+02  0.7561462E-02  0.1302898E+00
          1   -1    0    0  501    0  0.00000000000E+00  0.00000000000E+00  0.90302434917E+02  0.90302434917E+02  0.00000000000E+00 0. -1.
         -1   -1    0    0    0  501 -0.00000000000E+00 -0.00000000000E+00 -0.24250106824E+03  0.24250106824E+03  0.00000000000E+00 0.  1.
         25    2    1    2    0    0 -0.26297199134E+02 -0.10170349960E+02  0.25290716321E+02  0.13070076464E+03  0.12509232929E+03 0.  0.
          5    1    3    3  502    0 -0.48730920655E+02 -0.29142287205E+02 -0.32629107994E+02  0.65620931264E+02  0.41800000000E+01 0. -1.
         -5    1    3    3    0  502  0.22433721522E+02  0.18971937245E+02  0.57919824315E+02  0.65079833380E+02  0.41800000000E+01 0. -1.
        -11    1    1    2    0    0 -0.25339430615E+02 -0.21109297070E+02 -0.89590216114E+02  0.95467774615E+02  0.00000000000E+00 0.  1.
         11    1    1    2    0    0  0.51636629749E+02  0.31279647029E+02 -0.87899133532E+02  0.10663496390E+03  0.00000000000E+00 0. -1.
</event>
<event>
 7    1  0.2899775E-009  0.2260372E+03  0.7561462E-02  0.1129460E+00
          1   -1    0    0  501    0  0.00000000000E+00  0.00000000000E+00  0.88196020633E+02  0.88196020633E+02  0.00000000000E+00 0. -1.
         -1   -1    0    0    0  501 -0.00000000000E+00 -0.00000000000E+00 -0.65701200462E+03  0.65701200462E+03  0.00000000000E+00 0.  1.
         25    2    1    2    0    0 -0.17629572038E+03 -0.11468000214E+03 -0.37771003388E+03  0.45004847982E+03  0.12508829112E+03 0.  0.
          5    1    3    3  502    0 -0.79397526159E+02 -0.29723180545E+01 -0.60218207323E+02  0.99782296666E+02  0.41800000000E+01 0.  1.
         -5    1    3    3    0  502 -0.96898194223E+02 -0.11170768409E+03 -0.31749182656E+03  0.35026618315E+03  0.41800000000E+01 0.  1.
        -11    1    1    2    0    0  0.89704513086E+02  0.12392073774E+02 -0.68878113972E+02  0.11377459182E+03  0.00000000000E+00 0.  1.
         11    1    1    2    0    0  0.86591207296E+02  0.10228792837E+03 -0.12222783614E+03  0.18138495362E+03  0.00000000000E+00 0. -1.
</event>
<event>
 7    1  0.2899775E-009  0.1515641E+03  0.7561462E-02  0.1198564E+00
         -2   -1    0    0    0  501 -0.00000000000E+00  0.00000000000E+00  0.44260275217E+02  0.44260275217E+02  0.00000000000E+00 0. -1.
          2   -1    0    0  501    0  0.00000000000E+00 -0.00000000000E+00 -0.68639548098E+03  0.68639548098E+03  0.00000000000E+00 0.  1.
         25    2    1    2    0    0  0.10304711250E+03  0.74318134872E+02 -0.44715106241E+03  0.48138896931E+03  0.12509746039E+03 0.  0.
          5    1    3    3  502    0  0.42516303834E+02  0.90076642208E+02 -0.36308414584E+03  0.37652225289E+03  0.41800000000E+01 0. -1.
         -5    1    3    3    0  502  0.60530808663E+02 -0.15758507336E+02 -0.84066916569E+02  0.10486671642E+03  0.41800000000E+01 0. -1.
        -11    1    1    2    0    0 -0.30397088902E+02  0.75199572958E+01 -0.75271425095E+01  0.32205444350E+02  0.00000000000E+00 0. -1.
         11    1    1    2    0    0 -0.72650023595E+02 -0.81838092168E+02 -0.18745700085E+03  0.21706134254E+03  0.00000000000E+00 0.  1.
</event>
<event>
 7    1  0.2899775E-009  0.1524484E+03  0.7561462E-02  0.1197496E+00
          2   -1    0    0  501    0  0.00000000000E+00  0.00000000000E+00  0.90902455813E+03  0.90902455813E+03  0.00000000000E+00 0. -1.
         -2   -1    0    0    0  501 -0.00000000000E+00 -0.00000000000E+00 -0.42451927436E+02  0.42451927436E+02  0.00000000000E+00 0.  1.
         25    2    1    2    0    0 -0.10739597778E+03 -0.88663390475E+01  0.75113117257E+03  0.76906293543E+03  0.12508897727E+03 0.  0.
          5    1    3    3  502    0 -0.67943560588E+02  0.55682824682E+02  0.45275351918E+03  0.46121592114E+03  0.41800000000E+01 0.  1.
         -5    1    3    3    0  502 -0.39452417187E+02 -0.64549163729E+02  0.29837765339E+03  0.30784701429E+03  0.41800000000E+01 0.  1.
        -11    1    1    2    0    0  0.56719146742E+02  0.50235231590E+02  0.59475928671E+02  0.96322511342E+02  0.00000000000E+00 0. -1.
         11    1    1    2    0    0  0.50676831033E+02 -0.41368892543E+02  0.55965529458E+02  0.86091038798E+02  0.00000000000E+00 0.  1.
</event>
<event>
 7    1  0.2899775E-009  0.9712736E+02  0.7561462E-02  0.1286455E+00
          2   -1    0    0  501    0  0.00000000000E+00  0.00000000000E+00  0.25085607911E+03  0.25085607911E+03  0.00000000000E+00 0. -1.
         -2   -1    0    0    0  501 -0.00000000000E+00 -0.00000000000E+00 -0.57445766940E+02  0.57445766940E+02  0.00000000000E+00 0.  1.
         25    2    1    2    0    0 -0.38968598762E+02  0.30387714909E+02  0.13229615518E+03  0.18865616893E+03  0.12508761927E+03 0.  0.
          5    1    3    3  502    0  0.19621859097E+02 -0.10404404132E+02 -0.13457774102E+02  0.26303099885E+02  0.41800000000E+01 0.  1.
         -5    1    3    3    0  502 -0.58590457859E+02  0.40792119041E+02  0.14575392928E+03  0.16235306905E+03  0.41800000000E+01 0.  1.
        -11    1    1    2    0    0  0.37947238182E+02 -0.59738568810E+02  0.55040219767E+02  0.89655536812E+02  0.00000000000E+00 0.  1.
         11    1    1    2    0    0  0.10213605801E+01  0.29350853900E+02  0.60739372210E+01  0.29990140305E+02  0.00000000000E+00 0. -1.
</event>
<event>
 7    1  0.2899775E-009  0.1202605E+03  0.7561462E-02  0.1242668E+00
          2   -1    0    0  501    0  0.00000000000E+00  0.00000000000E+00  0.69373944793E+03  0.69373944793E+03  0.00000000000E+00 0. -1.
         -2   -1    0    0    0  501 -0.00000000000E+00 -0.00000000000E+00 -0.55275326679E+02  0.55275326679E+02  0.00000000000E+00 0.  1.
         25    2    1    2    0    0  0.51241165949E+02  0.10446225354E+03  0.55095260278E+03  0.57683106222E+03  0.12508910553E+03 0.  0.
          5    1    3    3  502    0  0.28371954903E+02  0.30805600287E+02  0.43786822094E+03  0.43988635367E+03  0.41800000000E+01 0.  1.
         -5    1    3    3    0  502  0.22869211046E+02  0.73656653256E+02  0.11308438184E+03  0.13694470855E+03  0.41800000000E+01 0.  1.
        -11    1    1    2    0    0 -0.75554007510E+01 -0.53670895313E+02  0.90093009303E+02  0.10513990398E+03  0.00000000000E+00 0. -1.
         11    1    1    2    0    0 -0.43685765198E+02 -0.50791358229E+02 -0.25814908309E+01  0.67043808414E+02  0.00000000000E+00 0.  1.
</event>
<event>
 7    1  0.2899775E-009  0.8157665E+02  0.7561462E-02  0.1324636E+00
         -3   -1    0    0    0  501 -0.00000000000E+00  0.00000000000E+00  0.15299108372E+03  0.15299108372E+03  0.00000000000E+00 0.  1.
          3   -1    0    0  501    0  0.00000000000E+00 -0.00000000000E+00 -0.70434794424E+02  0.70434794424E+02  0.00000000000E+00 0. -1.
         25    2    1    2    0    0  0.14889785400E+02  0.25195209208E+02  0.75223608443E+02  0.14886178774E+03  0.12507892031E+03 0.  0.
          5    1    3    3  502    0  0.53172187232E+02  0.21896291201E+02 -0.69293394623E+01  0.58070794801E+02  0.41800000000E+01 0.  1.
         -5    1    3    3    0  502 -0.38282401832E+02  0.32989180063E+01  0.82152947906E+02  0.90790992943E+02  0.41800000000E+01 0.  1.
        -11    1    1    2    0    0  0.23468382329E+02 -0.11320322397E+02 -0.12851479936E+02  0.29052972392E+02  0.00000000000E+00 0. -1.
         11    1    1    2    0    0 -0.38358167729E+02 -0.13874886811E+02  0.20184160789E+02  0.45511118008E+02  0.00000000000E+00 0.  1.
</event>
<event>
 7    1  0.2899775E-009  0.9337882E+02  0.7561462E-02  0.1294870E+00
          3   -1    0    0  501    0  0.00000000000E+00  0.00000000000E+00  0.38862650891E+02  0.38862650891E+02  0.00000000000E+00 0. -1.
         -3   -1    0    0    0  501 -0.00000000000E+00 -0.00000000000E+00 -0.31941452941E+03  0.31941452941E+03  0.00000000000E+00 0.  1.
         25    2    1    2    0    0  0.60590859139E+01  0.21465965553E+02 -0.19104664588E+03  0.22944382284E+03  0.12509255269E+03 0.  0.
          5    1    3    3  502    0 -0.12722518540E+02 -0.33382395766E+02 -0.15910534630E+03  0.16312029441E+03  0.41800000000E+01 0. -1.
         -5    1    3    3    0  502  0.18781604454E+02  0.54848361319E+02 -0.31941299572E+02  0.66323528431E+02  0.41800000000E+01 0. -1.
        -11    1    1    2    0    0 -0.17092139835E+02  0.32961456842E+02 -0.36202122444E+02  0.51857425222E+02  0.00000000000E+00 0.  1.
         11    1    1    2    0    0  0.11033053921E+02 -0.54427422394E+02 -0.53303110198E+02  0.76975932239E+02  0.00000000000E+00 0. -1.
</event>
<event>
 7    1  0.2899775E-009  0.5548237E+02  0.7561462E-02  0.1417831E+00
          2   -1    0    0  501    0  0.00000000000E+00  0.00000000000E+00  0.82464814680E+02  0.82464814680E+02  0.00000000000E+00 0. -1.
         -2   -1    0    0    0  501 -0.00000000000E+00 -0.00000000000E+00 -0.18775202253E+03  0.18775202253E+03  0.00000000000E+00 0.  1.
         25    2    1    2    0    0 -0.26448895408E+02  0.17243812382E+02 -0.10575203711E+03  0.16681776409E+03  0.12509108653E+03 0.  0.
          5    1    3    3  502    0 -0.11419767153E+02 -0.62249810642E+01  0.27453087381E+02  0.30664407345E+02  0.41800000000E+01 0.  1.
         -5    1    3    3    0  502 -0.15029128254E+02  0.23468793446E+02 -0.13320512449E+03  0.13615335674E+03  0.41800000000E+01 0.  1.
        -11    1    1    2    0    0  0.29166666728E+02  0.17671256526E+02 -0.38216385738E+02  0.51219721730E+02  0.00000000000E+00 0.  1.
         11    1    1    2    0    0 -0.27177713208E+01 -0.34915068908E+02  0.38681214998E+02  0.52179351390E+02  0.00000000000E+00 0. -1.
</event>
<event>
 7    1  0.2899775E-009  0.3580654E+03  0.7561462E-02  0.1059353E+00
          2   -1    0    0  501    0  0.00000000000E+00  0.00000000000E+00  0.50455521325E+03  0.50455521325E+03  0.00000000000E+00 0. -1.
         -2   -1    0    0    0  501 -0.00000000000E+00 -0.00000000000E+00 -0.27417424521E+03  0.27417424521E+03  0.00000000000E+00 0.  1.
         25    2    1    2    0    0  0.35376640848E+03  0.21754909154E+02  0.87433480000E+02  0.38589460222E+03  0.12508430261E+03 0.  0.
          5    1    3    3  502    0  0.16096546049E+03  0.14239649508E+02 -0.23412032895E+02  0.16333475678E+03  0.41800000000E+01 0.  1.
         -5    1    3    3    0  502  0.19280094798E+03  0.75152596463E+01  0.11084551290E+03  0.22255984543E+03  0.41800000000E+01 0.  1.
        -11    1    1    2    0    0 -0.71204686849E+02  0.24222747552E+02  0.58979878837E+01  0.75442926702E+02  0.00000000000E+00 0.  1.
         11    1    1    2    0    0 -0.28256172163E+03 -0.45977656706E+02  0.13704950015E+03  0.31739192954E+03  0.00000000000E+00 0. -1.
</event>
<event>
 7    1  0.2899775E-009  0.1974042E+03  0.7561462E-02  0.1151948E+00
         -2   -1    0    0    0  501 -0.00000000000E+00  0.00000000000E+00  0.57848936172E+02  0.57848936172E+02  0.00000000000E+00 0.  1.
          2   -1    0    0  501    0  0.00000000000E+00 -0.00000000000E+00 -0.70884109051E+03  0.70884109051E+03  0.00000000000E+00 0. -1.
         25    2    1    2    0    0 -0.14805911699E+03  0.80716970137E+02 -0.38563146633E+03  0.43909151742E+03  0.12511195567E+03 0.  0.
          5    1    3    3  502    0  0.17402179203E+02  0.18897812477E+02 -0.99142737448E+02  0.10250228264E+03  0.41800000000E+01 0.  1.
         -5    1    3    3    0  502 -0.16546129620E+03  0.61819157661E+02 -0.28648872889E+03  0.33658923478E+03  0.41800000000E+01 0.  1.
        -11    1    1    2    0    0  0.13533637314E+03 -0.28435347293E+02 -0.18980523716E+03  0.23484150171E+03  0.00000000000E+00 0.  1.
         11    1    1    2    0    0  0.12722743855E+02 -0.52281622844E+02 -0.75555450842E+02  0.92757007554E+02  0.00000000000E+00 0. -1.
</event>
<event>
 7    1  0.2899775E-009  0.3134775E+03  0.7561462E-02  0.1078691E+00
         -2   -1    0    0    0  501 -0.00000000000E+00  0.00000000000E+00  0.14355059959E+03  0.14355059959E+03  0.00000000000E+00 0.  1.
          2   -1    0    0  501    0  0.00000000000E+00 -0.00000000000E+00 -0.11049231998E+04  0.11049231998E+04  0.00000000000E+00 0. -1.
         25    2    1    2    0    0  0.30904481479E+03  0.27912418415E+02 -0.83752644585E+03  0.90187923459E+03  0.12509118932E+03 0.  0.
          5    1    3    3  502    0  0.20869312184E+03  0.10695429764E+02 -0.70112673941E+03  0.73161696839E+03  0.41800000000E+01 0.  1.
         -5    1    3    3    0  502  0.10035169295E+03  0.17216988651E+02 -0.13639970644E+03  0.17026226620E+03  0.41800000000E+01 0.  1.
        -11    1    1    2    0    0 -0.21117256709E+03 -0.46967612739E+02 -0.11868581622E+03  0.24675115544E+03  0.00000000000E+00 0. -1.
         11    1    1    2    0    0 -0.97872247704E+02  0.19055194324E+02 -0.51603381335E+01  0.99843409351E+02  0.00000000000E+00 0.  1.
</event>
<event>
 7    1  0.2899775E-009  0.1194495E+03  0.7561462E-02  0.1244008E+00
          4   -1    0    0  501    0  0.00000000000E+00  0.00000000000E+00  0.20034600341E+03  0.20034600341E+03  0.00000000000E+00 0. -1.
         -4   -1    0    0    0  501 -0.00000000000E+00 -0.00000000000E+00 -0.89725536935E+02  0.89725536935E+02  0.00000000000E+00 0.  1.
         25    2    1    2    0    0 -0.41926744028E+02 -0.57800961491E+02  0.23780177513E+02  0.14598639595E+03  0.12509087875E+03 0.  0.
          5    1    3    3  502    0 -0.66553701581E+02 -0.79919088069E+02  0.36469921059E+02  0.11029045006E+03  0.41800000000E+01 0.  1.
         -5    1    3    3    0  502  0.24626957553E+02  0.22118126579E+02 -0.12689743546E+02  0.35695945889E+02  0.41800000000E+01 0.  1.
        -11    1    1    2    0    0  0.25440559155E+02 -0.13128591089E+02  0.59992725129E+02  0.66473370777E+02  0.00000000000E+00 0. -1.
         11    1    1    2    0    0  0.16486184873E+02  0.70929552580E+02  0.26847563836E+02  0.77611773623E+02  0.00000000000E+00 0.  1.
</event>
<event>
 7    1  0.2899775E-009  0.1564629E+03  0.7561462E-02  0.1192749E+00
          1   -1    0    0  501    0  0.00000000000E+00  0.00000000000E+00  0.19096033054E+03  0.19096033054E+03  0.00000000000E+00 0. -1.
         -1   -1    0    0    0  501 -0.00000000000E+00 -0.00000000000E+00 -0.16354354488E+03  0.16354354488E+03  0.00000000000E+00 0.  1.
         25    2    1    2    0    0 -0.13180288210E+03  0.61468641081E+01  0.61355784466E+02  0.19189052019E+03  0.12509059031E+03 0.  0.
          5    1    3    3  502    0 -0.14197348348E+03  0.20854318953E+02  0.17844225246E+02  0.14466257776E+03  0.41800000000E+01 0.  1.
         -5    1    3    3    0  502  0.10170601380E+02 -0.14707454845E+02  0.43511559221E+02  0.47227942431E+02  0.41800000000E+01 0.  1.
        -11    1    1    2    0    0  0.71945283969E+02  0.33340785039E+02 -0.43215311452E+02  0.90306671826E+02  0.00000000000E+00 0.  1.
         11    1    1    2    0    0  0.59857598126E+02 -0.39487649147E+02  0.92763126392E+01  0.72306683404E+02  0.00000000000E+00 0. -1.
</event>
<event>
 7    1  0.2899775E-009  0.8985112E+02  0.7561462E-02  0.1303213E+00
          1   -1    0    0  501    0  0.00000000000E+00  0.00000000000E+00  0.13675728609E+04  0.13675728609E+04  0.00000000000E+00 0. -1.
         -1   -1    0    0    0  501 -0.00000000000E+00 -0.00000000000E+00 -0.10652320374E+02  0.10652320374E+02  0.00000000000E+00 0.  1.
         25    2    1    2    0    0  0.16990533867E+02 -0.42586687987E+02  0.89437502269E+03  0.90424368414E+03  0.12509058661E+03 0.  0.
          5    1    3    3  502    0  0.16231301767E+02 -0.58090674594E+02  0.88170461520E+03  0.88377513118E+03  0.41800000000E+01 0. -1.
         -5    1    3    3    0  502  0.75923210009E+00  0.15503986607E+02  0.12670407486E+02  0.20468552952E+02  0.41800000000E+01 0. -1.
        -11    1    1    2    0    0 -0.54363835036E+02  0.14067092133E+02  0.27028346732E+03  0.27605517990E+03  0.00000000000E+00 0.  1.
         11    1    1    2    0    0  0.37373301170E+02  0.28519595855E+02  0.19226205056E+03  0.19792631729E+03  0.00000000000E+00 0. -1.
</event>
<event>
 7    1  0.2899775E-009  0.6932176E+02  0.7561462E-02  0.1362415E+00
          2   -1    0    0  501    0  0.00000000000E+00  0.00000000000E+00  0.22356135370E+03  0.22356135370E+03  0.00000000000E+00 0. -1.
         -2   -1    0    0    0  501 -0.00000000000E+00 -0.00000000000E+00 -0.56405544407E+02  0.56405544407E+02  0.00000000000E+00 0.  1.
         25    2    1    2    0    0  0.15742431289E+02  0.15145229041E+02  0.12853723277E+03  0.18068521376E+03  0.12509246244E+03 0.  0.
          5    1    3    3  502    0  0.21984720940E+02  0.28974369443E+02 -0.12566147069E+02  0.38706879125E+02  0.41800000000E+01 0. -1.
         -5    1    3    3    0  502 -0.62422896501E+01 -0.13829140402E+02  0.14110337984E+03  0.14197833464E+03  0.41800000000E+01 0. -1.
        -11    1    1    2    0    0  0.26287101714E+02  0.18760073612E+02  0.30965429608E+02  0.44741590374E+02  0.00000000000E+00 0. -1.
         11    1    1    2    0    0 -0.42029533003E+02 -0.33905302653E+02  0.76531469127E+01  0.54540093969E+02  0.00000000000E+00 0.  1.
</event>
<event>
 7    1  0.3830677E-009  0.1027369E+03  0.7561462E-02  0.1274644E+00
          2   -1    0    0  501    0  0.00000000000E+00  0.00000000000E+00  0.17550277907E+03  0.17550277907E+03  0.00000000000E+00 0. -1.
         -2   -1    0    0    0  501 -0.00000000000E+00 -0.00000000000E+00 -0.12302620714E+03  0.12302620714E+03  0.00000000000E+00 0.  1.
         25    2    1    2    0    0 -0.12793096752E+02 -0.68784415103E+02  0.99481399568E+02  0.17446951341E+03  0.12509237853E+03 0.  0.
          5    1    3    3  502    0  0.39263855446E+02 -0.45128020302E+02  0.36391952333E+00  0.59964934739E+02  0.41800000000E+01 0. -1.
         -5    1    3    3    0  502 -0.52056952198E+02 -0.23656394802E+02  0.99117480045E+02  0.11450457868E+03  0.41800000000E+01 0. -1.
        -11    1    1    2    0    0  0.33978284283E+02  0.43120502612E+02 -0.65915625875E+02  0.85783280905E+02  0.00000000000E+00 0.  1.
         11    1    1    2    0    0 -0.21185187531E+02  0.25663912491E+02  0.18910798238E+02  0.38276191883E+02  0.00000000000E+00 0. -1.
</event>
<event>
 7    1  0.2899775E-009  0.1643693E+03  0.7561462E-02  0.1183850E+00
         -2   -1    0    0    0  501 -0.00000000000E+00  0.00000000000E+00  0.17672101595E+02  0.17672101595E+02  0.00000000000E+00 0. -1.
          2   -1    0    0  501    0  0.00000000000E+00 -0.00000000000E+00 -0.23183062935E+04  0.23183062935E+04  0.00000000000E+00 0.  1.
         25    2    1    2    0    0 -0.12830379286E+03 -0.82275602053E+02 -0.16306707666E+04  0.16425484425E+04  0.12508836513E+03 0.  0.
          5    1    3    3  502    0 -0.96748057063E+02 -0.55665203732E+02 -0.15240828359E+04  0.15281703978E+04  0.41800000000E+01 0. -1.
         -5    1    3    3    0  502 -0.31555735801E+02 -0.26610398321E+02 -0.10658793069E+03  0.11437804479E+03  0.41800000000E+01 0. -1.
        -11    1    1    2    0    0 -0.19401646710E+01 -0.13655256355E+02 -0.25669973193E+02  0.29140655256E+02  0.00000000000E+00 0. -1.
         11    1    1    2    0    0  0.13024395753E+03  0.95930858407E+02 -0.64429345209E+03  0.66428929728E+03  0.00000000000E+00 0.  1.
</event>
<event>
 7    1  0.2899775E-009  0.2950251E+03  0.7561462E-02  0.1087754E+00
          1   -1    0    0  501    0  0.00000000000E+00  0.00000000000E+00  0.10536762401E+03  0.10536762401E+03  0.00000000000E+00 0. -1.
         -1   -1    0    0    0  501 -0.00000000000E+00 -0.00000000000E+00 -0.90532636190E+03  0.90532636190E+03  0.00000000000E+00 0.  1.
         25    2    1    2    0    0  0.28263630076E+03 -0.59768215999E+02 -0.41898723755E+03  0.52407427856E+03  0.12509207035E+03 0.  0.
          5    1    3    3  502    0  0.21532062557E+03 -0.14335557497E+02 -0.37220199730E+03  0.43025606236E+03  0.41800000000E+01 0. -1.
         -5    1    3    3    0  502  0.67315675187E+02 -0.45432658502E+02 -0.46785240250E+02  0.93818216194E+02  0.41800000000E+01 0. -1.
        -11    1    1    2    0    0 -0.13715763920E+03  0.43844647469E+01 -0.11778564058E+03  0.18084495749E+03  0.00000000000E+00 0. -1.
         11    1    1    2    0    0 -0.14547866156E+03  0.55383751252E+02 -0.26318585977E+03  0.30577474987E+03  0.00000000000E+00 0.  1.
</event>
<event>
 7    1  0.2899775E-009  0.3487412E+03  0.7561462E-02  0.1063133E+00
          1   -1    0    0  501    0  0.00000000000E+00  0.00000000000E+00  0.11476608343E+03  0.11476608343E+03  0.00000000000E+00 0. -1.
         -1   -1    0    0    0  501 -0.00000000000E+00 -0.00000000000E+00 -0.16236402140E+04  0.16236402140E+04  0.00000000000E+00 0.  1.
         25    2    1    2    0    0  0.23425160889E+03 -0.25553471225E+03 -0.12308532264E+04  0.12848420775E+04  0.12509074212E+03 0.  0.
          5    1    3    3  502    0  0.15131535901E+03 -0.12961245780E+03 -0.89108135001E+03  0.91309318902E+03  0.41800000000E+01 0.  1.
         -5    1    3    3    0  502  0.82936249877E+02 -0.12592225445E+03 -0.33977187638E+03  0.37174888849E+03  0.41800000000E+01 0.  1.
        -11    1    1    2    0    0 -0.93365421294E+02  0.86098254287E+02 -0.15774722427E+03  0.20251962386E+03  0.00000000000E+00 0.  1.
         11    1    1    2    0    0 -0.14088618759E+03  0.16943645796E+03 -0.12027367993E+03  0.25104459609E+03  0.00000000000E+00 0. -1.
</event>
<event>
 7    1  0.2899775E-009  0.9996977E+02  0.7561462E-02  0.1280360E+00
          1   -1    0    0  501    0  0.00000000000E+00  0.00000000000E+00  0.29993715099E+03  0.29993715099E+03  0.00000000000E+00 0. -1.
         -1   -1    0    0    0  501 -0.00000000000E+00 -0.00000000000E+00 -0.53283140571E+02  0.53283140571E+02  0.00000000000E+00 0.  1.
         25    2    1    2    0    0  0.66207660958E+01  0.48163060076E+02  0.81670398752E+02  0.15710419884E+03  0.12509260714E+03 0.  0.
          5    1    3    3  502    0 -0.54300174797E+02  0.34610179836E+02  0.66664492684E+02  0.92779310819E+02  0.41800000000E+01 0. -1.
         -5    1    3    3    0  502  0.60920940893E+02  0.13552880240E+02  0.15005906068E+02  0.64324888021E+02  0.41800000000E+01 0.  1.
        -11    1    1    2    0    0 -0.30288400850E+02 -0.32796524822E+02  0.16165001786E+03  0.16770130452E+03  0.00000000000E+00 0. -1.
         11    1    1    2    0    0  0.23667634755E+02 -0.15366535254E+02  0.33335938126E+01  0.28414788197E+02  0.00000000000E+00 0.  1.
</event>
<event>
 7    1  0.3410905E-009  0.2246575E+03  0.7561462E-02  0.1130458E+00
         -2   -1    0    0    0  501 -0.00000000000E+00  0.00000000000E+00  0.33187902565E+02  0.33187902565E+02  0.00000000000E+00 0.  1.
          2   -1    0    0  501    0  0.00000000000E+00 -0.00000000000E+00 -0.19253928768E+04  0.19253928768E+04  0.00000000000E+00 0. -1.
         25    2    1    2    0    0  0.17657723955E+03 -0.12121974872E+03 -0.12765169658E+04  0.13003945888E+04  0.12512702933E+03 0.  0.
          5    1    3    3  502    0 -0.21624591927E+01 -0.35315531421E+02 -0.80373002113E+02  0.87915612140E+02  0.41800000000E+01 0. -1.
         -5    1    3    3    0  502  0.17873969874E+03 -0.85904217302E+02 -0.11961439637E+04  0.12124789767E+04  0.41800000000E+01 0. -1.
        -11    1    1    2    0    0 -0.73079184139E+02  0.63579877472E+02 -0.40552902656E+03  0.41693735664E+03  0.00000000000E+00 0. -1.
         11    1    1    2    0    0 -0.10349805541E+03  0.57639871251E+02 -0.21015898181E+03  0.24124883392E+03  0.00000000000E+00 0.  1.
</event>
<event>
 7    1  0.2899775E-009  0.6631592E+02  0.7561462E-02  0.1373089E+00
          1   -1    0    0  501    0  0.00000000000E+00  0.00000000000E+00  0.42230906726E+03  0.42230906726E+03  0.00000000000E+00 0. -1.
         -1   -1    0    0    0  501 -0.00000000000E+00 -0.00000000000E+00 -0.44174254720E+02  0.44174254720E+02  0.00000000000E+00 0.  1.
         25    2    1    2    0    0  0.12864586857E+02  0.24241306525E+02  0.34978613759E+03  0.37249328111E+03  0.12509102239E+03 0.  0.
          5    1    3    3  502    0  0.21125387298E+02 -0.21520494614E+02  0.30900655609E+03  0.31050271784E+03  0.41800000000E+01 0. -1.
         -5    1    3    3    0  502 -0.82608004410E+01  0.45761801139E+02  0.40779581500E+02  0.61990563271E+02  0.41800000000E+01 0. -1.
        -11    1    1    2    0    0 -0.91234399042E+01 -0.39113048921E+02 -0.18847155776E+02  0.44365335933E+02  0.00000000000E+00 0.  1.
         11    1    1    2    0    0 -0.37411469529E+01  0.14871742396E+02  0.47195830719E+02  0.49624704933E+02  0.00000000000E+00 0. -1.
</event>
<event>
 7    1  0.2899775E-009  0.2898826E+03  0.7561462E-02  0.1090410E+00
          2   -1    0    0  501    0  0.00000000000E+00  0.00000000000E+00  0.54854135572E+03  0.54854135572E+03  0.00000000000E+00 0.  1.
         -2   -1    0    0    0  501 -0.00000000000E+00 -0.00000000000E+00 -0.17065606142E+03  0.17065606142E+03  0.00000000000E+00 0. -1.
         25    2    1    2    0    0 -0.23730098274E+03 -0.15397912543E+03  0.14658005778E+03  0.34227970623E+03  0.12509339106E+03 0.  0.
          5    1    3    3  502    0 -0.16199950919E+03 -0.68989487297E+02  0.28518411450E+02  0.17842130626E+03  0.41800000000E+01 0.  1.
         -5    1    3    3    0  502 -0.75301473543E+02 -0.84989638129E+02  0.11806164633E+03  0.16385839997E+03  0.41800000000E+01 0.  1.
        -11    1    1    2    0    0  0.53567562690E+02  0.69602832467E+02  0.33308232871E+02  0.93933361682E+02  0.00000000000E+00 0. -1.
         11    1    1    2    0    0  0.18373342005E+03  0.84376292960E+02  0.19799700364E+03  0.28298434922E+03  0.00000000000E+00 0.  1.
</event>
<event>
 7    1  0.2899775E-009  0.1066735E+03  0.7561462E-02  0.1266857E+00
          1   -1    0    0  501    0  0.00000000000E+00  0.00000000000E+00  0.67936559178E+02  0.67936559178E+02  0.00000000000E+00 0. -1.
         -1   -1    0    0    0  501 -0.00000000000E+00 -0.00000000000E+00 -0.20815179758E+03  0.20815179758E+03  0.00000000000E+00 0.  1.
         25    2    1    2    0    0 -0.31874495566E+02 -0.31524345958E+02 -0.10514865085E+03  0.16945113694E+03  0.12509069181E+03 0.  0.
          5    1    3    3  502    0  0.40173593429E+02 -0.55294405942E+01 -0.78125246341E+02  0.88122181306E+02  0.41800000000E+01 0.  1.
         -5    1    3    3    0  502 -0.72048088995E+02 -0.25994905364E+02 -0.27023404514E+02  0.81328955632E+02  0.41800000000E+01 0.  1.
        -11    1    1    2    0    0 -0.29278772729E+02  0.12415360319E+02 -0.27647279944E+02  0.42139764981E+02  0.00000000000E+00 0.  1.
         11    1    1    2    0    0  0.61153268295E+02  0.19108985639E+02 -0.74193076031E+01  0.64497454838E+02  0.00000000000E+00 0. -1.
</event>
<event>
 7    1  0.2899775E-009  0.2354878E+03  0.7561462E-02  0.1122836E+00
          2   -1    0    0  501    0  0.00000000000E+00  0.00000000000E+00  0.55249361211E+02  0.55249361211E+02  0.00000000000E+00 0. -1.
         -2   -1    0    0    0  501 -0.00000000000E+00 -0.00000000000E+00 -0.11302893816E+04  0.11302893816E+04  0.00000000000E+00 0.  1.
         25    2    1    2    0    0  0.14898145528E+03  0.15988633195E+03 -0.45356891796E+03  0.51877837949E+03  0.12508849080E+03 0.  0.
          5    1    3    3  502    0  0.25450615583E+02 -0.19677572916E+02 -0.78869114150E+02  0.85280421412E+02  0.41800000000E+01 0.  1.
         -5    1    3    3    0  502  0.12353083970E+03  0.17956390486E+03 -0.37469980381E+03  0.43349795808E+03  0.41800000000E+01 0.  1.
        -11    1    1    2    0    0 -0.11135309947E+03 -0.99168339878E+02 -0.53071774491E+03  0.55126690193E+03  0.00000000000E+00 0.  1.
         11    1    1    2    0    0 -0.37628355811E+02 -0.60717992069E+02 -0.90753357493E+02  0.11549346137E+03  0.00000000000E+00 0. -1.
</event>
<event>
 7    1  0.2899775E-009  0.1840659E+03  0.7561462E-02  0.1163925E+00
          1   -1    0    0  501    0  0.00000000000E+00  0.00000000000E+00  0.10717322063E+03  0.10717322063E+03  0.00000000000E+00 0. -1.
         -1   -1    0    0    0  501 -0.00000000000E+00 -0.00000000000E+00 -0.38475623450E+03  0.38475623450E+03  0.00000000000E+00 0.  1.
         25    2    1    2    0    0 -0.14043636819E+02  0.16151499785E+03 -0.15172230413E+03  0.25485834965E+03  0.12509517396E+03 0.  0.
          5    1    3    3  502    0  0.40573681770E+02  0.55719177058E+02 -0.10095807006E+02  0.69787162598E+02  0.41800000000E+01 0.  1.
         -5    1    3    3    0  502 -0.54617318590E+02  0.10579582080E+03 -0.14162649712E+03  0.18507118705E+03  0.41800000000E+01 0.  1.
        -11    1    1    2    0    0  0.13728172179E+02  0.41004056256E+01  0.14199297621E+02  0.20171665539E+02  0.00000000000E+00 0. -1.
         11    1    1    2    0    0  0.31546464001E+00 -0.16561540348E+03 -0.14006000736E+03  0.21689943995E+03  0.00000000000E+00 0.  1.
</event>
<event>
 7    1  0.2899775E-009  0.1909197E+03  0.7561462E-02  0.1157634E+00
          1   -1    0    0  501    0  0.00000000000E+00  0.00000000000E+00  0.65064855800E+03  0.65064855800E+03  0.00000000000E+00 0. -1.
         -1   -1    0    0    0  501 -0.00000000000E+00 -0.00000000000E+00 -0.69614930667E+02  0.69614930667E+02  0.00000000000E+00 0.  1.
         25    2    1    2    0    0  0.13604522908E+03 -0.95137230615E+02  0.17225237353E+03  0.26995844440E+03  0.12508910630E+03 0.  0.
          5    1    3    3  502    0  0.20455308129E+02 -0.86464818987E+02  0.97442054825E+02  0.13193563204E+03  0.41800000000E+01 0.  1.
         -5    1    3    3    0  502  0.11558992095E+03 -0.86724116273E+01  0.74810318704E+02  0.13802281236E+03  0.41800000000E+01 0.  1.
        -11    1    1    2    0    0 -0.97434351457E+02  0.31380746906E+02  0.15456970148E+03  0.18539146889E+03  0.00000000000E+00 0.  1.
         11    1    1    2    0    0 -0.38610877618E+02  0.63756483709E+02  0.25421155232E+03  0.26491357538E+03  0.00000000000E+00 0. -1.
</event>
<event>
 7    1  0.2899775E-009  0.1187803E+03  0.7561462E-02  0.1245123E+00
          3   -1    0    0  501    0  0.00000000000E+00  0.00000000000E+00  0.92816934958E+03  0.92816934958E+03  0.00000000000E+00 0. -1.
         -3   -1    0    0    0  501 -0.00000000000E+00 -0.00000000000E+00 -0.19117390510E+02  0.19117390510E+02  0.00000000000E+00 0.  1.
         25    2    1    2    0    0 -0.58439345484E+02  0.32291987511E+02  0.64227798378E+03  0.65774416058E+03  0.12509373592E+03 0.  0.
          5    1    3    3  502    0  0.69978981656E+01  0.66816858372E+02  0.28175628964E+03  0.28968524694E+03  0.41800000000E+01 0.  1.
         -5    1    3    3    0  502 -0.65437243650E+02 -0.34524870861E+02  0.36052169414E+03  0.36805891364E+03  0.41800000000E+01 0.  1.
        -11    1    1    2    0    0 -0.15663628139E+02 -0.10664329214E+02  0.10020628956E+02  0.21435721792E+02  0.00000000000E+00 0.  1.
         11    1    1    2    0    0  0.74102973624E+02 -0.21627658297E+02  0.25675334634E+03  0.26810685773E+03  0.00000000000E+00 0. -1.
</event>
<event>
 7    1  0.2899775E-009  0.1405374E+03  0.7561462E-02  0.1212608E+00
          2   -1    0    0  501    0  0.00000000000E+00  0.00000000000E+00  0.12490156976E+03  0.12490156976E+03  0.00000000000E+00 0. -1.
         -2   -1    0    0    0  501 -0.00000000000E+00 -0.00000000000E+00 -0.19625959621E+03  0.19625959621E+03  0.00000000000E+00 0.  1.
         25    2    1    2    0    0 -0.38866608108E+02  0.91172777283E+02  0.15403354048E+02  0.16033459553E+03  0.12508729218E+03 0.  0.
          5    1    3    3  502    0  0.18107153510E+02 -0.23774420245E+02 -0.42677267949E+01  0.30475858613E+02  0.41800000000E+01 0.  1.
         -5    1    3    3    0  502 -0.56973761619E+02  0.11494719753E+03  0.19671080843E+02  0.12985873692E+03  0.41800000000E+01 0.  1.
        -11    1    1    2    0    0 -0.18635698530E+02 -0.45290916934E+02 -0.25965551524E+01  0.49043842784E+02  0.00000000000E+00 0. -1.
         11    1    1    2    0    0  0.57502306638E+02 -0.45881860349E+02 -0.84164825340E+02  0.11178272766E+03  0.00000000000E+00 0.  1.
</event>
<event>
 7    1  0.2899775E-009  0.1235861E+03  0.7561462E-02  0.1237296E+00
          1   -1    0    0  501    0  0.00000000000E+00  0.00000000000E+00  0.13585968049E+03  0.13585968049E+03  0.00000000000E+00 0. -1.
         -1   -1    0    0    0  501 -0.00000000000E+00 -0.00000000000E+00 -0.13080870465E+03  0.13080870465E+03  0.00000000000E+00 0.  1.
         25    2    1    2    0    0  0.37322408507E+02 -0.61711596765E+02  0.26914780825E+02  0.14687754534E+03  0.12508926631E+03 0.  0.
          5    1    3    3  502    0  0.43645245381E+01  0.37840183926E+02 -0.81046383604E+00  0.38328290409E+02  0.41800000000E+01 0. -1.
         -5    1    3    3    0  502  0.32957883969E+02 -0.99551780691E+02  0.27725244661E+02  0.10854925493E+03  0.41800000000E+01 0. -1.
        -11    1    1    2    0    0 -0.57122606051E+02  0.25338110929E+02  0.15090991236E+02  0.64286468281E+02  0.00000000000E+00 0. -1.
         11    1    1    2    0    0  0.19800197545E+02  0.36373485836E+02 -0.36954796218E+02  0.55504371523E+02  0.00000000000E+00 0.  1.
</event>
<event>
 7    1  0.2899775E-009  0.1027253E+03  0.7561462E-02  0.1274667E+00
         -4   -1    0    0    0  501 -0.00000000000E+00  0.00000000000E+00  0.38136811007E+02  0.38136811007E+02  0.00000000000E+00 0.  1.
          4   -1    0    0  501    0  0.00000000000E+00 -0.00000000000E+00 -0.43434059584E+03  0.43434059584E+03  0.00000000000E+00 0. -1.
         25    2    1    2    0    0 -0.56983806280E+02  0.28441330078E+02 -0.27191339842E+03  0.30600733009E+03  0.12509007314E+03 0.  0.
          5    1    3    3  502    0 -0.89550939235E+02  0.28336988164E+01 -0.23025112648E+03  0.24710413637E+03  0.41800000000E+01 0.  1.
         -5    1    3    3    0  502  0.32567132955E+02  0.25607631262E+02 -0.41662271940E+02  0.58903193724E+02  0.41800000000E+01 0.  1.
        -11    1    1    2    0    0  0.54744568778E+01 -0.21448379946E+02  0.86207187381E+01  0.23755409320E+02  0.00000000000E+00 0.  1.
         11    1    1    2    0    0  0.51509349402E+02 -0.69929501329E+01 -0.13291110516E+03  0.14271466744E+03  0.00000000000E+00 0. -1.
</event>
<event>
 7    1  0.2899775E-009  0.1238330E+03  0.7561462E-02  0.1236904E+00
          1   -1    0    0  501    0  0.00000000000E+00  0.00000000000E+00  0.15685418383E+02  0.15685418383E+02  0.00000000000E+00 0. -1.
         -1   -1    0    0    0  501 -0.00000000000E+00 -0.00000000000E+00 -0.11637178000E+04  0.11637178000E+04  0.00000000000E+00 0.  1.
         25    2    1    2    0    0  0.28358174695E+02  0.72463886485E+02 -0.56077263507E+03  0.57980032867E+03  0.12508905614E+03 0.  0.
          5    1    3    3  502    0  0.64646603806E+02  0.14486906120E+02 -0.39310371133E+03  0.39866910351E+03  0.41800000000E+01 0. -1.
         -5    1    3    3    0  502 -0.36288429112E+02  0.57976980365E+02 -0.16766892375E+03  0.18113122516E+03  0.41800000000E+01 0. -1.
        -11    1    1    2    0    0 -0.42643069557E+02 -0.84127433842E+02 -0.55000550330E+03  0.55803396865E+03  0.00000000000E+00 0.  1.
         11    1    1    2    0    0  0.14284894862E+02  0.11663547357E+02 -0.37254243205E+02  0.41568921022E+02  0.00000000000E+00 0. -1.
</event>
<event>
 7    1  0.2899775E-009  0.1942632E+03  0.7561462E-02  0.1154671E+00
          1   -1    0    0  501    0  0.00000000000E+00  0.00000000000E+00  0.16046485643E+03  0.16046485643E+03  0.00000000000E+00 0. -1.
         -1   -1    0    0    0  501 -0.00000000000E+00 -0.00000000000E+00 -0.24801735592E+03  0.24801735592E+03  0.00000000000E+00 0.  1.
         25    2    1    2    0    0 -0.32636403984E+02  0.16282213690E+03 -0.31815719468E+02  0.21032498512E+03  0.12509267056E+03 0.  0.
          5    1    3    3  502    0  0.10163173717E+02  0.15463237955E+03  0.19579891175E+01  0.15503473490E+03  0.41800000000E+01 0.  1.
         -5    1    3    3    0  502 -0.42799577701E+02  0.81897573552E+01 -0.33773708586E+02  0.55290250213E+02  0.41800000000E+01 0.  1.
        -11    1    1    2    0    0 -0.31980577368E+02 -0.65762750460E+02 -0.15035298585E+02  0.74656258146E+02  0.00000000000E+00 0.  1.
         11    1    1    2    0    0  0.64616981352E+02 -0.97059386445E+02 -0.40701481433E+02  0.12350096909E+03  0.00000000000E+00 0. -1.
</event>
<event>
 7    1  0.2899775E-009  0.1114231E+03  0.7561462E-02  0.1257957E+00
          4   -1    0    0  501    0  0.00000000000E+00  0.00000000000E+00  0.29859959973E+03  0.29859959973E+03  0.00000000000E+00 0. -1.
         -4   -1    0    0    0  501 -0.00000000000E+00 -0.00000000000E+00 -0.72191668586E+02  0.72191668586E+02  0.00000000000E+00 0.  1.
         25    2    1    2    0    0 -0.33635767197E+02  0.20222917073E+02  0.86375217333E+01  0.13138784062E+03  0.12509127336E+03 0.  0.
          5    1    3    3  502    0  0.34616168019E+02 -0.29356259517E+02  0.11014532145E+02  0.46892018292E+02  0.41800000000E+01 0. -1.
         -5    1    3    3    0  502 -0.68251935216E+02  0.49579176590E+02 -0.23770104120E+01  0.84495822326E+02  0.41800000000E+01 0. -1.
        -11    1    1    2    0    0 -0.24359987499E+02  0.11234721873E+02  0.10842914823E+03  0.11169829073E+03  0.00000000000E+00 0. -1.
         11    1    1    2    0    0  0.57995754696E+02 -0.31457638946E+02  0.10934126117E+03  0.12770513696E+03  0.00000000000E+00 0.  1.
</event>
<event>
 7    1  0.2899775E-009  0.1393460E+03  0.7561462E-02  0.1214212E+00
          3   -1    0    0  501    0  0.00000000000E+00  0.00000000000E+00  0.29754511229E+03  0.29754511229E+03  0.00000000000E+00 0. -1.
         -3   -1    0    0    0  501 -0.00000000000E+00 -0.00000000000E+00 -0.87881755587E+02  0.87881755587E+02  0.00000000000E+00 0.  1.
         25    2    1    2    0    0 -0.84713921861E+02 -0.76712968118E+02  0.11203257545E+03  0.20312685350E+03  0.12509153695E+03 0.  0.
          5    1    3    3  502    0 -0.54415093532E+01  0.98370917312E+01 -0.21916738345E+02  0.24983879152E+02  0.41800000000E+01 0.  1.
         -5    1    3    3    0  502 -0.79272412508E+02 -0.86550059849E+02  0.13394931380E+03  0.17814297435E+03  0.41800000000E+01 0.  1.
        -11    1    1    2    0    0  0.41593248018E+01  0.68118086260E+02  0.22626096528E+02  0.71897940879E+02  0.00000000000E+00 0. -1.
         11    1    1    2    0    0  0.80554597059E+02  0.85948818582E+01  0.75004684727E+02  0.11040207350E+03  0.00000000000E+00 0.  1.
</event>
<event>
 7    1  0.2899775E-009  0.1355145E+03  0.7561462E-02  0.1219495E+00
          1   -1    0    0  501    0  0.00000000000E+00  0.00000000000E+00  0.11197769747E+04  0.11197769747E+04  0.00000000000E+00 0. -1.
         -1   -1    0    0    0  501 -0.00000000000E+00 -0.00000000000E+00 -0.21143610912E+02  0.21143610912E+02  0.00000000000E+00 0.  1.
         25    2    1    2    0    0  0.10693736848E+03  0.14008278953E+02  0.64251534335E+03  0.66340417183E+03  0.12508915263E+03 0.  0.
          5    1    3    3  502    0  0.23384409886E+02 -0.49495911189E+02  0.14791829185E+03  0.15777822826E+03  0.41800000000E+01 0.  1.
         -5    1    3    3    0  502  0.83552958593E+02  0.63504190142E+02  0.49459705150E+03  0.50562594357E+03  0.41800000000E+01 0.  1.
        -11    1    1    2    0    0 -0.39635974032E+02  0.77092738721E+01  0.45416712494E+02  0.60771054910E+02  0.00000000000E+00 0.  1.
         11    1    1    2    0    0 -0.67301394446E+02 -0.21717552825E+02  0.41070130796E+03  0.41674535889E+03  0.00000000000E+00 0. -1.
</event>
<event>
 7    1  0.2899775E-009  0.7483999E+02  0.7561462E-02  0.1344367E+00
          2   -1    0    0  501    0  0.00000000000E+00  0.00000000000E+00  0.14936282620E+03  0.14936282620E+03  0.00000000000E+00 0. -1.
         -2   -1    0    0    0  501 -0.00000000000E+00 -0.00000000000E+00 -0.97142602716E+02  0.97142602716E+02  0.00000000000E+00 0.  1.
         25    2    1    2    0    0  0.35196168302E+02 -0.22677481957E+01  0.11855773568E+01  0.12997102739E+03  0.12508856631E+03 0.  0.
          5    1    3    3  502    0  0.57388585625E+02  0.19918422598E+02  0.45143676684E+02  0.75799850022E+02  0.41800000000E+01 0. -1.
         -5    1    3    3    0  502 -0.22192417323E+02 -0.22186170794E+02 -0.43958099327E+02  0.54171177369E+02  0.41800000000E+01 0. -1.
        -11    1    1    2    0    0 -0.33460389222E+02 -0.17175588925E+02  0.76027261751E+02  0.84821831100E+02  0.00000000000E+00 0. -1.
         11    1    1    2    0    0 -0.17357790800E+01  0.19443337121E+02 -0.24992615622E+02  0.31712570426E+02  0.00000000000E+00 0.  1.
</event>
<event>
 7    1  0.2899775E-009  0.2316151E+03  0.7561462E-02  0.1125508E+00
         -2   -1    0    0    0  501 -0.00000000000E+00  0.00000000000E+00  0.15023042850E+03  0.15023042850E+03  0.00000000000E+00 0.  1.
          2   -1    0    0  501    0  0.00000000000E+00 -0.00000000000E+00 -0.37889994583E+03  0.37889994583E+03  0.00000000000E+00 0. -1.
         25    2    1    2    0    0  0.16142958749E+03  0.13766584957E+03 -0.12867154900E+03  0.27787577137E+03  0.12508868430E+03 0.  0.
          5    1    3    3  502    0  0.13247672436E+03  0.49321439527E+02 -0.11803626092E+03  0.18420835536E+03  0.41800000000E+01 0. -1.
         -5    1    3    3    0  502  0.28952863128E+02  0.88344410042E+02 -0.10635288082E+02  0.93667416008E+02  0.41800000000E+01 0. -1.
        -11    1    1    2    0    0 -0.41950290244E+01 -0.47116112987E+02 -0.85527422734E+01  0.48069488991E+02  0.00000000000E+00 0.  1.
         11    1    1    2    0    0 -0.15723455847E+03 -0.90549736583E+02 -0.91445226055E+02  0.20318511397E+03  0.00000000000E+00 0. -1.
</event>
<event>
 7    1  0.2899775E-009  0.1992462E+03  0.7561462E-02  0.1150377E+00
          1   -1    0    0  501    0  0.00000000000E+00  0.00000000000E+00  0.62266534519E+02  0.62266534519E+02  0.00000000000E+00 0. -1.
         -1   -1    0    0    0  501 -0.00000000000E+00 -0.00000000000E+00 -0.77575722572E+03  0.77575722572E+03  0.00000000000E+00 0.  1.
         25    2    1    2    0    0 -0.98577703482E+02 -0.15620519384E+03 -0.28402486040E+03  0.36115956780E+03  0.12509390825E+03 0.  0.
          5    1    3    3  502    0 -0.59373354428E+02 -0.39989060008E+02 -0.19990133909E+03  0.21237311013E+03  0.41800000000E+01 0. -1.
         -5    1    3    3    0  502 -0.39204349054E+02 -0.11621613384E+03 -0.84123521309E+02  0.14878645767E+03  0.41800000000E+01 0. -1.
        -11    1    1    2    0    0  0.98303460388E+02  0.77030293768E+02 -0.30207170485E+03  0.32687084812E+03  0.00000000000E+00 0.  1.
         11    1    1    2    0    0  0.27424309420E+00  0.79174900076E+02 -0.12739412595E+03  0.14999334431E+03  0.00000000000E+00 0. -1.
</event>
<event>
 7    1  0.2899775E-009  0.1655490E+03  0.7561462E-02  0.1182571E+00
          1   -1    0    0  501    0  0.00000000000E+00  0.00000000000E+00  0.10669662984E+03  0.10669662984E+03  0.00000000000E+00 0. -1.
         -1   -1    0    0    0  501 -0.00000000000E+00 -0.00000000000E+00 -0.33556976077E+03  0.33556976077E+03  0.00000000000E+00 0.  1.
         25    2    1    2    0    0 -0.10128560554E+03 -0.97905608104E+02 -0.19500974061E+03  0.27114629178E+03  0.12508889090E+03 0.  0.
          5    1    3    3  502    0 -0.66920239315E+02  0.34326180919E+01 -0.12878608077E+03  0.14523576797E+03  0.41800000000E+01 0.  1.
         -5    1    3    3    0  502 -0.34365366221E+02 -0.10133822620E+03 -0.66223659840E+02  0.12591052381E+03  0.41800000000E+01 0.  1.
        -11    1    1    2    0    0  0.29073817045E+02  0.76060357799E+02  0.12776285463E+02  0.82423894207E+02  0.00000000000E+00 0.  1.
         11    1    1    2    0    0  0.72211788492E+02  0.21845250305E+02 -0.46639675787E+02  0.88696204629E+02  0.00000000000E+00 0. -1.
</event>
<event>
 7    1  0.2899775E-009  0.8220898E+02  0.7561462E-02  0.1322897E+00
         -1   -1    0    0    0  501 -0.00000000000E+00  0.00000000000E+00  0.21117166063E+03  0.21117166063E+03  0.00000000000E+00 0.  1.
          1   -1    0    0  501    0  0.00000000000E+00 -0.00000000000E+00 -0.53686979156E+02  0.53686979156E+02  0.00000000000E+00 0. -1.
         25    2    1    2    0    0  0.13246411320E+01 -0.10287234098E+02  0.10601772242E+03  0.16430032474E+03  0.12508899785E+03 0.  0.
          5    1    3    3  502    0  0.49978869044E+01 -0.47675087456E+02  0.11567715539E+03  0.12528595100E+03  0.41800000000E+01 0. -1.
         -5    1    3    3    0  502 -0.36732457724E+01  0.37387853358E+02 -0.96594329714E+01  0.39014373743E+02  0.41800000000E+01 0. -1.
        -11    1    1    2    0    0  0.28611319576E+02  0.30932143351E+02  0.63508754164E+01  0.42611485761E+02  0.00000000000E+00 0. -1.
         11    1    1    2    0    0 -0.29935960708E+02 -0.20644909254E+02  0.45116083642E+02  0.57946829290E+02  0.00000000000E+00 0.  1.
</event>
<event>
 7    1  0.2899775E-009  0.1054616E+03  0.7561462E-02  0.1269213E+00
          3   -1    0    0  501    0  0.00000000000E+00  0.00000000000E+00  0.11913311037E+03  0.11913311037E+03  0.00000000000E+00 0. -1.
         -3   -1    0    0    0  501 -0.00000000000E+00 -0.00000000000E+00 -0.10860652116E+03  0.10860652116E+03  0.00000000000E+00 0.  1.
         25    2    1    2    0    0  0.66805218133E+01 -0.40256340979E+02  0.73592311131E+01  0.13178220121E+03  0.12508872016E+03 0.  0.
          5    1    3    3  502    0 -0.13207040854E+02  0.43132023892E+02  0.77050865345E+01  0.45952564364E+02  0.41800000000E+01 0.  1.
         -5    1    3    3    0  502  0.19887562668E+02 -0.83388364871E+02 -0.34585542139E+00  0.85829636843E+02  0.41800000000E+01 0.  1.
        -11    1    1    2    0    0 -0.37770971229E+02  0.23280713630E+02  0.28208514654E+02  0.52577164184E+02  0.00000000000E+00 0. -1.
         11    1    1    2    0    0  0.31090449416E+02  0.16975627349E+02 -0.25041156557E+02  0.43380266141E+02  0.00000000000E+00 0.  1.
</event>
<event>
 7    1  0.2899775E-009  0.1126992E+03  0.7561462E-02  0.1255652E+00
          2   -1    0    0  501    0  0.00000000000E+00  0.00000000000E+00  0.42753712424E+03  0.42753712424E+03  0.00000000000E+00 0. -1.
         -2   -1    0    0    0  501 -0.00000000000E+00 -0.00000000000E+00 -0.30004462942E+02  0.30004462942E+02  0.00000000000E+00 0.  1.
         25    2    1    2    0    0  0.55538353677E+01 -0.34036351977E+02  0.22172153352E+03  0.25689770618E+03  0.12508666864E+03 0.  0.
          5    1    3    3  502    0 -0.23207650309E+02 -0.75192198956E+02  0.12333317783E+03  0.14635917112E+03  0.41800000000E+01 0.  1.
         -5    1    3    3    0  502  0.28761485677E+02  0.41155846980E+02  0.98388355684E+02  0.11053853506E+03  0.41800000000E+01 0.  1.
        -11    1    1    2    0    0 -0.79785053896E+01  0.64831836692E+02  0.10976895842E+03  0.12773428604E+03  0.00000000000E+00 0.  1.
         11    1    1    2    0    0  0.24246700219E+01 -0.30795484715E+02  0.66042169358E+02  0.72909594959E+02  0.00000000000E+00 0. -1.
</event>
<event>
 7    1  0.2899775E-009  0.1339348E+03  0.7561462E-02  0.1221731E+00
          1   -1    0    0  501    0  0.00000000000E+00  0.00000000000E+00  0.11695934673E+04  0.11695934673E+04  0.00000000000E+00 0. -1.
         -1   -1    0    0    0  501 -0.00000000000E+00 -0.00000000000E+00 -0.28482207443E+02  0.28482207443E+02  0.00000000000E+00 0.  1.
         25    2    1    2    0    0  0.12965291729E+03  0.30247436458E+02  0.78200319613E+03  0.80305780120E+03  0.12509215381E+03 0.  0.
          5    1    3    3  502    0  0.87624437012E+02  0.18445898227E+02  0.72796794941E+03  0.73346649610E+03  0.41800000000E+01 0. -1.
         -5    1    3    3    0  502  0.42028480274E+02  0.11801538231E+02  0.54035246713E+02  0.69591305104E+02  0.41800000000E+01 0. -1.
        -11    1    1    2    0    0 -0.45428483379E+02 -0.17623237157E+01  0.30874105204E+02  0.54955102212E+02  0.00000000000E+00 0.  1.
         11    1    1    2    0    0 -0.84224433907E+02 -0.28485112742E+02  0.32823395854E+03  0.34006277134E+03  0.00000000000E+00 0. -1.
</event>
<event>
 7    1  0.2899775E-009  0.1093053E+03  0.7561462E-02  0.1261862E+00
          1   -1    0    0  501    0  0.00000000000E+00  0.00000000000E+00  0.91352150802E+02  0.91352150802E+02  0.00000000000E+00 0.  1.
         -1   -1    0    0    0  501 -0.00000000000E+00 -0.00000000000E+00 -0.20864389616E+03  0.20864389616E+03  0.00000000000E+00 0. -1.
         25    2    1    2    0    0  0.67628280813E+02 -0.52084681653E+02 -0.59697004071E+02  0.16278059074E+03  0.12508952793E+03 0.  0.
          5    1    3    3  502    0  0.54053475699E+01  0.12748792304E+02  0.31511725948E+02  0.34672911037E+02  0.41800000000E+01 0. -1.
         -5    1    3    3    0  502  0.62222933243E+02 -0.64833473957E+02 -0.91208730020E+02  0.12810767970E+03  0.41800000000E+01 0. -1.
        -11    1    1    2    0    0 -0.56552546691E+02  0.71906795310E+02 -0.20542559167E+02  0.93759130148E+02  0.00000000000E+00 0.  1.
         11    1    1    2    0    0 -0.11075734121E+02 -0.19822113657E+02 -0.37052182116E+02  0.43456326073E+02  0.00000000000E+00 0. -1.
</event>
<event>
 7    1  0.2899775E-009  0.9043207E+02  0.7561462E-02  0.1301809E+00
          1   -1    0    0  501    0  0.00000000000E+00  0.00000000000E+00  0.11180131066E+04  0.11180131066E+04  0.00000000000E+00 0. -1.
         -1   -1    0    0    0  501 -0.00000000000E+00 -0.00000000000E+00 -0.15618408286E+02  0.15618408286E+02  0.00000000000E+00 0.  1.
         25    2    1    2    0    0  0.37980364628E+02  0.26528389866E+02  0.85905988670E+03  0.86935548511E+03  0.12509519171E+03 0.  0.
          5    1    3    3  502    0  0.24762317461E+02 -0.35900818355E+02  0.63042284598E+03  0.63194341381E+03  0.41800000000E+01 0.  1.
         -5    1    3    3    0  502  0.13218047167E+02  0.62429208221E+02  0.22863704072E+03  0.23741207130E+03  0.41800000000E+01 0.  1.
        -11    1    1    2    0    0  0.96924282435E+01  0.93263548395E+01 -0.29084395614E+00  0.13453945520E+02  0.00000000000E+00 0.  1.
         11    1    1    2    0    0 -0.47672792871E+02 -0.35854744706E+02  0.24362565553E+03  0.25082208421E+03  0.00000000000E+00 0. -1.
</event>
<event>
 7    1  0.2899775E-009  0.9920194E+02  0.7561462E-02  0.1281983E+00
          1   -1    0    0  501    0  0.00000000000E+00  0.00000000000E+00  0.49286483024E+02  0.49286483024E+02  0.00000000000E+00 0. -1.
         -1   -1    0    0    0  501 -0.00000000000E+00 -0.00000000000E+00 -0.36985070961E+03  0.36985070961E+03  0.00000000000E+00 0.  1.
         25    2    1    2    0    0 -0.75400292450E+02 -0.15706001644E+02 -0.21180480947E+03  0.25776804267E+03  0.12510477178E+03 0.  0.
          5    1    3    3  502    0 -0.50286231392E+02  0.31742753963E+02 -0.19092259924E+03  0.20001304657E+03  0.41800000000E+01 0.  1.
         -5    1    3    3    0  502 -0.25114061058E+02 -0.47448755607E+02 -0.20882210226E+02  0.57754996108E+02  0.41800000000E+01 0.  1.
        -11    1    1    2    0    0  0.26614174132E+02 -0.11602624926E+02  0.95094872032E+01  0.30551031354E+02  0.00000000000E+00 0. -1.
         11    1    1    2    0    0  0.48786118318E+02  0.27308626570E+02 -0.11826890432E+03  0.13081811860E+03  0.00000000000E+00 0.  1.
</event>
<event>
 7    1  0.2899775E-009  0.1097629E+03  0.7561462E-02  0.1261010E+00
          1   -1    0    0  501    0  0.00000000000E+00  0.00000000000E+00  0.20737614092E+03  0.20737614092E+03  0.00000000000E+00 0. -1.
         -1   -1    0    0    0  501 -0.00000000000E+00 -0.00000000000E+00 -0.79113160627E+02  0.79113160627E+02  0.00000000000E+00 0.  1.
         25    2    1    2    0    0  0.20290203287E+02 -0.27909047143E+02  0.13488645942E+03  0.18720702913E+03  0.12514594504E+03 0.  0.
          5    1    3    3  502    0  0.38532572989E+02 -0.67923557949E+02  0.11424465088E+03  0.13844739637E+03  0.41800000000E+01 0.  1.
         -5    1    3    3    0  502 -0.18242369702E+02  0.40014510806E+02  0.20641808532E+02  0.48759632760E+02  0.41800000000E+01 0.  1.
        -11    1    1    2    0    0 -0.18368251746E+01 -0.33231580618E+02  0.69277701649E+01  0.33995674380E+02  0.00000000000E+00 0. -1.
         11    1    1    2    0    0 -0.18453378112E+02  0.61140627761E+02 -0.13551249284E+02  0.65286598042E+02  0.00000000000E+00 0.  1.
</event>
<event>
 7    1  0.2899775E-009  0.1362359E+03  0.7561462E-02  0.1218485E+00
         -1   -1    0    0    0  501 -0.00000000000E+00  0.00000000000E+00  0.13943853657E+03  0.13943853657E+03  0.00000000000E+00 0. -1.
          1   -1    0    0  501    0  0.00000000000E+00 -0.00000000000E+00 -0.16447679007E+03  0.16447679007E+03  0.00000000000E+00 0.  1.
         25    2    1    2    0    0 -0.57151651851E+02  0.88287056023E+02 -0.19459688879E+02  0.16457515999E+03  0.12508152631E+03 0.  0.
          5    1    3    3  502    0  0.34191912914E+01  0.69773874134E+02 -0.57499650351E+02  0.90574646404E+02  0.41800000000E+01 0. -1.
         -5    1    3    3    0  502 -0.60570843142E+02  0.18513181889E+02  0.38039961473E+02  0.74000513589E+02  0.41800000000E+01 0. -1.
        -11    1    1    2    0    0  0.25455354713E+01 -0.84218720878E+02  0.39262760599E+00  0.84258096665E+02  0.00000000000E+00 0. -1.
         11    1    1    2    0    0  0.54606116379E+02 -0.40683351446E+01 -0.59711922354E+01  0.55082069983E+02  0.00000000000E+00 0.  1.
</event>
<event>
 7    1  0.2899775E-009  0.1315146E+03  0.7561462E-02  0.1225226E+00
          2   -1    0    0  501    0  0.00000000000E+00  0.00000000000E+00  0.26443397717E+03  0.26443397717E+03  0.00000000000E+00 0. -1.
         -2   -1    0    0    0  501 -0.00000000000E+00 -0.00000000000E+00 -0.99350019737E+02  0.99350019737E+02  0.00000000000E+00 0.  1.
         25    2    1    2    0    0 -0.73750483658E+02  0.89671819772E+02  0.52378597793E+02  0.17850953669E+03  0.12506785391E+03 0.  0.
          5    1    3    3  502    0 -0.88488424162E+02  0.78743195600E+02  0.81496858102E+02  0.14383984964E+03  0.41800000000E+01 0.  1.
         -5    1    3    3    0  502  0.14737940504E+02  0.10928624172E+02 -0.29118260309E+02  0.34669687048E+02  0.41800000000E+01 0.  1.
        -11    1    1    2    0    0  0.70111231196E+02 -0.50644446093E+02  0.11737678211E+03  0.14580038970E+03  0.00000000000E+00 0. -1.
         11    1    1    2    0    0  0.36392524616E+01 -0.39027373679E+02 -0.46714224716E+01  0.39474070511E+02  0.00000000000E+00 0.  1.
</event>
<event>
 7    1  0.2899775E-009  0.1089519E+03  0.7561462E-02  0.1262523E+00
         -1   -1    0    0    0  501 -0.00000000000E+00  0.00000000000E+00  0.11641064044E+03  0.11641064044E+03  0.00000000000E+00 0.  1.
          1   -1    0    0  501    0  0.00000000000E+00 -0.00000000000E+00 -0.12421485218E+03  0.12421485218E+03  0.00000000000E+00 0. -1.
         25    2    1    2    0    0 -0.20771148193E+02  0.14482951423E+02 -0.31928280332E+02  0.13156187425E+03  0.12509162719E+03 0.  0.
          5    1    3    3  502    0  0.28695008279E+02  0.49671928031E+02 -0.40171959180E+02  0.70156700598E+02  0.41800000000E+01 0.  1.
         -5    1    3    3    0  502 -0.49466156472E+02 -0.35188976608E+02  0.82436788475E+01  0.61405173656E+02  0.41800000000E+01 0.  1.
        -11    1    1    2    0    0 -0.38781952691E+02 -0.83406735693E+01  0.28787064660E+02  0.49013281688E+02  0.00000000000E+00 0.  1.
         11    1    1    2    0    0  0.59553100884E+02 -0.61422778536E+01 -0.46629960704E+01  0.60050336672E+02  0.00000000000E+00 0. -1.
</event>
<event>
 7    1  0.2899775E-009  0.1496757E+03  0.7561462E-02  0.1200872E+00
         -2   -1    0    0    0  501 -0.00000000000E+00  0.00000000000E+00  0.17141845300E+02  0.17141845300E+02  0.00000000000E+00 0.  1.
          2   -1    0    0  501    0  0.00000000000E+00 -0.00000000000E+00 -0.14284182185E+04  0.14284182185E+04  0.00000000000E+00 0. -1.
         25    2    1    2    0    0 -0.32834383217E+02  0.10403059241E+03 -0.86071514465E+03  0.87656424929E+03  0.12503544310E+03 0.  0.
          5    1    3    3  502    0  0.29505238242E+02  0.91797012061E+02 -0.62476184357E+03  0.63217251134E+03  0.41800000000E+01 0.  1.
         -5    1    3    3    0  502 -0.62339621459E+02  0.12233580350E+02 -0.23595330108E+03  0.24439173796E+03  0.41800000000E+01 0.  1.
        -11    1    1    2    0    0 -0.29422110137E+02 -0.42070818305E+02 -0.27577832844E+03  0.28051613279E+03  0.00000000000E+00 0. -1.
         11    1    1    2    0    0  0.62256493354E+02 -0.61959774106E+02 -0.27478290014E+03  0.28847968174E+03  0.00000000000E+00 0.  1.
</event>
<event>
 7    1  0.2899775E-009  0.1004145E+03  0.7561462E-02  0.1279427E+00
          2   -1    0    0  501    0  0.00000000000E+00  0.00000000000E+00  0.65079721525E+03  0.65079721525E+03  0.00000000000E+00 0. -1.
         -2   -1    0    0    0  501 -0.00000000000E+00 -0.00000000000E+00 -0.19794755909E+02  0.19794755909E+02  0.00000000000E+00 0.  1.
         25    2    1    2    0    0 -0.27134252318E+02 -0.10274546508E+02  0.31246908274E+03  0.33782171777E+03  0.12507898055E+03 0.  0.
          5    1    3    3  502    0  0.15196731717E+02  0.39322164150E+02  0.22326082028E+03  0.22724444882E+03  0.41800000000E+01 0.  1.
         -5    1    3    3    0  502 -0.42330984035E+02 -0.49596710658E+02  0.89208262459E+02  0.11057726895E+03  0.41800000000E+01 0.  1.
        -11    1    1    2    0    0  0.23456527768E+02  0.48948217032E+02  0.14217099973E+03  0.15217992578E+03  0.00000000000E+00 0.  1.
         11    1    1    2    0    0  0.36777245504E+01 -0.38673670524E+02  0.17636237688E+03  0.18059032761E+03  0.00000000000E+00 0. -1.
</event>
<event>
 7    1  0.2899775E-009  0.9395811E+02  0.7561462E-02  0.1293540E+00
         -1   -1    0    0    0  501 -0.00000000000E+00  0.00000000000E+00  0.41788319457E+03  0.41788319457E+03  0.00000000000E+00 0.  1.
          1   -1    0    0  501    0  0.00000000000E+00 -0.00000000000E+00 -0.31468800934E+02  0.31468800934E+02  0.00000000000E+00 0. -1.
         25    2    1    2    0    0 -0.37959069211E+02  0.14493586972E+02  0.19323209195E+03  0.23375613370E+03  0.12510928698E+03 0.  0.
          5    1    3    3  502    0 -0.13723857725E+01 -0.35211231264E+02  0.52672385042E+01  0.35873812891E+02  0.41800000000E+01 0.  1.
         -5    1    3    3    0  502 -0.36586683438E+02  0.49704818236E+02  0.18796485344E+03  0.19788232081E+03  0.41800000000E+01 0.  1.
        -11    1    1    2    0    0 -0.17864525397E+02 -0.27929088948E+02  0.39686966072E+02  0.51712963106E+02  0.00000000000E+00 0. -1.
         11    1    1    2    0    0  0.55823594607E+02  0.13435501976E+02  0.15349533562E+03  0.16388289869E+03  0.00000000000E+00 0.  1.
</event>
<event>
 7    1  0.2899775E-009  0.7977571E+02  0.7561462E-02  0.1329689E+00
          1   -1    0    0  501    0  0.00000000000E+00  0.00000000000E+00  0.51821922996E+03  0.51821922996E+03  0.00000000000E+00 0. -1.
         -1   -1    0    0    0  501 -0.00000000000E+00 -0.00000000000E+00 -0.27707083127E+02  0.27707083127E+02  0.00000000000E+00 0.  1.
         25    2    1    2    0    0 -0.32574162542E+02  0.37215602302E+02  0.24989090568E+03  0.28379481020E+03  0.12509177605E+03 0.  0.
          5    1    3    3  502    0 -0.37511875123E+02  0.40754527933E+02  0.28779371463E+02  0.62560346419E+02  0.41800000000E+01 0. -1.
         -5    1    3    3    0  502  0.49377125815E+01 -0.35389256302E+01  0.22111153422E+03  0.22123446378E+03  0.41800000000E+01 0. -1.
        -11    1    1    2    0    0 -0.27962943279E+02 -0.63367030977E+01  0.33229115962E+02  0.43889111982E+02  0.00000000000E+00 0.  1.
         11    1    1    2    0    0  0.60537105821E+02 -0.30878899205E+02  0.20739212520E+03  0.21824239091E+03  0.00000000000E+00 0. -1.
</event>
<event>
 7    1  0.3653242E-009  0.1623234E+03  0.7561462E-02  0.1186098E+00
         -1   -1    0    0    0  501 -0.00000000000E+00  0.00000000000E+00  0.36026503912E+02  0.36026503912E+02  0.00000000000E+00 0.  1.
          1   -1    0    0  501    0  0.00000000000E+00 -0.00000000000E+00 -0.10388078199E+04  0.10388078199E+04  0.00000000000E+00 0. -1.
         25    2    1    2    0    0  0.23348668176E+01  0.13217076215E+03 -0.27686496101E+03  0.33132468193E+03  0.12508907326E+03 0.  0.
          5    1    3    3  502    0  0.54235556913E+02  0.74980221275E+02 -0.90303873739E+02  0.12936688613E+03  0.41800000000E+01 0. -1.
         -5    1    3    3    0  502 -0.51900690095E+02  0.57190540874E+02 -0.18656108728E+03  0.20195779580E+03  0.41800000000E+01 0. -1.
        -11    1    1    2    0    0  0.37431657234E+02 -0.42847393302E+02 -0.17596941830E+03  0.18493854182E+03  0.00000000000E+00 0.  1.
         11    1    1    2    0    0 -0.39766524052E+02 -0.89323368846E+02 -0.54994693669E+03  0.55857110006E+03  0.00000000000E+00 0. -1.
</event>
<event>
 7    1  0.2899775E-009  0.1176025E+03  0.7561462E-02  0.1247105E+00
          2   -1    0    0  501    0  0.00000000000E+00  0.00000000000E+00  0.18976387778E+03  0.18976387778E+03  0.00000000000E+00 0.  1.
         -2   -1    0    0    0  501 -0.00000000000E+00 -0.00000000000E+00 -0.90393277246E+02  0.90393277246E+02  0.00000000000E+00 0. -1.
         25    2    1    2    0    0 -0.27794648497E+02 -0.40232773569E+02  0.12034180420E+02  0.13484285936E+03  0.12508619695E+03 0.  0.
          5    1    3    3  502    0  0.11137760707E+02  0.38840969488E+02  0.21739305030E+02  0.46073207046E+02  0.41800000000E+01 0. -1.
         -5    1    3    3    0  502 -0.38932409204E+02 -0.79073743057E+02 -0.97051246105E+01  0.88769652310E+02  0.41800000000E+01 0. -1.
        -11    1    1    2    0    0  0.61111701034E+02  0.39979821168E+02  0.84783717734E+02  0.11189863671E+03  0.00000000000E+00 0.  1.
         11    1    1    2    0    0 -0.33317052537E+02  0.25295240167E+00  0.25527023821E+01  0.33415658966E+02  0.00000000000E+00 0. -1.
</event>
<event>
 7    1  0.2899775E-009  0.9510996E+02  0.7561462E-02  0.1290929E+00
          1   -1    0    0  501    0  0.00000000000E+00  0.00000000000E+00  0.21431773832E+02  0.21431773832E+02  0.00000000000E+00 0. -1.
         -1   -1    0    0    0  501 -0.00000000000E+00 -0.00000000000E+00 -0.66137012647E+03  0.66137012647E+03  0.00000000000E+00 0.  1.
         25    2    1    2    0    0 -0.20033216873E+01  0.45812951696E+02 -0.40361181047E+03  0.42503281385E+03  0.12509020527E+03 0.  0.
          5    1    3    3  502    0 -0.54509751882E+02  0.42104065961E+02 -0.30970093581E+03  0.31729514251E+03  0.41800000000E+01 0.  1.
         -5    1    3    3    0  502  0.52506430195E+02  0.37088857347E+01 -0.93910874657E+02  0.10773767133E+03  0.41800000000E+01 0.  1.
        -11    1    1    2    0    0  0.16159947810E+02 -0.50874036463E+02 -0.23678587121E+03  0.24272795534E+03  0.00000000000E+00 0.  1.
         11    1    1    2    0    0 -0.14156626123E+02  0.50610847666E+01  0.45932903667E+00  0.15041131120E+02  0.00000000000E+00 0. -1.
</event>
<event>
 7    1  0.2899775E-009  0.6267932E+02  0.7561462E-02  0.1386920E+00
         -1   -1    0    0    0  501 -0.00000000000E+00  0.00000000000E+00  0.81863406705E+02  0.81863406705E+02  0.00000000000E+00 0.  1.
          1   -1    0    0  501    0  0.00000000000E+00 -0.00000000000E+00 -0.14983947417E+03  0.14983947417E+03  0.00000000000E+00 0. -1.
         25    2    1    2    0    0 -0.20291924616E+02  0.25548196320E+02 -0.45420299740E+02  0.13702282325E+03  0.12509107852E+03 0.  0.
          5    1    3    3  502    0 -0.29375461498E+02  0.19458777018E+01  0.38859636125E+02  0.48931052492E+02  0.41800000000E+01 0.  1.
         -5    1    3    3    0  502  0.90835368816E+01  0.23602318618E+02 -0.84279935865E+02  0.88091770761E+02  0.41800000000E+01 0.  1.
        -11    1    1    2    0    0  0.10220366877E+01 -0.43584585548E+02 -0.43045514909E+02  0.61266442774E+02  0.00000000000E+00 0. -1.
         11    1    1    2    0    0  0.19269887928E+02  0.18036389228E+02  0.20489747187E+02  0.33413614844E+02  0.00000000000E+00 0.  1.
</event>
<event>
 7    1  0.2899775E-009  0.8337268E+02  0.7561462E-02  0.1319744E+00
         -1   -1    0    0    0  501 -0.00000000000E+00  0.00000000000E+00  0.14412067280E+03  0.14412067280E+03  0.00000000000E+00 0.  1.
          1   -1    0    0  501    0  0.00000000000E+00 -0.00000000000E+00 -0.82936393912E+02  0.82936393912E+02  0.00000000000E+00 0. -1.
         25    2    1    2    0    0 -0.65162988864E+01  0.24257485974E+01  0.14225259889E+02  0.12609023052E+03  0.12509213327E+03 0.  0.
          5    1    3    3  502    0  0.27109634778E+02  0.24723087616E+02  0.56503452037E+02  0.67500191490E+02  0.41800000000E+01 0. -1.
         -5    1    3    3    0  502 -0.33625933665E+02 -0.22297339019E+02 -0.42278192148E+02  0.58590039029E+02  0.41800000000E+01 0. -1.
        -11    1    1    2    0    0 -0.89822201074E+01  0.41611598344E+02  0.25087689773E+02  0.49412524455E+02  0.00000000000E+00 0.  1.
         11    1    1    2    0    0  0.15498518994E+02 -0.44037346942E+02  0.21871329226E+02  0.51554311738E+02  0.00000000000E+00 0. -1.
</event>
<event>
 7    1  0.2899775E-009  0.1438923E+03  0.7561462E-02  0.1208185E+00
          2   -1    0    0  501    0  0.00000000000E+00  0.00000000000E+00  0.16232686232E+04  0.16232686232E+04  0.00000000000E+00 0. -1.
         -2   -1    0    0    0  501 -0.00000000000E+00 -0.00000000000E+00 -0.13516354593E+02  0.13516354593E+02  0.00000000000E+00 0.  1.
         25    2    1    2    0    0  0.60411704068E+01  0.10051189676E+03  0.87447882291E+03  0.88910077504E+03  0.12509132397E+03 0.  0.
          5    1    3    3  502    0 -0.22261165187E+02 -0.19820390445E+02  0.29720522069E+03  0.29872533029E+03  0.41800000000E+01 0.  1.
         -5    1    3    3    0  502  0.28302335594E+02  0.12033228720E+03  0.57727360222E+03  0.59037544475E+03  0.41800000000E+01 0.  1.
        -11    1    1    2    0    0  0.26665282550E+02  0.16642406512E+01  0.10503122544E+03  0.10837603660E+03  0.00000000000E+00 0.  1.
         11    1    1    2    0    0 -0.32706452956E+02 -0.10217613741E+03  0.63024222027E+03  0.63930816617E+03  0.00000000000E+00 0. -1.
</event>
<event>
 7    1  0.2899775E-009  0.9663941E+02  0.7561462E-02  0.1287526E+00
          1   -1    0    0  501    0  0.00000000000E+00  0.00000000000E+00  0.45247154078E+03  0.45247154078E+03  0.00000000000E+00 0. -1.
         -1   -1    0    0    0  501 -0.00000000000E+00 -0.00000000000E+00 -0.27797800547E+02  0.27797800547E+02  0.00000000000E+00 0.  1.
         25    2    1    2    0    0 -0.19824868258E+02  0.24326137020E+02  0.24009748000E+03  0.27254569550E+03  0.12509824096E+03 0.  0.
          5    1    3    3  502    0  0.12909188919E+02  0.53424204001E+02  0.21487490380E+03  0.22183211989E+03  0.41800000000E+01 0.  1.
         -5    1    3    3    0  502 -0.32734057176E+02 -0.29098066981E+02  0.25222576193E+02  0.50713575609E+02  0.41800000000E+01 0.  1.
        -11    1    1    2    0    0 -0.12215016947E+01  0.33037061791E+02  0.80699263292E+02  0.87208432013E+02  0.00000000000E+00 0.  1.
         11    1    1    2    0    0  0.21046369952E+02 -0.57363198811E+02  0.10387699695E+03  0.12051521382E+03  0.00000000000E+00 0. -1.
</event>
<event>
 7    1  0.2899775E-009  0.1641978E+03  0.7561462E-02  0.1184037E+00
          1   -1    0    0  501    0  0.00000000000E+00  0.00000000000E+00  0.33906151940E+03  0.33906151940E+03  0.00000000000E+00 0. -1.
         -1   -1    0    0    0  501 -0.00000000000E+00 -0.00000000000E+00 -0.99103309815E+02  0.99103309815E+02  0.00000000000E+00 0.  1.
         25    2    1    2    0    0  0.12731849136E+03  0.73924977057E+02  0.13385017383E+03  0.23503334373E+03  0.12509957297E+03 0.  0.
          5    1    3    3  502    0 -0.54034262611E+01  0.30438940581E+02  0.78981854984E+02  0.84919561562E+02  0.41800000000E+01 0. -1.
         -5    1    3    3    0  502  0.13272191762E+03  0.43486036476E+02  0.54868318848E+02  0.15011378217E+03  0.41800000000E+01 0. -1.
        -11    1    1    2    0    0 -0.87455987410E+02 -0.18815312175E+02  0.10100587302E+03  0.13492498690E+03  0.00000000000E+00 0.  1.
         11    1    1    2    0    0 -0.39862503946E+02 -0.55109664882E+02  0.51021627338E+01  0.68206498582E+02  0.00000000000E+00 0. -1.
</event>
<event>
 7    1  0.2899775E-009  0.9606186E+02  0.7561462E-02  0.1288802E+00
         -1   -1    0    0    0  501 -0.00000000000E+00  0.00000000000E+00  0.22479728898E+02  0.22479728898E+02  0.00000000000E+00 0.  1.
          1   -1    0    0  501    0  0.00000000000E+00 -0.00000000000E+00 -0.58393551736E+03  0.58393551736E+03  0.00000000000E+00 0. -1.
         25    2    1    2    0    0 -0.29992709034E+02  0.44171519498E+01 -0.24905356065E+03  0.28034676557E+03  0.12509020370E+03 0.  0.
          5    1    3    3  502    0  0.19613391884E+02  0.34977142897E+02 -0.20013291109E+03  0.20415371701E+03  0.41800000000E+01 0.  1.
         -5    1    3    3    0  502 -0.49606100918E+02 -0.30559990947E+02 -0.48920649563E+02  0.76193048559E+02  0.41800000000E+01 0.  1.
        -11    1    1    2    0    0  0.59488170868E+02  0.10389439903E+02 -0.19888356088E+03  0.20784959400E+03  0.00000000000E+00 0.  1.
         11    1    1    2    0    0 -0.29495461834E+02 -0.14806591853E+02 -0.11351866692E+03  0.11821888669E+03  0.00000000000E+00 0. -1.
</event>
<event>
 7    1  0.2899775E-009  0.1085559E+03  0.7561462E-02  0.1263268E+00
         -2   -1    0    0    0  501 -0.00000000000E+00  0.00000000000E+00  0.13074518951E+02  0.13074518951E+02  0.00000000000E+00 0.  1.
          2   -1    0    0  501    0  0.00000000000E+00 -0.00000000000E+00 -0.12870818042E+04  0.12870818042E+04  0.00000000000E+00 0. -1.
         25    2    1    2    0    0 -0.70583035740E+02  0.71596663347E+01 -0.76598654371E+03  0.77936924238E+03  0.12509118704E+03 0.  0.
          5    1    3    3  502    0 -0.31528760199E+02 -0.33396021610E+02 -0.63576833807E+03  0.63743878848E+03  0.41800000000E+01 0. -1.
         -5    1    3    3    0  502 -0.39054275541E+02  0.40555687945E+02 -0.13021820564E+03  0.14193045390E+03  0.41800000000E+01 0. -1.
        -11    1    1    2    0    0  0.60155880991E+02  0.36020170982E+02 -0.30220766343E+03  0.31023483778E+03  0.00000000000E+00 0.  1.
         11    1    1    2    0    0  0.10427154749E+02 -0.43179837317E+02 -0.20581307815E+03  0.21055224303E+03  0.00000000000E+00 0. -1.
</event>
<event>
 7    1  0.2899775E-009  0.9009890E+02  0.7561462E-02  0.1302612E+00
         -1   -1    0    0    0  501 -0.00000000000E+00  0.00000000000E+00  0.37388236396E+03  0.37388236396E+03  0.00000000000E+00 0.  1.
          1   -1    0    0  501    0  0.00000000000E+00 -0.00000000000E+00 -0.10380307079E+03  0.10380307079E+03  0.00000000000E+00 0. -1.
         25    2    1    2    0    0 -0.62642394095E+01  0.48068191387E+02  0.33228557076E+03  0.35834482025E+03  0.12509003935E+03 0.  0.
          5    1    3    3  502    0 -0.47106192036E+02 -0.20534202301E+02  0.16629721510E+03  0.17410595321E+03  0.41800000000E+01 0.  1.
         -5    1    3    3    0  502  0.40841952627E+02  0.68602393688E+02  0.16598835565E+03  0.18423886704E+03  0.41800000000E+01 0.  1.
        -11    1    1    2    0    0  0.23838170692E+01 -0.34431260527E+02 -0.85425843487E+02  0.92134515904E+02  0.00000000000E+00 0. -1.
         11    1    1    2    0    0  0.38804223404E+01 -0.13636930860E+02  0.23219565892E+02  0.27206098600E+02  0.00000000000E+00 0.  1.
</event>
<event>
 7    1  0.2899775E-009  0.1095624E+03  0.7561462E-02  0.1261382E+00
          1   -1    0    0  501    0  0.00000000000E+00  0.00000000000E+00  0.21403659148E+03  0.21403659148E+03  0.00000000000E+00 0. -1.
         -1   -1    0    0    0  501 -0.00000000000E+00 -0.00000000000E+00 -0.10009504088E+03  0.10009504088E+03  0.00000000000E+00 0.  1.
         25    2    1    2    0    0  0.42421878026E+02  0.77548005853E+02  0.19068064482E+02  0.15434855228E+03  0.12508627247E+03 0.  0.
          5    1    3    3  502    0  0.11143415489E+02  0.77062814826E+01  0.63970781329E+02  0.65523245851E+02  0.41800000000E+01 0. -1.
         -5    1    3    3    0  502  0.31278462537E+02  0.69841724370E+02 -0.44902716847E+02  0.88825306427E+02  0.41800000000E+01 0. -1.
        -11    1    1    2    0    0 -0.55478546603E+02 -0.62580757294E+01  0.36256859806E+02  0.66570207511E+02  0.00000000000E+00 0. -1.
         11    1    1    2    0    0  0.13056668577E+02 -0.71289930123E+02  0.58616626310E+02  0.93212872563E+02  0.00000000000E+00 0.  1.
</event>
<event>
 6    1  0.2899775E-009  0.1483480E+03  0.7561462E-02  0.1202518E+00
          1   -1    0    0  501    0  0.00000000000E+00  0.00000000000E+00  0.45238177974E+03  0.45238177974E+03  0.00000000000E+00 0. -1.
         -1   -1    0    0    0  501 -0.00000000000E+00 -0.00000000000E+00 -0.56626524917E+02  0.56626524917E+02  0.00000000000E+00 0.  1.
          5    1    1    2  502    0  0.79498025206E+02  0.29612767851E+02  0.17628079005E+03  0.19567636897E+03  0.41800000000E+01 0. -1.
         -5    1    1    2    0  502 -0.39911166406E+02  0.64307298306E+02  0.13015987519E+03  0.15062335586E+03  0.41800000000E+01 0. -1.
        -11    1    1    2    0    0 -0.13020421131E+02  0.17275448191E+02  0.15778236301E+02  0.26775459237E+02  0.00000000000E+00 0. -1.
         11    1    1    2    0    0 -0.26566437669E+02 -0.11119551435E+03  0.73536353280E+02  0.13593312060E+03  0.00000000000E+00 0.  1.
</event>
<event>
 7    1  0.2899775E-009  0.1062944E+03  0.7561462E-02  0.1267590E+00
         -1   -1    0    0    0  501 -0.00000000000E+00  0.00000000000E+00  0.20854087639E+03  0.20854087639E+03  0.00000000000E+00 0.  1.
          1   -1    0    0  501    0  0.00000000000E+00 -0.00000000000E+00 -0.66282634465E+02  0.66282634465E+02  0.00000000000E+00 0. -1.
         25    2    1    2    0    0 -0.15222690960E+02 -0.33032410227E+02  0.92375909186E+02  0.15969700677E+03  0.12508778889E+03 0.  0.
          5    1    3    3  502    0  0.46097359115E+02  0.17957157893E+02  0.27155699126E+02  0.56589137050E+02  0.41800000000E+01 0.  1.
         -5    1    3    3    0  502 -0.61320050076E+02 -0.50989568120E+02  0.65220210059E+02  0.10310786972E+03  0.41800000000E+01 0.  1.
        -11    1    1    2    0    0  0.43817190673E+02  0.69242010201E+01  0.60458529907E+02  0.74987496269E+02  0.00000000000E+00 0.  1.
         11    1    1    2    0    0 -0.28594499712E+02  0.26108209207E+02 -0.10576197167E+02  0.40139007814E+02  0.00000000000E+00 0. -1.
</event>
<event>
 7    1  0.2899775E-009  0.9473008E+02  0.7561462E-02  0.1291785E+00
         -1   -1    0    0    0  501 -0.00000000000E+00  0.00000000000E+00  0.13994399657E+03  0.13994399657E+03  0.00000000000E+00 0.  1.
          1   -1    0    0  501    0  0.00000000000E+00 -0.00000000000E+00 -0.94048787235E+02  0.94048787235E+02  0.00000000000E+00 0. -1.
         25    2    1    2    0    0  0.29452769083E+02 -0.12165132930E+02  0.47001867722E+02  0.13737637215E+03  0.12509051119E+03 0.  0.
          5    1    3    3  502    0 -0.70583670525E+01 -0.48319575393E+02  0.66197284216E+02  0.82365980533E+02  0.41800000000E+01 0. -1.
         -5    1    3    3    0  502  0.36511136135E+02  0.36154442463E+02 -0.19195416494E+02  0.55010391619E+02  0.41800000000E+01 0. -1.
        -11    1    1    2    0    0 -0.53389764720E+01 -0.35276513747E+02  0.18139718693E+02  0.40024823375E+02  0.00000000000E+00 0.  1.
         11    1    1    2    0    0 -0.24113792610E+02  0.47441646677E+02 -0.19246377078E+02  0.56591588280E+02  0.00000000000E+00 0. -1.
</event>
<event>
 7    1  0.2899775E-009  0.1268719E+03  0.7561462E-02  0.1232173E+00
         -1   -1    0    0    0  501 -0.00000000000E+00  0.00000000000E+00  0.17579548221E+02  0.17579548221E+02  0.00000000000E+00 0.  1.
          1   -1    0    0  501    0  0.00000000000E+00 -0.00000000000E+00 -0.11523229492E+04  0.11523229492E+04  0.00000000000E+00 0. -1.
         25    2    1    2    0    0 -0.56134802687E+02  0.67202524816E+02 -0.74872737935E+03  0.76413848148E+03  0.12509050679E+03 0.  0.
          5    1    3    3  502    0 -0.73919176310E+02  0.17158903842E+02 -0.62260238146E+03  0.62722378016E+03  0.41800000000E+01 0.  1.
         -5    1    3    3    0  502  0.17784373623E+02  0.50043620974E+02 -0.12612499789E+03  0.13691470132E+03  0.41800000000E+01 0.  1.
        -11    1    1    2    0    0 -0.20265979979E+02  0.32728017784E+01 -0.79317119199E+02  0.81930620491E+02  0.00000000000E+00 0. -1.
         11    1    1    2    0    0  0.76400782667E+02 -0.70475326595E+02 -0.30669890244E+03  0.32383339545E+03  0.00000000000E+00 0.  1.
</event>
<event>
 7    1  0.2899775E-009  0.1310879E+03  0.7561462E-02  0.1225850E+00
          3   -1    0    0  501    0  0.00000000000E+00  0.00000000000E+00  0.88540247239E+02  0.88540247239E+02  0.00000000000E+00 0. -1.
         -3   -1    0    0    0  501 -0.00000000000E+00 -0.00000000000E+00 -0.24219086961E+03  0.24219086961E+03  0.00000000000E+00 0.  1.
         25    2    1    2    0    0 -0.77633502049E+02 -0.67766781867E+02 -0.99397875549E+02  0.19012408091E+03  0.12509169083E+03 0.  0.
          5    1    3    3  502    0  0.99880624403E+01 -0.54723336659E+02  0.14821103396E+01  0.55803888910E+02  0.41800000000E+01 0. -1.
         -5    1    3    3    0  502 -0.87621564489E+02 -0.13043445207E+02 -0.10087998589E+03  0.13432019200E+03  0.41800000000E+01 0. -1.
        -11    1    1    2    0    0  0.23395543379E+02 -0.78245180844E+01 -0.39264270415E+02  0.46370868706E+02  0.00000000000E+00 0.  1.
         11    1    1    2    0    0  0.54237958669E+02  0.75591299951E+02 -0.14988476402E+02  0.94236167228E+02  0.00000000000E+00 0. -1.
</event>
<event>
 7    1  0.2899775E-009  0.1415066E+03  0.7561462E-02  0.1211316E+00
         -1   -1    0    0    0  501 -0.00000000000E+00  0.00000000000E+00  0.25580184530E+03  0.25580184530E+03  0.00000000000E+00 0.  1.
          1   -1    0    0  501    0  0.00000000000E+00 -0.00000000000E+00 -0.83876266191E+02  0.83876266191E+02  0.00000000000E+00 0. -1.
         25    2    1    2    0    0 -0.93575108514E+02 -0.29739699991E+02  0.85561691868E+02  0.18058784603E+03  0.12510162401E+03 0.  0.
          5    1    3    3  502    0 -0.13845178034E+02 -0.61765606955E+02  0.65294112083E+01  0.63771347547E+02  0.41800000000E+01 0. -1.
         -5    1    3    3    0  502 -0.79729930479E+02  0.32025906964E+02  0.79032280659E+02  0.11681649848E+03  0.41800000000E+01 0. -1.
        -11    1    1    2    0    0 -0.37652144858E+01  0.35826112500E+02  0.21307945194E+02  0.41853502905E+02  0.00000000000E+00 0. -1.
         11    1    1    2    0    0  0.97340322999E+02 -0.60864125094E+01  0.65055942043E+02  0.11723676255E+03  0.00000000000E+00 0.  1.
</event>
<event>
 7    1  0.2899775E-009  0.5767693E+02  0.7561462E-02  0.1407847E+00
          2   -1    0    0  501    0  0.00000000000E+00  0.00000000000E+00  0.65962957524E+02  0.65962957524E+02  0.00000000000E+00 0.  1.
         -2   -1    0    0    0  501 -0.00000000000E+00 -0.00000000000E+00 -0.17748010594E+03  0.17748010594E+03  0.00000000000E+00 0. -1.
         25    2    1    2    0    0 -0.83892077052E+01  0.12768574276E+01 -0.58720661940E+02  0.13845167693E+03  0.12509493010E+03 0.  0.
          5    1    3    3  502    0  0.55244069084E+00 -0.29746341711E+02 -0.89035250107E+02  0.93967537999E+02  0.41800000000E+01 0.  1.
         -5    1    3    3    0  502 -0.89416483960E+01  0.31023199139E+02  0.30314588167E+02  0.44484138933E+02  0.41800000000E+01 0.  1.
        -11    1    1    2    0    0 -0.14095004178E+02  0.18191565198E+02  0.17336662016E+02  0.28812532637E+02  0.00000000000E+00 0.  1.
         11    1    1    2    0    0  0.22484211883E+02 -0.19468422626E+02 -0.70133148492E+02  0.76178853896E+02  0.00000000000E+00 0. -1.
</event>
<event>
 7    1  0.2899775E-009  0.7928489E+02  0.7561462E-02  0.1331093E+00
          1   -1    0    0  501    0  0.00000000000E+00  0.00000000000E+00  0.26469467713E+03  0.26469467713E+03  0.00000000000E+00 0. -1.
         -1   -1    0    0    0  501 -0.00000000000E+00 -0.00000000000E+00 -0.91451899278E+02  0.91451899278E+02  0.00000000000E+00 0.  1.
         25    2    1    2    0    0 -0.45566234731E+02 -0.24954066711E+02 -0.20361999705E+02  0.13697102355E+03  0.12508982000E+03 0.  0.
          5    1    3    3  502    0 -0.56689999465E+01  0.54966523682E+01  0.49805115429E+02  0.50600125203E+02  0.41800000000E+01 0.  1.
         -5    1    3    3    0  502 -0.39897234785E+02 -0.30450719079E+02 -0.70167115133E+02  0.86370898351E+02  0.41800000000E+01 0.  1.
        -11    1    1    2    0    0  0.38335841060E+02  0.55738652641E+02  0.10316843000E+03  0.12337000874E+03  0.00000000000E+00 0.  1.
         11    1    1    2    0    0  0.72303936715E+01 -0.30784585931E+02  0.90436347552E+02  0.95805544110E+02  0.00000000000E+00 0. -1.
</event>
<event>
 7    1  0.2899775E-009  0.1093708E+03  0.7561462E-02  0.1261740E+00
         -2   -1    0    0    0  501 -0.00000000000E+00  0.00000000000E+00  0.22483526913E+02  0.22483526913E+02  0.00000000000E+00 0.  1.
          2   -1    0    0  501    0  0.00000000000E+00 -0.00000000000E+00 -0.13553808030E+04  0.13553808030E+04  0.00000000000E+00 0. -1.
         25    2    1    2    0    0  0.45597641440E+02 -0.66918548482E+00 -0.12151394189E+04  0.12224112885E+04  0.12508380460E+03 0.  0.
          5    1    3    3  502    0  0.59891121995E+02 -0.48109115779E+02 -0.91009699956E+03  0.91334301033E+03  0.41800000000E+01 0. -1.
         -5    1    3    3    0  502 -0.14293480555E+02  0.47439930294E+02 -0.30504241931E+03  0.30906827814E+03  0.41800000000E+01 0. -1.
        -11    1    1    2    0    0  0.23034169976E+02 -0.36295355689E+01 -0.64160679367E+02  0.68266677755E+02  0.00000000000E+00 0. -1.
         11    1    1    2    0    0 -0.68631811416E+02  0.42987210537E+01 -0.53597177873E+02  0.87186363710E+02  0.00000000000E+00 0.  1.
</event>
<event>
 7    1  0.4459960E-009  0.1132790E+03  0.7561462E-02  0.1254615E+00
          2   -1    0    0  501    0  0.00000000000E+00  0.00000000000E+00  0.50504198244E+03  0.50504198244E+03  0.00000000000E+00 0. -1.
         -2   -1    0    0    0  501 -0.00000000000E+00 -0.00000000000E+00 -0.30096308449E+02  0.30096308449E+02  0.00000000000E+00 0.  1.
         25    2    1    2    0    0 -0.32809550700E+02 -0.44720079147E+02  0.22295395333E+03  0.26159432266E+03  0.12508705866E+03 0.  0.
          5    1    3    3  502    0 -0.56212119365E+02 -0.76493065018E+02  0.13482168336E+03  0.16494044399E+03  0.41800000000E+01 0.  1.
         -5    1    3    3    0  502  0.23402568665E+02  0.31772985870E+02  0.88132269974E+02  0.96653878671E+02  0.41800000000E+01 0.  1.
        -11    1    1    2    0    0  0.55283437687E+02  0.41559633577E+02  0.23561735424E+03  0.24555854545E+03  0.00000000000E+00 0. -1.
         11    1    1    2    0    0 -0.22473886988E+02  0.31604455706E+01  0.16374366423E+02  0.27985422782E+02  0.00000000000E+00 0.  1.
</event>
<event>
 7    1  0.2899775E-009  0.1128514E+03  0.7561462E-02  0.1255379E+00
          3   -1    0    0  501    0  0.00000000000E+00  0.00000000000E+00  0.35046141860E+03  0.35046141860E+03  0.00000000000E+00 0. -1.
         -3   -1    0    0    0  501 -0.00000000000E+00 -0.00000000000E+00 -0.46196820573E+02  0.46196820573E+02  0.00000000000E+00 0.  1.
         25    2    1    2    0    0 -0.41384208023E+02  0.17990659071E+02  0.24793520216E+03  0.28134248923E+03  0.12508163448E+03 0.  0.
          5    1    3    3  502    0  0.43396747242E+02  0.19107608620E+02  0.10079594081E+03  0.11147050041E+03  0.41800000000E+01 0. -1.
         -5    1    3    3    0  502 -0.84780955265E+02 -0.11169495487E+01  0.14713926135E+03  0.16987198881E+03  0.41800000000E+01 0. -1.
        -11    1    1    2    0    0  0.82488186096E+01  0.32105070372E+02  0.42112576514E+02  0.53593354557E+02  0.00000000000E+00 0. -1.
         11    1    1    2    0    0  0.33135389414E+02 -0.50095729443E+02  0.14216819348E+02  0.61722395388E+02  0.00000000000E+00 0.  1.
</event>
<event>
 7    1  0.2899775E-009  0.1236102E+03  0.7561462E-02  0.1237257E+00
         -2   -1    0    0    0  501 -0.00000000000E+00  0.00000000000E+00  0.34314067183E+02  0.34314067183E+02  0.00000000000E+00 0.  1.
          2   -1    0    0  501    0  0.00000000000E+00 -0.00000000000E+00 -0.65579382842E+03  0.65579382842E+03  0.00000000000E+00 0. -1.
         25    2    1    2    0    0  0.58139772856E+02 -0.22511730714E+02 -0.52696175947E+03  0.54517089170E+03  0.12504236885E+03 0.  0.
          5    1    3    3  502    0  0.53514757063E+02 -0.71573191747E+02 -0.36644017997E+03  0.37720343171E+03  0.41800000000E+01 0.  1.
         -5    1    3    3    0  502  0.46250157931E+01  0.49061461033E+02 -0.16052157950E+03  0.16796745999E+03  0.41800000000E+01 0.  1.
        -11    1    1    2    0    0 -0.80000147674E+02  0.29627304196E+02 -0.83758173924E+02  0.11955430766E+03  0.00000000000E+00 0. -1.
         11    1    1    2    0    0  0.21860374818E+02 -0.71155734824E+01 -0.10759827848E+02  0.25382696241E+02  0.00000000000E+00 0.  1.
</event>
<event>
 7    1  0.2899775E-009  0.1283979E+03  0.7561462E-02  0.1229853E+00
          2   -1    0    0  501    0  0.00000000000E+00  0.00000000000E+00  0.17729201321E+04  0.17729201321E+04  0.00000000000E+00 0. -1.
         -2   -1    0    0    0  501 -0.00000000000E+00 -0.00000000000E+00 -0.23569743741E+02  0.23569743741E+02  0.00000000000E+00 0.  1.
         25    2    1    2    0    0  0.83495238605E+02 -0.97209826084E+02  0.14159000392E+04  0.14271792761E+04  0.12508620994E+03 0.  0.
          5    1    3    3  502    0  0.47398371992E+02 -0.59713478354E+02  0.28427494456E+03  0.29435016845E+03  0.41800000000E+01 0. -1.
         -5    1    3    3    0  502  0.36096866613E+02 -0.37496347730E+02  0.11316250946E+04  0.11328291076E+04  0.41800000000E+01 0. -1.
        -11    1    1    2    0    0 -0.57918678308E+02  0.70622176056E+02  0.31516982462E+03  0.32813729352E+03  0.00000000000E+00 0. -1.
         11    1    1    2    0    0 -0.25576560297E+02  0.26587650028E+02  0.18280524573E+02  0.41173306271E+02  0.00000000000E+00 0.  1.
</event>
<event>
 7    1  0.2899775E-009  0.8958409E+02  0.7561462E-02  0.1303862E+00
          3   -1    0    0  501    0  0.00000000000E+00  0.00000000000E+00  0.55314977553E+02  0.55314977553E+02  0.00000000000E+00 0. -1.
         -3   -1    0    0    0  501 -0.00000000000E+00 -0.00000000000E+00 -0.24185306588E+03  0.24185306588E+03  0.00000000000E+00 0.  1.
         25    2    1    2    0    0  0.12708463922E+02 -0.16900859428E+02 -0.64424480280E+02  0.14228753703E+03  0.12509230764E+03 0.  0.
          5    1    3    3  502    0 -0.18856894888E+02 -0.41951803211E+02  0.18691238828E+02  0.49823398985E+02  0.41800000000E+01 0. -1.
         -5    1    3    3    0  502  0.31565358811E+02  0.25050943783E+02 -0.83115719108E+02  0.92464138043E+02  0.41800000000E+01 0. -1.
        -11    1    1    2    0    0 -0.41561433107E+02  0.38323195948E+02 -0.55674191527E+02  0.79345041885E+02  0.00000000000E+00 0.  1.
         11    1    1    2    0    0  0.28852969185E+02 -0.21422336520E+02 -0.66439416523E+02  0.75535464523E+02  0.00000000000E+00 0. -1.
</event>
<event>
 7    1  0.2899775E-009  0.8274647E+02  0.7561462E-02  0.1321433E+00
         -2   -1    0    0    0  501 -0.00000000000E+00  0.00000000000E+00  0.41840164277E+02  0.41840164277E+02  0.00000000000E+00 0. -1.
          2   -1    0    0  501    0  0.00000000000E+00 -0.00000000000E+00 -0.28863107105E+03  0.28863107105E+03  0.00000000000E+00 0.  1.
         25    2    1    2    0    0 -0.12701033229E+02  0.70928966103E+01 -0.13963918230E+03  0.18803669565E+03  0.12508825785E+03 0.  0.
          5    1    3    3  502    0 -0.39572597841E+02 -0.35825276653E+02 -0.18459277592E+02  0.56636192283E+02  0.41800000000E+01 0. -1.
         -5    1    3    3    0  502  0.26871564612E+02  0.42918173263E+02 -0.12117990470E+03  0.13140050337E+03  0.41800000000E+01 0. -1.
        -11    1    1    2    0    0  0.26109543141E+02  0.18669609003E+02 -0.10871020351E+03  0.11334977235E+03  0.00000000000E+00 0.  1.
         11    1    1    2    0    0 -0.13408509913E+02 -0.25762505613E+02  0.15584790377E+01  0.29084767327E+02  0.00000000000E+00 0. -1.
</event>
<event>
 7    1  0.2899775E-009  0.9559952E+02  0.7561462E-02  0.1289831E+00
         -1   -1    0    0    0  501 -0.00000000000E+00  0.00000000000E+00  0.57475462909E+02  0.57475462909E+02  0.00000000000E+00 0.  1.
          1   -1    0    0  501    0  0.00000000000E+00 -0.00000000000E+00 -0.34895242875E+03  0.34895242875E+03  0.00000000000E+00 0. -1.
         25    2    1    2    0    0 -0.73354599020E+01  0.80245508555E+02 -0.21655461397E+03  0.26274513630E+03  0.12508379272E+03 0.  0.
          5    1    3    3  502    0  0.34195012474E+01  0.72963248048E+02 -0.35756640739E+02  0.81433029610E+02  0.41800000000E+01 0. -1.
         -5    1    3    3    0  502 -0.10754961149E+02  0.72822605070E+01 -0.18079797323E+03  0.18131210669E+03  0.41800000000E+01 0. -1.
        -11    1    1    2    0    0 -0.28019194574E+02 -0.19603090252E+02 -0.64109005006E+02  0.72658935685E+02  0.00000000000E+00 0.  1.
         11    1    1    2    0    0  0.35354654476E+02 -0.60642418302E+02 -0.10813346862E+02  0.71023819674E+02  0.00000000000E+00 0. -1.
</event>
<event>
 7    1  0.2899775E-009  0.1545786E+03  0.7561462E-02  0.1194957E+00
          1   -1    0    0  501    0  0.00000000000E+00  0.00000000000E+00  0.49287323047E+03  0.49287323047E+03  0.00000000000E+00 0. -1.
         -1   -1    0    0    0  501 -0.00000000000E+00 -0.00000000000E+00 -0.70897608076E+02  0.70897608076E+02  0.00000000000E+00 0.  1.
         25    2    1    2    0    0  0.13688653017E+03  0.11556365402E+02  0.12446995039E+03  0.22363617828E+03  0.12509556332E+03 0.  0.
          5    1    3    3  502    0  0.12488720847E+03  0.42409739591E+02  0.48372404807E+02  0.14054452248E+03  0.41800000000E+01 0. -1.
         -5    1    3    3    0  502  0.11999321700E+02 -0.30853374188E+02  0.76097545582E+02  0.83091655800E+02  0.41800000000E+01 0. -1.
        -11    1    1    2    0    0 -0.33648406083E+02 -0.21790309856E+02  0.21965763380E+02  0.45711350849E+02  0.00000000000E+00 0.  1.
         11    1    1    2    0    0 -0.10323812409E+03  0.10233944454E+02  0.27553990863E+03  0.29442330942E+03  0.00000000000E+00 0. -1.
</event>
<event>
 7    1  0.2899775E-009  0.1750805E+03  0.7561462E-02  0.1172651E+00
          1   -1    0    0  501    0  0.00000000000E+00  0.00000000000E+00  0.11718393403E+04  0.11718393403E+04  0.00000000000E+00 0. -1.
         -1   -1    0    0    0  501 -0.00000000000E+00 -0.00000000000E+00 -0.29070363669E+02  0.29070363669E+02  0.00000000000E+00 0.  1.
         25    2    1    2    0    0  0.13347306373E+03  0.65912676696E+02  0.62691092381E+03  0.65637172450E+03  0.12508794758E+03 0.  0.
          5    1    3    3  502    0  0.12682289315E+03  0.18782121715E+02  0.30414804401E+03  0.33009138037E+03  0.41800000000E+01 0. -1.
         -5    1    3    3    0  502  0.66501705892E+01  0.47130554981E+02  0.32276287981E+03  0.32628034412E+03  0.41800000000E+01 0. -1.
        -11    1    1    2    0    0 -0.13862765832E+03 -0.35284907288E+02  0.43520864171E+03  0.45811484821E+03  0.00000000000E+00 0. -1.
         11    1    1    2    0    0  0.51545945896E+01 -0.30627769408E+02  0.80649411074E+02  0.86423131226E+02  0.00000000000E+00 0.  1.
</event>
<event>
 7    1  0.2899775E-009  0.1708330E+03  0.7561462E-02  0.1176982E+00
         -3   -1    0    0    0  501 -0.00000000000E+00  0.00000000000E+00  0.18004012288E+03  0.18004012288E+03  0.00000000000E+00 0.  1.
          3   -1    0    0  501    0  0.00000000000E+00 -0.00000000000E+00 -0.20518715685E+03  0.20518715685E+03  0.00000000000E+00 0. -1.
         25    2    1    2    0    0 -0.10899804458E+03 -0.10402174989E+03  0.34154638621E+02  0.19878049529E+03  0.12508416285E+03 0.  0.
          5    1    3    3  502    0  0.85816761449E+01 -0.31667841338E+01 -0.29563212579E+02  0.31227065587E+02  0.41800000000E+01 0.  1.
         -5    1    3    3    0  502 -0.11757972073E+03 -0.10085496576E+03  0.63717851200E+02  0.16755342970E+03  0.41800000000E+01 0.  1.
        -11    1    1    2    0    0  0.10299320154E+03  0.37128072178E+02 -0.40091641142E+02  0.11659087870E+03  0.00000000000E+00 0.  1.
         11    1    1    2    0    0  0.60048430407E+01  0.66893677711E+02 -0.19210031452E+02  0.69855905734E+02  0.00000000000E+00 0. -1.
</event>
<event>
 7    1  0.2899775E-009  0.9946187E+02  0.7561462E-02  0.1281432E+00
          1   -1    0    0  501    0  0.00000000000E+00  0.00000000000E+00  0.10259210178E+03  0.10259210178E+03  0.00000000000E+00 0. -1.
         -1   -1    0    0    0  501 -0.00000000000E+00 -0.00000000000E+00 -0.35572358495E+03  0.35572358495E+03  0.00000000000E+00 0.  1.
         25    2    1    2    0    0 -0.41185011837E+01  0.86854155565E+02  0.23540505791E+02  0.15414872933E+03  0.12508824466E+03 0.  0.
          5    1    3    3  502    0 -0.26072941950E+01  0.74121868398E+01 -0.46988031038E+02  0.47823487510E+02  0.41800000000E+01 0.  1.
         -5    1    3    3    0  502 -0.15112069887E+01  0.79441968725E+02  0.70528536829E+02  0.10632524182E+03  0.41800000000E+01 0.  1.
        -11    1    1    2    0    0  0.33080068074E+02 -0.68772639023E+02 -0.10903678854E+03  0.13309015004E+03  0.00000000000E+00 0. -1.
         11    1    1    2    0    0 -0.28961566890E+02 -0.18081516542E+02 -0.16763520042E+03  0.17107680736E+03  0.00000000000E+00 0.  1.
</event>
<event>
 7    1  0.2899775E-009  0.9045562E+02  0.7561462E-02  0.1301752E+00
          1   -1    0    0  501    0  0.00000000000E+00  0.00000000000E+00  0.84820562038E+02  0.84820562038E+02  0.00000000000E+00 0. -1.
         -1   -1    0    0    0  501 -0.00000000000E+00 -0.00000000000E+00 -0.14560454620E+03  0.14560454620E+03  0.00000000000E+00 0.  1.
         25    2    1    2    0    0 -0.21105210632E+02 -0.19746711314E+01 -0.50997928176E+02  0.13674265172E+03  0.12509370439E+03 0.  0.
          5    1    3    3  502    0 -0.44851489468E+01 -0.48485924424E+02  0.17743854602E+02  0.51993443861E+02  0.41800000000E+01 0. -1.
         -5    1    3    3    0  502 -0.16620061685E+02  0.46511253293E+02 -0.68741782778E+02  0.84749207859E+02  0.41800000000E+01 0. -1.
        -11    1    1    2    0    0  0.49403326101E+02  0.14554797437E+02 -0.27105490252E+02  0.58199985911E+02  0.00000000000E+00 0.  1.
         11    1    1    2    0    0 -0.28298115468E+02 -0.12580126306E+02  0.17319434267E+02  0.35482470605E+02  0.00000000000E+00 0. -1.
</event>
<event>
 7    1  0.2899775E-009  0.1062627E+03  0.7561462E-02  0.1267652E+00
          1   -1    0    0  501    0  0.00000000000E+00  0.00000000000E+00  0.47162423566E+03  0.47162423566E+03  0.00000000000E+00 0. -1.
         -1   -1    0    0    0  501 -0.00000000000E+00 -0.00000000000E+00 -0.39175145123E+02  0.39175145123E+02  0.00000000000E+00 0.  1.
         25    2    1    2    0    0  0.27817066110E+02  0.56672855283E+02  0.34720943892E+03  0.37441711384E+03  0.12509268150E+03 0.  0.
          5    1    3    3  502    0 -0.41887150925E+02  0.11939723674E+02  0.20652829989E+03  0.21111253271E+03  0.41800000000E+01 0.  1.
         -5    1    3    3    0  502  0.69704217035E+02  0.44733131609E+02  0.14068113904E+03  0.16330458113E+03  0.41800000000E+01 0.  1.
        -11    1    1    2    0    0  0.14636539412E+02  0.48143687999E+00  0.58540353895E+02  0.60344288061E+02  0.00000000000E+00 0. -1.
         11    1    1    2    0    0 -0.42453605522E+02 -0.57154292163E+02  0.26699297721E+02  0.76037978888E+02  0.00000000000E+00 0.  1.
</event>
<event>
 7    1  0.2899775E-009  0.8653694E+02  0.7561462E-02  0.1311461E+00
         -3   -1    0    0    0  501 -0.00000000000E+00  0.00000000000E+00  0.45626824481E+02  0.45626824481E+02  0.00000000000E+00 0.  1.
          3   -1    0    0  501    0  0.00000000000E+00 -0.00000000000E+00 -0.39293289075E+03  0.39293289075E+03  0.00000000000E+00 0. -1.
         25    2    1    2    0    0 -0.70514670356E+02  0.30909209689E+02 -0.15846778893E+03  0.21606788136E+03  0.12508233788E+03 0.  0.
          5    1    3    3  502    0 -0.20012484648E+02 -0.10463776802E+02  0.17148610210E+02  0.28662473705E+02  0.41800000000E+01 0. -1.
         -5    1    3    3    0  502 -0.50502185708E+02  0.41372986491E+02 -0.17561639914E+03  0.18740540766E+03  0.41800000000E+01 0. -1.
        -11    1    1    2    0    0  0.52869378330E+02 -0.46801152576E+01 -0.18274663171E+03  0.19029820295E+03  0.00000000000E+00 0. -1.
         11    1    1    2    0    0  0.17645292027E+02 -0.26229094431E+02 -0.60916456290E+01  0.32193630921E+02  0.00000000000E+00 0.  1.
</event>
<event>
 7    1  0.2899775E-009  0.3182519E+03  0.7561462E-02  0.1076457E+00
         -2   -1    0    0    0  501 -0.00000000000E+00  0.00000000000E+00  0.69674512988E+03  0.69674512988E+03  0.00000000000E+00 0.  1.
          2   -1    0    0  501    0  0.00000000000E+00 -0.00000000000E+00 -0.17072421559E+03  0.17072421559E+03  0.00000000000E+00 0. -1.
         25    2    1    2    0    0 -0.28791324587E+03 -0.12311679842E+03  0.38329166866E+03  0.51050052585E+03  0.12508597215E+03 0.  0.
          5    1    3    3  502    0 -0.19022891139E+03 -0.11860253583E+03  0.33026461018E+03  0.39918139407E+03  0.41800000000E+01 0.  1.
         -5    1    3    3    0  502 -0.97684334476E+02 -0.45142625909E+01  0.53027058479E+02  0.11131913178E+03  0.41800000000E+01 0.  1.
        -11    1    1    2    0    0  0.19146121514E+02  0.16490255943E+02 -0.13146667288E+02  0.28483984463E+02  0.00000000000E+00 0.  1.
         11    1    1    2    0    0  0.26876712435E+03  0.10662654248E+03  0.15587591292E+03  0.32848483515E+03  0.00000000000E+00 0. -1.
</event>
<event>
 7    1  0.2899775E-009  0.2175983E+03  0.7561462E-02  0.1135686E+00
          2   -1    0    0  501    0  0.00000000000E+00  0.00000000000E+00  0.22348838117E+04  0.22348838117E+04  0.00000000000E+00 0. -1.
         -2   -1    0    0    0  501 -0.00000000000E+00 -0.00000000000E+00 -0.27677377538E+02  0.27677377538E+02  0.00000000000E+00 0.  1.
         25    2    1    2    0    0 -0.10188657432E+03 -0.18817332292E+03  0.14350427639E+04  0.14562916549E+04  0.12509027330E+03 0.  0.
          5    1    3    3  502    0 -0.30170656092E+02 -0.65213922847E+02  0.19077543531E+03  0.20390160210E+03  0.41800000000E+01 0. -1.
         -5    1    3    3    0  502 -0.71715918229E+02 -0.12295940008E+03  0.12442673286E+04  0.12523900528E+04  0.41800000000E+01 0. -1.
        -11    1    1    2    0    0  0.23563389777E+02  0.10060889741E+03  0.48722182317E+03  0.49805871998E+03  0.00000000000E+00 0.  1.
         11    1    1    2    0    0  0.78323184544E+02  0.87564425510E+02  0.28494184711E+03  0.30821081436E+03  0.00000000000E+00 0. -1.
</event>
<event>
 7    1  0.2899775E-009  0.9872148E+02  0.7561462E-02  0.1283008E+00
         -2   -1    0    0    0  501 -0.00000000000E+00  0.00000000000E+00  0.16762557294E+02  0.16762557294E+02  0.00000000000E+00 0.  1.
          2   -1    0    0  501    0  0.00000000000E+00 -0.00000000000E+00 -0.94473211685E+03  0.94473211685E+03  0.00000000000E+00 0. -1.
         25    2    1    2    0    0 -0.51102580549E+01  0.32983910322E+02 -0.73407343368E+03  0.74540295501E+03  0.12509079194E+03 0.  0.
          5    1    3    3  502    0 -0.55681417528E+02  0.87451898230E+00 -0.52240643402E+03  0.52538285064E+03  0.41800000000E+01 0. -1.
         -5    1    3    3    0  502  0.50571159473E+02  0.32109391340E+02 -0.21166699966E+03  0.22002010437E+03  0.41800000000E+01 0. -1.
        -11    1    1    2    0    0  0.15161127187E+02  0.21409696627E+02 -0.18292083152E+02  0.31981794716E+02  0.00000000000E+00 0.  1.
         11    1    1    2    0    0 -0.10050869132E+02 -0.54393606949E+02 -0.17560404272E+03  0.18410992441E+03  0.00000000000E+00 0. -1.
</event>
<event>
 7    1  0.2899775E-009  0.1242524E+03  0.7561462E-02  0.1236242E+00
         -2   -1    0    0    0  501 -0.00000000000E+00  0.00000000000E+00  0.19283503929E+02  0.19283503929E+02  0.00000000000E+00 0.  1.
          2   -1    0    0  501    0  0.00000000000E+00 -0.00000000000E+00 -0.10885357937E+04  0.10885357937E+04  0.00000000000E+00 0. -1.
         25    2    1    2    0    0 -0.50716507750E+02 -0.36707818393E+02 -0.84604142287E+03  0.85752711029E+03  0.12508807935E+03 0.  0.
          5    1    3    3  502    0  0.14094264102E+02  0.35402106836E+02 -0.34912713225E+03  0.35122526151E+03  0.41800000000E+01 0. -1.
         -5    1    3    3    0  502 -0.64810771852E+02 -0.72109925228E+02 -0.49691429062E+03  0.50630184879E+03  0.41800000000E+01 0. -1.
        -11    1    1    2    0    0  0.12828523495E+01  0.58918484497E+02 -0.12184367104E+03  0.13534738157E+03  0.00000000000E+00 0. -1.
         11    1    1    2    0    0  0.49433655400E+02 -0.22210666104E+02 -0.10136719587E+03  0.11494480577E+03  0.00000000000E+00 0.  1.
</event>
<event>
 7    1  0.2899775E-009  0.6272456E+02  0.7561462E-02  0.1386741E+00
         -2   -1    0    0    0  501 -0.00000000000E+00  0.00000000000E+00  0.17526000449E+02  0.17526000449E+02  0.00000000000E+00 0.  1.
          2   -1    0    0  501    0  0.00000000000E+00 -0.00000000000E+00 -0.74699931834E+03  0.74699931834E+03  0.00000000000E+00 0. -1.
         25    2    1    2    0    0  0.12417198305E+02  0.34962560817E+02 -0.47140802325E+03  0.48913038233E+03  0.12508572687E+03 0.  0.
          5    1    3    3  502    0  0.28832191061E+02  0.24420582948E+02 -0.33209075499E+02  0.50477472286E+02  0.41800000000E+01 0.  1.
         -5    1    3    3    0  502 -0.16414992756E+02  0.10541977868E+02 -0.43819894775E+03  0.43865291005E+03  0.41800000000E+01 0.  1.
        -11    1    1    2    0    0  0.13413358312E+02  0.92388874644E+01 -0.47610454097E+01  0.16968876691E+02  0.00000000000E+00 0.  1.
         11    1    1    2    0    0 -0.25830556616E+02 -0.44201448281E+02 -0.25330424923E+03  0.25842605976E+03  0.00000000000E+00 0. -1.
</event>
<event>
 7    1  0.2899775E-009  0.1195494E+03  0.7561462E-02  0.1243842E+00
          4   -1    0    0  501    0  0.00000000000E+00  0.00000000000E+00  0.76914553446E+02  0.76914553446E+02  0.00000000000E+00 0. -1.
         -4   -1    0    0    0  501 -0.00000000000E+00 -0.00000000000E+00 -0.27395447675E+03  0.27395447675E+03  0.00000000000E+00 0.  1.
         25    2    1    2    0    0 -0.40314310729E+02  0.72455571504E+02 -0.16515628867E+03  0.22315608811E+03  0.12508791501E+03 0.  0.
          5    1    3    3  502    0 -0.74177682479E+02  0.92042628730E+01 -0.60776208424E+02  0.96427521711E+02  0.41800000000E+01 0.  1.
         -5    1    3    3    0  502  0.33863371750E+02  0.63251308631E+02 -0.10438008025E+03  0.12672856640E+03  0.41800000000E+01 0.  1.
        -11    1    1    2    0    0  0.78583936623E+01 -0.54917100717E+02  0.24247316568E+02  0.60543989486E+02  0.00000000000E+00 0. -1.
         11    1    1    2    0    0  0.32455917067E+02 -0.17538470787E+02 -0.56130951201E+02  0.67168952597E+02  0.00000000000E+00 0.  1.
</event>
<event>
 7    1  0.2899775E-009  0.2046525E+03  0.7561462E-02  0.1145872E+00
         -2   -1    0    0    0  501 -0.00000000000E+00  0.00000000000E+00  0.48290810341E+02  0.48290810341E+02  0.00000000000E+00 0.  1.
          2   -1    0    0  501    0  0.00000000000E+00 -0.00000000000E+00 -0.18679043864E+04  0.18679043864E+04  0.00000000000E+00 0. -1.
         25    2    1    2    0    0  0.10048220961E+03 -0.15079643443E+03 -0.16080883197E+04  0.16230931489E+04  0.12508831661E+03 0.  0.
          5    1    3    3  502    0  0.43735290963E+02 -0.14600451083E+03 -0.13598896811E+04  0.13684105780E+04  0.41800000000E+01 0.  1.
         -5    1    3    3    0  502  0.56746918651E+02 -0.47919235962E+01 -0.24819863863E+03  0.25468257091E+03  0.41800000000E+01 0.  1.
        -11    1    1    2    0    0 -0.74221946144E+02  0.15618511431E+03 -0.16285981116E+03  0.23754158649E+03  0.00000000000E+00 0.  1.
         11    1    1    2    0    0 -0.26260263469E+02 -0.53886798812E+01 -0.48665445125E+02  0.55560461280E+02  0.00000000000E+00 0. -1.
</event>
<event>
 7    1  0.2899775E-009  0.1109212E+03  0.7561462E-02  0.1258873E+00
          1   -1    0    0  501    0  0.00000000000E+00  0.00000000000E+00  0.67966701316E+02  0.67966701316E+02  0.00000000000E+00 0. -1.
         -1   -1    0    0    0  501 -0.00000000000E+00 -0.00000000000E+00 -0.19819888093E+03  0.19819888093E+03  0.00000000000E+00 0.  1.
         25    2    1    2    0    0  0.55033335984E+01  0.20607609831E+02 -0.39212489655E+02  0.13282244537E+03  0.12509685202E+03 0.  0.
          5    1    3    3  502    0  0.29292674080E+02 -0.45845978289E+02 -0.27667579673E+02  0.61179096471E+02  0.41800000000E+01 0.  1.
         -5    1    3    3    0  502 -0.23789340481E+02  0.66453588120E+02 -0.11544909981E+02  0.71643348896E+02  0.41800000000E+01 0.  1.
        -11    1    1    2    0    0  0.44126753323E+02 -0.15083170623E+02 -0.52897785963E+02  0.70518424221E+02  0.00000000000E+00 0.  1.
         11    1    1    2    0    0 -0.49630086922E+02 -0.55244392071E+01 -0.38121904000E+02  0.62824712662E+02  0.00000000000E+00 0. -1.
</event>
<event>
 7    1  0.2899775E-009  0.2053110E+03  0.7561462E-02  0.1145334E+00
         -1   -1    0    0    0  501 -0.00000000000E+00  0.00000000000E+00  0.16902846514E+03  0.16902846514E+03  0.00000000000E+00 0.  1.
          1   -1    0    0  501    0  0.00000000000E+00 -0.00000000000E+00 -0.30985611931E+03  0.30985611931E+03  0.00000000000E+00 0. -1.
         25    2    1    2    0    0 -0.82820630583E+02  0.17407469890E+03 -0.13115611751E+03  0.26458537080E+03  0.12506891553E+03 0.  0.
          5    1    3    3  502    0 -0.74029441239E+00  0.33699515302E+02 -0.90863675568E+02  0.97004563321E+02  0.41800000000E+01 0. -1.
         -5    1    3    3    0  502 -0.82080336171E+02  0.14037518360E+03 -0.40292441945E+02  0.16758080747E+03  0.41800000000E+01 0. -1.
        -11    1    1    2    0    0  0.56731481404E+02 -0.23888306230E+02 -0.55895306414E+01  0.61809020455E+02  0.00000000000E+00 0. -1.
         11    1    1    2    0    0  0.26089149179E+02 -0.15018639267E+03 -0.40820060118E+01  0.15249019320E+03  0.00000000000E+00 0.  1.
</event>
<event>
 7    1  0.2899775E-009  0.1009267E+03  0.7561462E-02  0.1278359E+00
         -2   -1    0    0    0  501 -0.00000000000E+00  0.00000000000E+00  0.22867717113E+03  0.22867717113E+03  0.00000000000E+00 0. -1.
          2   -1    0    0  501    0  0.00000000000E+00 -0.00000000000E+00 -0.72989498484E+02  0.72989498484E+02  0.00000000000E+00 0.  1.
         25    2    1    2    0    0 -0.36321858147E+02  0.58219467809E+02  0.10917371667E+03  0.17965432980E+03  0.12509194216E+03 0.  0.
          5    1    3    3  502    0  0.18486696178E+02  0.56449057951E+02  0.24530737574E+01  0.59596510384E+02  0.41800000000E+01 0.  1.
         -5    1    3    3    0  502 -0.54808554326E+02  0.17704098580E+01  0.10672064292E+03  0.12005781942E+03  0.41800000000E+01 0.  1.
        -11    1    1    2    0    0  0.19192968292E+02 -0.65827744280E+02  0.65861071393E+02  0.95075457790E+02  0.00000000000E+00 0. -1.
         11    1    1    2    0    0  0.17128889855E+02  0.76082764707E+01 -0.19347115416E+02  0.26936882029E+02  0.00000000000E+00 0.  1.
</event>
<event>
 7    1  0.2899775E-009  0.1182586E+03  0.7561462E-02  0.1245998E+00
          2   -1    0    0  501    0  0.00000000000E+00  0.00000000000E+00  0.14928340930E+03  0.14928340930E+03  0.00000000000E+00 0. -1.
         -2   -1    0    0    0  501 -0.00000000000E+00 -0.00000000000E+00 -0.10918775426E+03  0.10918775426E+03  0.00000000000E+00 0.  1.
         25    2    1    2    0    0  0.50793442533E+01  0.15353837452E+02  0.45634453390E+02  0.13413058748E+03  0.12508785352E+03 0.  0.
          5    1    3    3  502    0 -0.59836615826E+01  0.64235609079E+02  0.52618597832E+02  0.83355905115E+02  0.41800000000E+01 0.  1.
         -5    1    3    3    0  502  0.11063005836E+02 -0.48881771626E+02 -0.69841444422E+01  0.50774682363E+02  0.41800000000E+01 0.  1.
        -11    1    1    2    0    0 -0.11117096413E+02 -0.67839484818E+02  0.95301216747E+01  0.69401792140E+02  0.00000000000E+00 0. -1.
         11    1    1    2    0    0  0.60377521601E+01  0.52485647366E+02 -0.15068920027E+02  0.54938783945E+02  0.00000000000E+00 0.  1.
</event>
<event>
 7    1  0.2899775E-009  0.9956283E+02  0.7561462E-02  0.1281218E+00
          2   -1    0    0  501    0  0.00000000000E+00  0.00000000000E+00  0.11852271044E+03  0.11852271044E+03  0.00000000000E+00 0. -1.
         -2   -1    0    0    0  501 -0.00000000000E+00 -0.00000000000E+00 -0.11796592245E+03  0.11796592245E+03  0.00000000000E+00 0.  1.
         25    2    1    2    0    0 -0.18948813925E+02 -0.42715212675E+01 -0.44802806086E+02  0.13428374216E+03  0.12509008167E+03 0.  0.
          5    1    3    3  502    0 -0.63477429249E+02  0.85562462751E+01 -0.57369326785E+02  0.86088939070E+02  0.41800000000E+01 0.  1.
         -5    1    3    3    0  502  0.44528615324E+02 -0.12827767543E+02  0.12566520700E+02  0.48194803094E+02  0.41800000000E+01 0.  1.
        -11    1    1    2    0    0 -0.34496643890E+02  0.56005170924E+01  0.51857068614E+01  0.35330946591E+02  0.00000000000E+00 0. -1.
         11    1    1    2    0    0  0.53445457815E+02 -0.13289958248E+01  0.40173887207E+02  0.66873944136E+02  0.00000000000E+00 0.  1.
</event>
<event>
 7    1  0.2899775E-009  0.9081250E+02  0.7561462E-02  0.1300896E+00
         -1   -1    0    0    0  501 -0.00000000000E+00  0.00000000000E+00  0.12801881779E+03  0.12801881779E+03  0.00000000000E+00 0.  1.
          1   -1    0    0  501    0  0.00000000000E+00 -0.00000000000E+00 -0.10047349300E+03  0.10047349300E+03  0.00000000000E+00 0. -1.
         25    2    1    2    0    0 -0.47953833970E+01 -0.62021871129E+01  0.48185768951E+02  0.13427899767E+03  0.12509003980E+03 0.  0.
          5    1    3    3  502    0  0.33312482379E+02  0.24997778035E+02 -0.22888607546E+02  0.47707139343E+02  0.41800000000E+01 0. -1.
         -5    1    3    3    0  502 -0.38107865776E+02 -0.31199965148E+02  0.71074376498E+02  0.86571858324E+02  0.41800000000E+01 0. -1.
        -11    1    1    2    0    0 -0.42238456270E+02 -0.32560435552E+01 -0.18395752227E+02  0.46185416613E+02  0.00000000000E+00 0. -1.
         11    1    1    2    0    0  0.47033839667E+02  0.94582306681E+01 -0.22446919389E+01  0.48027896509E+02  0.00000000000E+00 0.  1.
</event>
<event>
 7    1  0.2899775E-009  0.1944540E+03  0.7561462E-02  0.1154504E+00
         -1   -1    0    0    0  501 -0.00000000000E+00  0.00000000000E+00  0.41622659269E+02  0.41622659269E+02  0.00000000000E+00 0.  1.
          1   -1    0    0  501    0  0.00000000000E+00 -0.00000000000E+00 -0.10402183200E+04  0.10402183200E+04  0.00000000000E+00 0. -1.
         25    2    1    2    0    0  0.17542480211E+03 -0.10564627829E+02 -0.57532736905E+03  0.61443869253E+03  0.12509137758E+03 0.  0.
          5    1    3    3  502    0 -0.17021745924E+02  0.35880338705E+01 -0.97030547737E+02  0.98666171586E+02  0.41800000000E+01 0. -1.
         -5    1    3    3    0  502  0.19244654803E+03 -0.14152661700E+02 -0.47829682131E+03  0.51577252095E+03  0.41800000000E+01 0. -1.
        -11    1    1    2    0    0 -0.80495953689E+02  0.18983706819E+02 -0.96855378268E+02  0.12736146978E+03  0.00000000000E+00 0.  1.
         11    1    1    2    0    0 -0.94928848421E+02 -0.84190789894E+01 -0.32641291338E+03  0.34004081693E+03  0.00000000000E+00 0. -1.
</event>
<event>
 7    1  0.2899775E-009  0.1908657E+03  0.7561462E-02  0.1157683E+00
         -2   -1    0    0    0  501 -0.00000000000E+00  0.00000000000E+00  0.28885122625E+02  0.28885122625E+02  0.00000000000E+00 0. -1.
          2   -1    0    0  501    0  0.00000000000E+00 -0.00000000000E+00 -0.14046822701E+04  0.14046822701E+04  0.00000000000E+00 0.  1.
         25    2    1    2    0    0 -0.11068014510E+03  0.12379751615E+03 -0.59886184015E+03  0.63392378505E+03  0.12509173489E+03 0.  0.
          5    1    3    3  502    0  0.14756898054E+02  0.40698899471E+02 -0.25322426829E+03  0.25693222629E+03  0.41800000000E+01 0.  1.
         -5    1    3    3    0  502 -0.12543704315E+03  0.83098616682E+02 -0.34563757187E+03  0.37699155876E+03  0.41800000000E+01 0.  1.
        -11    1    1    2    0    0  0.69288294410E+02 -0.12856720266E+03 -0.64295237937E+03  0.65933159752E+03  0.00000000000E+00 0. -1.
         11    1    1    2    0    0  0.41391850689E+02  0.47696865032E+01 -0.13398292795E+03  0.14031201016E+03  0.00000000000E+00 0.  1.
</event>
<event>
 7    1  0.2899775E-009  0.1357542E+03  0.7561462E-02  0.1219159E+00
          2   -1    0    0  501    0  0.00000000000E+00  0.00000000000E+00  0.54315822835E+03  0.54315822835E+03  0.00000000000E+00 0.  1.
         -2   -1    0    0    0  501 -0.00000000000E+00 -0.00000000000E+00 -0.58226015059E+02  0.58226015059E+02  0.00000000000E+00 0. -1.
         25    2    1    2    0    0  0.66099045094E+02 -0.85291868304E+02  0.40994014452E+03  0.44197501798E+03  0.12508879992E+03 0.  0.
          5    1    3    3  502    0 -0.96758113872E+01  0.24372202825E+02  0.11898381747E+03  0.12191081501E+03  0.41800000000E+01 0.  1.
         -5    1    3    3    0  502  0.75774856481E+02 -0.10966407113E+03  0.29095632705E+03  0.32006420297E+03  0.41800000000E+01 0.  1.
        -11    1    1    2    0    0 -0.13725153022E+02  0.40210998254E+02 -0.15781689308E+02  0.45325113607E+02  0.00000000000E+00 0. -1.
         11    1    1    2    0    0 -0.52373892072E+02  0.45080870050E+02  0.90773758078E+02  0.11408411182E+03  0.00000000000E+00 0.  1.
</event>
<event>
 7    1  0.2899775E-009  0.9828210E+02  0.7561462E-02  0.1283950E+00
          2   -1    0    0  501    0  0.00000000000E+00  0.00000000000E+00  0.32386228458E+03  0.32386228458E+03  0.00000000000E+00 0. -1.
         -2   -1    0    0    0  501 -0.00000000000E+00 -0.00000000000E+00 -0.61003696784E+02  0.61003696784E+02  0.00000000000E+00 0.  1.
         25    2    1    2    0    0 -0.13150145771E+02  0.72326482124E+02  0.19318710820E+03  0.24160327547E+03  0.12508731987E+03 0.  0.
          5    1    3    3  502    0 -0.19885699524E+02  0.29865067229E+02 -0.70124207346E+01  0.36796871208E+02  0.41800000000E+01 0.  1.
         -5    1    3    3    0  502  0.67355537528E+01  0.42461414895E+02  0.20019952894E+03  0.20480640426E+03  0.41800000000E+01 0.  1.
        -11    1    1    2    0    0  0.42906252532E+02 -0.75989457202E+02  0.72080397891E+02  0.11318536952E+03  0.00000000000E+00 0. -1.
         11    1    1    2    0    0 -0.29756106761E+02  0.36629750779E+01 -0.24089183044E+01  0.30077336374E+02  0.00000000000E+00 0.  1.
</event>
<event>
 7    1  0.2899775E-009  0.1563084E+03  0.7561462E-02  0.1192929E+00
         -2   -1    0    0    0  501 -0.00000000000E+00  0.00000000000E+00  0.61791324770E+02  0.61791324770E+02  0.00000000000E+00 0.  1.
          2   -1    0    0  501    0  0.00000000000E+00 -0.00000000000E+00 -0.40892932293E+03  0.40892932293E+03  0.00000000000E+00 0. -1.
         25    2    1    2    0    0 -0.73878026456E+02  0.88058316019E+02 -0.21053448811E+03  0.27052459970E+03  0.12508620448E+03 0.  0.
          5    1    3    3  502    0 -0.50013401182E+02 -0.21119297922E+02 -0.96513841003E+02  0.11081407378E+03  0.41800000000E+01 0. -1.
         -5    1    3    3    0  502 -0.23864625274E+02  0.10917761394E+03 -0.11402064710E+03  0.15971052592E+03  0.41800000000E+01 0. -1.
        -11    1    1    2    0    0  0.28296116839E+02  0.16157879427E+02 -0.29205900263E+02  0.43757649685E+02  0.00000000000E+00 0.  1.
         11    1    1    2    0    0  0.45581909617E+02 -0.10421619545E+03 -0.10739760979E+03  0.15643839831E+03  0.00000000000E+00 0. -1.
</event>
<event>
 7    1  0.2899775E-009  0.2082914E+03  0.7561462E-02  0.1142926E+00
         -2   -1    0    0    0  501 -0.00000000000E+00  0.00000000000E+00  0.16100871398E+03  0.16100871398E+03  0.00000000000E+00 0.  1.
          2   -1    0    0  501    0  0.00000000000E+00 -0.00000000000E+00 -0.28464193825E+03  0.28464193825E+03  0.00000000000E+00 0. -1.
         25    2    1    2    0    0 -0.30947935450E+02 -0.18224163911E+03 -0.79685094780E+02  0.23699516295E+03  0.12508878125E+03 0.  0.
          5    1    3    3  502    0  0.31654624506E+02 -0.12337080139E+02 -0.37994602008E+02  0.51139817957E+02  0.41800000000E+01 0. -1.
         -5    1    3    3    0  502 -0.62602559956E+02 -0.16990455897E+03 -0.41690492772E+02  0.18585534499E+03  0.41800000000E+01 0. -1.
        -11    1    1    2    0    0 -0.17308200176E+02  0.12575748861E+03 -0.44038071981E+02  0.13436469595E+03  0.00000000000E+00 0. -1.
         11    1    1    2    0    0  0.48256135626E+02  0.56484150506E+02  0.89942495179E-01  0.74290793330E+02  0.00000000000E+00 0.  1.
</event>
<event>
 7    1  0.2899775E-009  0.2008890E+03  0.7561462E-02  0.1148991E+00
          1   -1    0    0  501    0  0.00000000000E+00  0.00000000000E+00  0.78384735598E+03  0.78384735598E+03  0.00000000000E+00 0. -1.
         -1   -1    0    0    0  501 -0.00000000000E+00 -0.00000000000E+00 -0.57980783218E+02  0.57980783218E+02  0.00000000000E+00 0.  1.
         25    2    1    2    0    0 -0.15189473415E+03  0.10304493213E+03  0.37659166056E+03  0.43721730560E+03  0.12508966869E+03 0.  0.
          5    1    3    3  502    0 -0.16219807359E+03  0.11029261031E+03  0.37579056156E+03  0.42392062172E+03  0.41800000000E+01 0. -1.
         -5    1    3    3    0  502  0.10303339439E+02 -0.72476781816E+01  0.80109900527E+00  0.13296683881E+02  0.41800000000E+01 0. -1.
        -11    1    1    2    0    0  0.32913592905E+02 -0.54803171043E+02  0.18738892965E+03  0.19799318955E+03  0.00000000000E+00 0. -1.
         11    1    1    2    0    0  0.11898114124E+03 -0.48241761087E+02  0.16188598255E+03  0.20661764405E+03  0.00000000000E+00 0.  1.
</event>
<event>
 7    1  0.2899775E-009  0.1138916E+03  0.7561462E-02  0.1253528E+00
          2   -1    0    0  501    0  0.00000000000E+00  0.00000000000E+00  0.41848750146E+03  0.41848750146E+03  0.00000000000E+00 0. -1.
         -2   -1    0    0    0  501 -0.00000000000E+00 -0.00000000000E+00 -0.37345644263E+02  0.37345644263E+02  0.00000000000E+00 0.  1.
         25    2    1    2    0    0 -0.59775982793E+02 -0.19776099074E+02  0.23065708124E+03  0.26984175820E+03  0.12509045977E+03 0.  0.
          5    1    3    3  502    0 -0.96495497647E+02 -0.61803544196E+01  0.13252281840E+03  0.16410163815E+03  0.41800000000E+01 0.  1.
         -5    1    3    3    0  502  0.36719514854E+02 -0.13595744654E+02  0.98134262843E+02  0.10574012005E+03  0.41800000000E+01 0.  1.
        -11    1    1    2    0    0  0.67265069682E+02  0.34132166719E+02  0.66805644081E+02  0.10076005402E+03  0.00000000000E+00 0.  1.
         11    1    1    2    0    0 -0.74890868891E+01 -0.14356067645E+02  0.83679131875E+02  0.85231333511E+02  0.00000000000E+00 0. -1.
</event>
<event>
 7    1  0.2899775E-009  0.1557708E+03  0.7561462E-02  0.1193556E+00
          1   -1    0    0  501    0  0.00000000000E+00  0.00000000000E+00  0.10451894553E+04  0.10451894553E+04  0.00000000000E+00 0. -1.
         -1   -1    0    0    0  501 -0.00000000000E+00 -0.00000000000E+00 -0.23502913322E+02  0.23502913322E+02  0.00000000000E+00 0.  1.
         25    2    1    2    0    0  0.10201007717E+03  0.49427095291E+02  0.54670508234E+03  0.57217380258E+03  0.12508924697E+03 0.  0.
          5    1    3    3  502    0  0.42842717764E+02  0.86776034983E+02  0.35791674220E+03  0.37079299543E+03  0.41800000000E+01 0. -1.
         -5    1    3    3    0  502  0.59167359403E+02 -0.37348939692E+02  0.18878834013E+03  0.20138080714E+03  0.41800000000E+01 0. -1.
        -11    1    1    2    0    0 -0.92858264431E+02  0.14679960663E+01  0.29775724048E+03  0.31190413037E+03  0.00000000000E+00 0. -1.
         11    1    1    2    0    0 -0.91518127356E+01 -0.50895091357E+02  0.17722421912E+03  0.18461443563E+03  0.00000000000E+00 0.  1.
</event>
<event>
 7    1  0.2899775E-009  0.1275629E+03  0.7561462E-02  0.1231117E+00
         -4   -1    0    0    0  501 -0.00000000000E+00  0.00000000000E+00  0.29103757086E+02  0.29103757086E+02  0.00000000000E+00 0.  1.
          4   -1    0    0  501    0  0.00000000000E+00 -0.00000000000E+00 -0.59284881894E+03  0.59284881894E+03  0.00000000000E+00 0. -1.
         25    2    1    2    0    0 -0.62306546378E+02  0.43623319085E+02 -0.34706196157E+03  0.37667777786E+03  0.12509613692E+03 0.  0.
          5    1    3    3  502    0 -0.37107099856E+02 -0.40486318635E+02 -0.96073322819E+02  0.11074129588E+03  0.41800000000E+01 0.  1.
         -5    1    3    3    0  502 -0.25199446522E+02  0.84109637720E+02 -0.25098863875E+03  0.26593648197E+03  0.41800000000E+01 0.  1.
        -11    1    1    2    0    0  0.31822270236E+02  0.22741985664E+02 -0.51516808406E+02  0.64682581452E+02  0.00000000000E+00 0.  1.
         11    1    1    2    0    0  0.30484276142E+02 -0.66365304749E+02 -0.16516629188E+03  0.18059221672E+03  0.00000000000E+00 0. -1.
</event>
<event>
 7    1  0.2899775E-009  0.5360531E+02  0.7561462E-02  0.1426812E+00
          2   -1    0    0  501    0  0.00000000000E+00  0.00000000000E+00  0.35735462257E+03  0.35735462257E+03  0.00000000000E+00 0. -1.
         -2   -1    0    0    0  501 -0.00000000000E+00 -0.00000000000E+00 -0.34413806522E+02  0.34413806522E+02  0.00000000000E+00 0.  1.
         25    2    1    2    0    0 -0.10147987010E+02 -0.11391884302E+02  0.23416097252E+03  0.26591654584E+03  0.12508993416E+03 0.  0.
          5    1    3    3  502    0 -0.18594784018E+02 -0.20326819528E+02 -0.33373490121E+01  0.28063426078E+02  0.41800000000E+01 0. -1.
         -5    1    3    3    0  502  0.84467970079E+01  0.89349352262E+01  0.23749832153E+03  0.23785311976E+03  0.41800000000E+01 0. -1.
        -11    1    1    2    0    0  0.33122945701E+02  0.23285381994E+02  0.83195537415E+01  0.41334652786E+02  0.00000000000E+00 0.  1.
         11    1    1    2    0    0 -0.22974958690E+02 -0.11893497692E+02  0.80460289790E+02  0.84517230475E+02  0.00000000000E+00 0. -1.
</event>
<event>
 7    1  0.2899775E-009  0.1063907E+03  0.7561462E-02  0.1267404E+00
         -1   -1    0    0    0  501 -0.00000000000E+00  0.00000000000E+00  0.65922187588E+03  0.65922187588E+03  0.00000000000E+00 0.  1.
          1   -1    0    0  501    0  0.00000000000E+00 -0.00000000000E+00 -0.55775228677E+02  0.55775228677E+02  0.00000000000E+00 0. -1.
         25    2    1    2    0    0 -0.85350454419E+02  0.12442007613E+02  0.70561683440E+02  0.16753071667E+03  0.12509231086E+03 0.  0.
          5    1    3    3  502    0 -0.21650535341E+02  0.24182375081E+02 -0.32248739365E+02  0.45945473506E+02  0.41800000000E+01 0.  1.
         -5    1    3    3    0  502 -0.63699919078E+02 -0.11740367468E+02  0.10281042280E+03  0.12158524317E+03  0.41800000000E+01 0.  1.
        -11    1    1    2    0    0 -0.87189093191E+01 -0.18943666655E+02  0.35086446045E+02  0.40815935395E+02  0.00000000000E+00 0. -1.
         11    1    1    2    0    0  0.94069363738E+02  0.65016590424E+01  0.49779851772E+03  0.50665045249E+03  0.00000000000E+00 0.  1.
</event>
<event>
 7    1  0.2899775E-009  0.2257367E+03  0.7561462E-02  0.1129677E+00
          3   -1    0    0  501    0  0.00000000000E+00  0.00000000000E+00  0.64176033041E+02  0.64176033041E+02  0.00000000000E+00 0. -1.
         -3   -1    0    0    0  501 -0.00000000000E+00 -0.00000000000E+00 -0.11090853193E+04  0.11090853193E+04  0.00000000000E+00 0.  1.
         25    2    1    2    0    0  0.60116337534E+02 -0.20668783034E+03 -0.78140472463E+03  0.82010666824E+03  0.12509104830E+03 0.  0.
          5    1    3    3  502    0 -0.43551313099E+01 -0.36562482461E+02 -0.32121843711E+02  0.49041487904E+02  0.41800000000E+01 0. -1.
         -5    1    3    3    0  502  0.64471468844E+02 -0.17012534788E+03 -0.74928288092E+03  0.77106518034E+03  0.41800000000E+01 0. -1.
        -11    1    1    2    0    0  0.13400415153E+02  0.11080803961E+03 -0.10004716303E+03  0.14989138601E+03  0.00000000000E+00 0. -1.
         11    1    1    2    0    0 -0.73516752686E+02  0.95879790724E+02 -0.16345739858E+03  0.20326329808E+03  0.00000000000E+00 0.  1.
</event>
<event>
 7    1  0.2899775E-009  0.1129204E+03  0.7561462E-02  0.1255255E+00
         -2   -1    0    0    0  501 -0.00000000000E+00  0.00000000000E+00  0.35003149917E+02  0.35003149917E+02  0.00000000000E+00 0.  1.
          2   -1    0    0  501    0  0.00000000000E+00 -0.00000000000E+00 -0.39030276678E+03  0.39030276678E+03  0.00000000000E+00 0. -1.
         25    2    1    2    0    0  0.34382664806E+02 -0.11006737491E+02 -0.25613862973E+03  0.28732944517E+03  0.12509155252E+03 0.  0.
          5    1    3    3  502    0 -0.45354435747E+02  0.11985232238E+02 -0.91070695898E+02  0.10252811656E+03  0.41800000000E+01 0.  1.
         -5    1    3    3    0  502  0.79737100553E+02 -0.22991969729E+02 -0.16506793383E+03  0.18480132861E+03  0.41800000000E+01 0.  1.
        -11    1    1    2    0    0  0.20819886475E+02 -0.22835722411E+02 -0.27142585688E+02  0.41129768401E+02  0.00000000000E+00 0.  1.
         11    1    1    2    0    0 -0.55202551281E+02  0.33842459902E+02 -0.72018401450E+02  0.96846703132E+02  0.00000000000E+00 0. -1.
</event>
<event>
 7    1  0.2899775E-009  0.7881785E+02  0.7561462E-02  0.1332440E+00
          2   -1    0    0  501    0  0.00000000000E+00  0.00000000000E+00  0.60551478986E+02  0.60551478986E+02  0.00000000000E+00 0. -1.
         -2   -1    0    0    0  501 -0.00000000000E+00 -0.00000000000E+00 -0.23328033992E+03  0.23328033992E+03  0.00000000000E+00 0.  1.
         25    2    1    2    0    0 -0.64368858752E+01  0.29510316506E+02 -0.14608200038E+03  0.19467838513E+03  0.12508968990E+03 0.  0.
          5    1    3    3  502    0 -0.54067420840E+02  0.45410031932E+02 -0.51437466325E+02  0.87456516843E+02  0.41800000000E+01 0. -1.
         -5    1    3    3    0  502  0.47630534965E+02 -0.15899715426E+02 -0.94644534056E+02  0.10722186828E+03  0.41800000000E+01 0. -1.
        -11    1    1    2    0    0 -0.61963035940E+01 -0.19310609580E+02  0.32229455855E+02  0.38079281051E+02  0.00000000000E+00 0. -1.
         11    1    1    2    0    0  0.12633189469E+02 -0.10199706926E+02 -0.58876316407E+02  0.61074152726E+02  0.00000000000E+00 0.  1.
</event>
<event>
 7    1  0.2899775E-009  0.1257290E+03  0.7561462E-02  0.1233934E+00
          2   -1    0    0  501    0  0.00000000000E+00  0.00000000000E+00  0.62586079523E+03  0.62586079523E+03  0.00000000000E+00 0. -1.
         -2   -1    0    0    0  501 -0.00000000000E+00 -0.00000000000E+00 -0.26739220218E+02  0.26739220218E+02  0.00000000000E+00 0.  1.
         25    2    1    2    0    0 -0.31865024754E+01 -0.60946289101E+02  0.32814604226E+03  0.35644330998E+03  0.12508958482E+03 0.  0.
          5    1    3    3  502    0  0.51852118892E+02 -0.61401123574E+02  0.15400979766E+03  0.17376774840E+03  0.41800000000E+01 0.  1.
         -5    1    3    3    0  502 -0.55038621367E+02  0.45483447305E+00  0.17413624460E+03  0.18267556159E+03  0.41800000000E+01 0.  1.
        -11    1    1    2    0    0  0.28629309118E+02 -0.17337358200E+02  0.11528689162E+03  0.12004702707E+03  0.00000000000E+00 0. -1.
         11    1    1    2    0    0 -0.25442806642E+02  0.78283647301E+02  0.15568864114E+03  0.17610967840E+03  0.00000000000E+00 0.  1.
</event>
<event>
 7    1  0.2981529E-009  0.1286813E+03  0.7561462E-02  0.1229426E+00
         -1   -1    0    0    0  501 -0.00000000000E+00  0.00000000000E+00  0.12187290133E+03  0.12187290133E+03  0.00000000000E+00 0.  1.
          1   -1    0    0  501    0  0.00000000000E+00 -0.00000000000E+00 -0.15051788841E+03  0.15051788841E+03  0.00000000000E+00 0. -1.
         25    2    1    2    0    0  0.20925587117E+02  0.77065871178E+02 -0.17928454529E+01  0.14840594968E+03  0.12507630835E+03 0.  0.
          5    1    3    3  502    0 -0.37540066347E+02 -0.11643122280E+02  0.11717509158E+02  0.41226099726E+02  0.41800000000E+01 0. -1.
         -5    1    3    3    0  502  0.58465653464E+02  0.88708993458E+02 -0.13510354611E+02  0.10717984996E+03  0.41800000000E+01 0. -1.
        -11    1    1    2    0    0  0.28305614372E+02 -0.43602151221E+02 -0.36719592516E+02  0.63644983075E+02  0.00000000000E+00 0. -1.
         11    1    1    2    0    0 -0.49231201488E+02 -0.33463719957E+02  0.98674508885E+01  0.60339856980E+02  0.00000000000E+00 0.  1.
</event>
<event>
 7    1  0.2899775E-009  0.2437988E+03  0.7561462E-02  0.1117288E+00
          2   -1    0    0  501    0  0.00000000000E+00  0.00000000000E+00  0.98048775648E+03  0.98048775648E+03  0.00000000000E+00 0.  1.
         -2   -1    0    0    0  501 -0.00000000000E+00 -0.00000000000E+00 -0.86231387814E+02  0.86231387814E+02  0.00000000000E+00 0. -1.
         25    2    1    2    0    0  0.61841348297E+01  0.24067612494E+03  0.67958931249E+03  0.73174584153E+03  0.12508837798E+03 0.  0.
          5    1    3    3  502    0  0.31563246820E+01  0.69108611528E+02  0.38171957886E+03  0.38796039986E+03  0.41800000000E+01 0. -1.
         -5    1    3    3    0  502  0.30278101477E+01  0.17156751341E+03  0.29786973363E+03  0.34378544167E+03  0.41800000000E+01 0. -1.
        -11    1    1    2    0    0  0.11079312081E+02 -0.88562119088E+01 -0.51002770966E+01  0.15073037916E+02  0.00000000000E+00 0. -1.
         11    1    1    2    0    0 -0.17263446911E+02 -0.23181991303E+03  0.21976733328E+03  0.31990026485E+03  0.00000000000E+00 0.  1.
</event>
<event>
 7    1  0.2899775E-009  0.1033619E+03  0.7561462E-02  0.1273381E+00
          1   -1    0    0  501    0  0.00000000000E+00  0.00000000000E+00  0.56604496443E+03  0.56604496443E+03  0.00000000000E+00 0. -1.
         -1   -1    0    0    0  501 -0.00000000000E+00 -0.00000000000E+00 -0.31050421823E+02  0.31050421823E+02  0.00000000000E+00 0.  1.
         25    2    1    2    0    0  0.31568690360E+02 -0.68241802009E+02  0.30316506506E+03  0.33647118948E+03  0.12510107485E+03 0.  0.
          5    1    3    3  502    0  0.15084576305E+02  0.28775982656E+01  0.23797728502E+03  0.23850887949E+03  0.41800000000E+01 0. -1.
         -5    1    3    3    0  502  0.16484114055E+02 -0.71119400275E+02  0.65187780043E+02  0.97962309990E+02  0.41800000000E+01 0. -1.
        -11    1    1    2    0    0 -0.56435968702E+02  0.14199129199E+02  0.13456222543E+03  0.14660704739E+03  0.00000000000E+00 0.  1.
         11    1    1    2    0    0  0.24867278342E+02  0.54042672810E+02  0.97267252124E+02  0.11401714938E+03  0.00000000000E+00 0. -1.
</event>
<event>
 7    1  0.2899775E-009  0.1748462E+03  0.7561462E-02  0.1172886E+00
         -2   -1    0    0    0  501 -0.00000000000E+00  0.00000000000E+00  0.71291834381E+02  0.71291834381E+02  0.00000000000E+00 0.  1.
          2   -1    0    0  501    0  0.00000000000E+00 -0.00000000000E+00 -0.77194733764E+03  0.77194733764E+03  0.00000000000E+00 0. -1.
         25    2    1    2    0    0  0.26047695778E+02  0.14404206653E+03 -0.62221568891E+03  0.65132692701E+03  0.12509117848E+03 0.  0.
          5    1    3    3  502    0 -0.14198093206E+02 -0.16012751167E+02 -0.34069373401E+02  0.40449828857E+02  0.41800000000E+01 0.  1.
         -5    1    3    3    0  502  0.40245788984E+02  0.16005481769E+03 -0.58814631551E+03  0.61087709815E+03  0.41800000000E+01 0.  1.
        -11    1    1    2    0    0 -0.34555137294E+02 -0.23120505458E+02 -0.54169839421E+02  0.68286065847E+02  0.00000000000E+00 0. -1.
         11    1    1    2    0    0  0.85074415163E+01 -0.12092156107E+03 -0.24269974927E+02  0.12362617917E+03  0.00000000000E+00 0.  1.
</event>
<event>
 7    1  0.2899775E-009  0.1056236E+03  0.7561462E-02  0.1268896E+00
          1   -1    0    0  501    0  0.00000000000E+00  0.00000000000E+00  0.10974760594E+04  0.10974760594E+04  0.00000000000E+00 0. -1.
         -1   -1    0    0    0  501 -0.00000000000E+00 -0.00000000000E+00 -0.27686761209E+02  0.27686761209E+02  0.00000000000E+00 0.  1.
         25    2    1    2    0    0  0.78170355451E+02  0.86380955030E+01  0.93039923101E+03  0.94205595016E+03  0.12506583462E+03 0.  0.
          5    1    3    3  502    0  0.97492749770E+02  0.30590628302E+02  0.48428869861E+03  0.49496832101E+03  0.41800000000E+01 0. -1.
         -5    1    3    3    0  502 -0.19322394319E+02 -0.21952532799E+02  0.44611053240E+03  0.44708762915E+03  0.41800000000E+01 0. -1.
        -11    1    1    2    0    0 -0.30127008395E+02  0.21390171420E+01 -0.49447169937E+01  0.30604938414E+02  0.00000000000E+00 0.  1.
         11    1    1    2    0    0 -0.48043347056E+02 -0.10777112645E+02  0.14433478413E+03  0.15250193200E+03  0.00000000000E+00 0. -1.
</event>
<event>
 7    1  0.2899775E-009  0.1105050E+03  0.7561462E-02  0.1259637E+00
         -2   -1    0    0    0  501 -0.00000000000E+00  0.00000000000E+00  0.17423495533E+03  0.17423495533E+03  0.00000000000E+00 0.  1.
          2   -1    0    0  501    0  0.00000000000E+00 -0.00000000000E+00 -0.82836343995E+02  0.82836343995E+02  0.00000000000E+00 0. -1.
         25    2    1    2    0    0  0.12940060288E+02  0.28729138633E+02  0.90490972803E+02  0.15756490743E+03  0.12508107502E+03 0.  0.
          5    1    3    3  502    0 -0.50430060650E+02  0.29988950400E+02  0.18735645822E+02  0.61733499719E+02  0.41800000000E+01 0. -1.
         -5    1    3    3    0  502  0.63370120938E+02 -0.12598117670E+01  0.71755326981E+02  0.95831407709E+02  0.41800000000E+01 0. -1.
        -11    1    1    2    0    0  0.36973311444E+02  0.65452599653E+01 -0.58990877724E+01  0.38008754567E+02  0.00000000000E+00 0. -1.
         11    1    1    2    0    0 -0.49913371732E+02 -0.35274398598E+02  0.68067263040E+01  0.61497637329E+02  0.00000000000E+00 0.  1.
</event>
<event>
 7    1  0.2899775E-009  0.1136348E+03  0.7561462E-02  0.1253983E+00
         -1   -1    0    0    0  501 -0.00000000000E+00  0.00000000000E+00  0.22392032482E+03  0.22392032482E+03  0.00000000000E+00 0.  1.
          1   -1    0    0  501    0  0.00000000000E+00 -0.00000000000E+00 -0.10312043997E+03  0.10312043997E+03  0.00000000000E+00 0. -1.
         25    2    1    2    0    0  0.26377639564E+02  0.60260552478E+02 -0.24751708983E+02  0.14349233316E+03  0.12510111320E+03 0.  0.
          5    1    3    3  502    0 -0.18961331478E+02  0.66733473691E+02 -0.54843268765E+02  0.88533299561E+02  0.41800000000E+01 0. -1.
         -5    1    3    3    0  502  0.45338971042E+02 -0.64729212134E+01  0.30091559782E+02  0.54959033601E+02  0.41800000000E+01 0. -1.
        -11    1    1    2    0    0  0.25817809364E+02 -0.53167494911E+02  0.74359590083E+02  0.94987843606E+02  0.00000000000E+00 0.  1.
         11    1    1    2    0    0 -0.52195448929E+02 -0.70930575666E+01  0.71192003748E+02  0.88560588029E+02  0.00000000000E+00 0. -1.
</event>
<event>
 7    1  0.2899775E-009  0.1651929E+03  0.7561462E-02  0.1182956E+00
          3   -1    0    0  501    0  0.00000000000E+00  0.00000000000E+00  0.73135728886E+03  0.73135728886E+03  0.00000000000E+00 0. -1.
         -3   -1    0    0    0  501 -0.00000000000E+00 -0.00000000000E+00 -0.52732660414E+02  0.52732660414E+02  0.00000000000E+00 0.  1.
         25    2    1    2    0    0 -0.13482592336E+03  0.28713545918E+02  0.52096337964E+03  0.55321931325E+03  0.12508504426E+03 0.  0.
          5    1    3    3  502    0  0.81776859217E+00 -0.29884042337E+02  0.40375245644E+02  0.50411879480E+02  0.41800000000E+01 0.  1.
         -5    1    3    3    0  502 -0.13564369195E+03  0.58597588255E+02  0.48058813399E+03  0.50280743377E+03  0.41800000000E+01 0.  1.
        -11    1    1    2    0    0  0.98879167557E+02  0.10201596539E+02  0.50877445021E+02  0.11166770688E+03  0.00000000000E+00 0.  1.
         11    1    1    2    0    0  0.35946755802E+02 -0.38915142457E+02  0.10678380378E+03  0.11920292914E+03  0.00000000000E+00 0. -1.
</event>
<event>
 7    1  0.2899775E-009  0.8171706E+02  0.7561462E-02  0.1324248E+00
         -1   -1    0    0    0  501 -0.00000000000E+00  0.00000000000E+00  0.49278416371E+02  0.49278416371E+02  0.00000000000E+00 0.  1.
          1   -1    0    0  501    0  0.00000000000E+00 -0.00000000000E+00 -0.26469528591E+03  0.26469528591E+03  0.00000000000E+00 0. -1.
         25    2    1    2    0    0 -0.13680775017E+01  0.30949234481E+02 -0.14758459444E+03  0.19592951381E+03  0.12508970826E+03 0.  0.
          5    1    3    3  502    0 -0.12241115778E+01 -0.48237341666E+02 -0.68889176973E+02  0.84211226592E+02  0.41800000000E+01 0. -1.
         -5    1    3    3    0  502 -0.14396592389E+00  0.79186576147E+02 -0.78695417471E+02  0.11171828722E+03  0.41800000000E+01 0. -1.
        -11    1    1    2    0    0  0.91635826814E+01 -0.11197266571E+02  0.21670528435E+02  0.26056895994E+02  0.00000000000E+00 0.  1.
         11    1    1    2    0    0 -0.77955051797E+01 -0.19751967910E+02 -0.89502803529E+02  0.91987292475E+02  0.00000000000E+00 0. -1.
</event>
<event>
 7    1  0.2899775E-009  0.9102087E+02  0.7561462E-02  0.1300398E+00
          3   -1    0    0  501    0  0.00000000000E+00  0.00000000000E+00  0.85877789239E+03  0.85877789239E+03  0.00000000000E+00 0. -1.
         -3   -1    0    0    0  501 -0.00000000000E+00 -0.00000000000E+00 -0.17514225281E+02  0.17514225281E+02  0.00000000000E+00 0.  1.
         25    2    1    2    0    0  0.76933033486E+01  0.34190867487E+02  0.31009370496E+03  0.33620468929E+03  0.12508910789E+03 0.  0.
          5    1    3    3  502    0  0.34929561415E+02  0.42868334429E+02  0.50483853819E+02  0.74992401307E+02  0.41800000000E+01 0. -1.
         -5    1    3    3    0  502 -0.27236258067E+02 -0.86774669422E+01  0.25960985114E+03  0.26121228799E+03  0.41800000000E+01 0. -1.
        -11    1    1    2    0    0  0.37615009862E+02 -0.36389252056E+02  0.27670501364E+03  0.28161095719E+03  0.00000000000E+00 0. -1.
         11    1    1    2    0    0 -0.45308313211E+02  0.21983845687E+01  0.25446494850E+03  0.25847647119E+03  0.00000000000E+00 0.  1.
</event>
<event>
 6    1  0.3967582E-009  0.9443743E+02  0.7561462E-02  0.1292448E+00
          1   -1    0    0  501    0  0.00000000000E+00  0.00000000000E+00  0.19323497761E+03  0.19323497761E+03  0.00000000000E+00 0. -1.
         -1   -1    0    0    0  501 -0.00000000000E+00 -0.00000000000E+00 -0.10120651140E+03  0.10120651140E+03  0.00000000000E+00 0.  1.
          5    1    1    2  502    0  0.54048772846E+02  0.56405801877E+02  0.11886273767E+03  0.14229795198E+03  0.41800000000E+01 0.  1.
         -5    1    1    2    0  502 -0.28421227749E+02  0.11469500987E+02 -0.16256108481E+02  0.34943513026E+02  0.41800000000E+01 0.  1.
        -11    1    1    2    0    0  0.57904904960E+01 -0.29745807547E+02 -0.46928412571E+02  0.55862498630E+02  0.00000000000E+00 0.  1.
         11    1    1    2    0    0 -0.31418035593E+02 -0.38129495317E+02  0.36350249588E+02  0.61337525372E+02  0.00000000000E+00 0. -1.
</event>
<event>
 7    1  0.2899775E-009  0.1298934E+03  0.7561462E-02  0.1227614E+00
         -2   -1    0    0    0  501 -0.00000000000E+00  0.00000000000E+00  0.31462033819E+02  0.31462033819E+02  0.00000000000E+00 0.  1.
          2   -1    0    0  501    0  0.00000000000E+00 -0.00000000000E+00 -0.56374405820E+03  0.56374405820E+03  0.00000000000E+00 0. -1.
         25    2    1    2    0    0 -0.77210337272E+02 -0.86165535030E+00 -0.29026976335E+03  0.32536999903E+03  0.12508765776E+03 0.  0.
          5    1    3    3  502    0  0.28238329314E+02  0.20131299475E+02 -0.40959782426E+02  0.53831669465E+02  0.41800000000E+01 0.  1.
         -5    1    3    3    0  502 -0.10544866659E+03 -0.20992954825E+02 -0.24930998092E+03  0.27153832957E+03  0.41800000000E+01 0.  1.
        -11    1    1    2    0    0  0.54832014416E+02 -0.41890125162E+02 -0.11697251905E+03  0.13580833039E+03  0.00000000000E+00 0.  1.
         11    1    1    2    0    0  0.22378322856E+02  0.42751780513E+02 -0.12503974199E+03  0.13402776260E+03  0.00000000000E+00 0. -1.
</event>
<event>
 7    1  0.2899775E-009  0.1270265E+03  0.7561462E-02  0.1231936E+00
          3   -1    0    0  501    0  0.00000000000E+00  0.00000000000E+00  0.39703433293E+02  0.39703433293E+02  0.00000000000E+00 0. -1.
         -3   -1    0    0    0  501 -0.00000000000E+00 -0.00000000000E+00 -0.56908701762E+03  0.56908701762E+03  0.00000000000E+00 0.  1.
         25    2    1    2    0    0 -0.80299014488E+02 -0.29359629578E+02 -0.40585925722E+03  0.43321882256E+03  0.12508753722E+03 0.  0.
          5    1    3    3  502    0 -0.48247712163E+02  0.44502348517E+02 -0.12814372675E+03  0.14403675871E+03  0.41800000000E+01 0.  1.
         -5    1    3    3    0  502 -0.32051302325E+02 -0.73861978096E+02 -0.27771553047E+03  0.28918206385E+03  0.41800000000E+01 0.  1.
        -11    1    1    2    0    0  0.95387202411E+01 -0.19472523475E+02  0.37248771380E+01  0.22000933254E+02  0.00000000000E+00 0. -1.
         11    1    1    2    0    0  0.70760294247E+02  0.48832153054E+02 -0.12724920424E+03  0.15357069510E+03  0.00000000000E+00 0.  1.
</event>
<event>
 7    1  0.2899775E-009  0.1040669E+03  0.7561462E-02  0.1271969E+00
         -1   -1    0    0    0  501 -0.00000000000E+00  0.00000000000E+00  0.23316372464E+03  0.23316372464E+03  0.00000000000E+00 0.  1.
          1   -1    0    0  501    0  0.00000000000E+00 -0.00000000000E+00 -0.74496719369E+02  0.74496719369E+02  0.00000000000E+00 0. -1.
         25    2    1    2    0    0  0.42699248214E+01  0.56571655263E+02  0.32219460064E+02  0.14108269371E+03  0.12509056087E+03 0.  0.
          5    1    3    3  502    0 -0.12306358633E+01 -0.32613220559E+02 -0.19009722927E+02  0.37999718231E+02  0.41800000000E+01 0. -1.
         -5    1    3    3    0  502  0.55005606847E+01  0.89184875822E+02  0.51229182991E+02  0.10308297548E+03  0.41800000000E+01 0. -1.
        -11    1    1    2    0    0 -0.28845375244E+01 -0.71113034916E+02  0.45837573556E+02  0.84654990646E+02  0.00000000000E+00 0. -1.
         11    1    1    2    0    0 -0.13853872970E+01  0.14541379653E+02  0.80609971653E+02  0.81922759658E+02  0.00000000000E+00 0.  1.
</event>
<event>
 7    1  0.2899775E-009  0.1765553E+03  0.7561462E-02  0.1171179E+00
          1   -1    0    0  501    0  0.00000000000E+00  0.00000000000E+00  0.91870712555E+02  0.91870712555E+02  0.00000000000E+00 0. -1.
         -1   -1    0    0    0  501 -0.00000000000E+00 -0.00000000000E+00 -0.47511827552E+03  0.47511827552E+03  0.00000000000E+00 0.  1.
         25    2    1    2    0    0  0.82339396531E+02  0.14417127858E+03 -0.11247099139E+03  0.23635354002E+03  0.12509251851E+03 0.  0.
          5    1    3    3  502    0  0.16305016356E+02  0.61048776579E+02  0.20122122753E+02  0.66446812597E+02  0.41800000000E+01 0. -1.
         -5    1    3    3    0  502  0.66034380174E+02  0.83122501996E+02 -0.13259311415E+03  0.16990672742E+03  0.41800000000E+01 0. -1.
        -11    1    1    2    0    0 -0.47813515385E+02 -0.15415048974E+02 -0.11571769183E+03  0.12615205187E+03  0.00000000000E+00 0.  1.
         11    1    1    2    0    0 -0.34525881146E+02 -0.12875622960E+03 -0.15505887974E+03  0.20448339619E+03  0.00000000000E+00 0. -1.
</event>
<event>
 7    1  0.2899775E-009  0.1642985E+03  0.7561462E-02  0.1183927E+00
         -1   -1    0    0    0  501 -0.00000000000E+00  0.00000000000E+00  0.17320736568E+03  0.17320736568E+03  0.00000000000E+00 0.  1.
          1   -1    0    0  501    0  0.00000000000E+00 -0.00000000000E+00 -0.17981452322E+03  0.17981452322E+03  0.00000000000E+00 0. -1.
         25    2    1    2    0    0 -0.89944239052E+02  0.10024946227E+03 -0.37392576339E+02  0.18757502923E+03  0.12508503508E+03 0.  0.
          5    1    3    3  502    0 -0.36363331668E+01  0.91702450084E+02  0.27574139932E+01  0.91911033082E+02  0.41800000000E+01 0. -1.
         -5    1    3    3    0  502 -0.86307905885E+02  0.85470121910E+01 -0.40149990332E+02  0.95663996150E+02  0.41800000000E+01 0. -1.
        -11    1    1    2    0    0  0.43732130343E+02 -0.49851545906E+01  0.39589281735E+02  0.59200187660E+02  0.00000000000E+00 0.  1.
         11    1    1    2    0    0  0.46212108709E+02 -0.95264307684E+02 -0.88038629331E+01  0.10624667201E+03  0.00000000000E+00 0. -1.
</event>
<event>
 7    1  0.2899775E-009  0.1122281E+03  0.7561462E-02  0.1256499E+00
         -2   -1    0    0    0  501 -0.00000000000E+00  0.00000000000E+00  0.32415082727E+03  0.32415082727E+03  0.00000000000E+00 0.  1.
          2   -1    0    0  501    0  0.00000000000E+00 -0.00000000000E+00 -0.74841445797E+02  0.74841445797E+02  0.00000000000E+00 0. -1.
         25    2    1    2    0    0  0.34680468558E+02  0.82834550381E+01 -0.15949393227E+01  0.13007943919E+03  0.12508703426E+03 0.  0.
          5    1    3    3  502    0 -0.45933400722E+02 -0.52342445888E+01 -0.10970577774E+02  0.47698014581E+02  0.41800000000E+01 0. -1.
         -5    1    3    3    0  502  0.80613869281E+02  0.13517699627E+02  0.93756384511E+01  0.82381424605E+02  0.41800000000E+01 0. -1.
        -11    1    1    2    0    0  0.24999666258E+02 -0.23810148160E+02  0.10435424850E+03  0.10991685789E+03  0.00000000000E+00 0.  1.
         11    1    1    2    0    0 -0.59680134817E+02  0.15526693122E+02  0.14655007230E+03  0.15899597599E+03  0.00000000000E+00 0. -1.
</event>
<event>
 7    1  0.2899775E-009  0.1469080E+03  0.7561462E-02  0.1204325E+00
          3   -1    0    0  501    0  0.00000000000E+00  0.00000000000E+00  0.13518525365E+03  0.13518525365E+03  0.00000000000E+00 0. -1.
         -3   -1    0    0    0  501 -0.00000000000E+00 -0.00000000000E+00 -0.19292390285E+03  0.19292390285E+03  0.00000000000E+00 0.  1.
         25    2    1    2    0    0  0.11448693319E+03 -0.34591290513E+02 -0.34186140216E+02  0.17640160910E+03  0.12508005540E+03 0.  0.
          5    1    3    3  502    0  0.11973328604E+03 -0.69450668680E+01 -0.63315006557E+02  0.13568550474E+03  0.41800000000E+01 0. -1.
         -5    1    3    3    0  502 -0.52463528506E+01 -0.27646223645E+02  0.29128866341E+02  0.40716104361E+02  0.41800000000E+01 0. -1.
        -11    1    1    2    0    0 -0.73708818612E+02  0.61924820025E+02 -0.32897403730E+02  0.10173451945E+03  0.00000000000E+00 0. -1.
         11    1    1    2    0    0 -0.40778114581E+02 -0.27333529512E+02  0.93448947537E+01  0.49973027949E+02  0.00000000000E+00 0.  1.
</event>
<event>
 7    1  0.2899775E-009  0.1917213E+03  0.7561462E-02  0.1156918E+00
          2   -1    0    0  501    0  0.00000000000E+00  0.00000000000E+00  0.11820877970E+04  0.11820877970E+04  0.00000000000E+00 0. -1.
         -2   -1    0    0    0  501 -0.00000000000E+00 -0.00000000000E+00 -0.39611983941E+02  0.39611983941E+02  0.00000000000E+00 0.  1.
         25    2    1    2    0    0  0.11354101731E+03  0.13876768211E+03  0.74359038296E+03  0.77506207089E+03  0.12508606592E+03 0.  0.
          5    1    3    3  502    0  0.36567878021E+02  0.19851214304E+00  0.33116518517E+03  0.33320429376E+03  0.41800000000E+01 0. -1.
         -5    1    3    3    0  502  0.76973139290E+02  0.13856916996E+03  0.41242519779E+03  0.44185777713E+03  0.41800000000E+01 0. -1.
        -11    1    1    2    0    0 -0.46995625867E+02 -0.18280645923E+02  0.47578345864E+02  0.69328708780E+02  0.00000000000E+00 0.  1.
         11    1    1    2    0    0 -0.66545391444E+02 -0.12048703618E+03  0.35130708427E+03  0.37730900131E+03  0.00000000000E+00 0. -1.
</event>
<event>
 7    1  0.2899775E-009  0.1384669E+03  0.7561462E-02  0.1215407E+00
          1   -1    0    0  501    0  0.00000000000E+00  0.00000000000E+00  0.25880871395E+02  0.25880871395E+02  0.00000000000E+00 0. -1.
         -1   -1    0    0    0  501 -0.00000000000E+00 -0.00000000000E+00 -0.98286838638E+03  0.98286838638E+03  0.00000000000E+00 0.  1.
         25    2    1    2    0    0  0.86609578915E+02  0.63314487645E+01 -0.75921114492E+03  0.77433167544E+03  0.12508666836E+03 0.  0.
          5    1    3    3  502    0  0.37573713841E+02 -0.58527315495E+02 -0.30252566270E+03  0.31044561460E+03  0.41800000000E+01 0. -1.
         -5    1    3    3    0  502  0.49035865075E+02  0.64858764260E+02 -0.45668548222E+03  0.46388606084E+03  0.41800000000E+01 0. -1.
        -11    1    1    2    0    0  0.11898341016E+02 -0.23036024007E+02 -0.40733362035E+02  0.48284942825E+02  0.00000000000E+00 0. -1.
         11    1    1    2    0    0 -0.98507919931E+02  0.16704575242E+02 -0.15704300803E+03  0.18613263952E+03  0.00000000000E+00 0.  1.
</event>
<event>
 7    1  0.2899775E-009  0.1034644E+03  0.7561462E-02  0.1273175E+00
          2   -1    0    0  501    0  0.00000000000E+00  0.00000000000E+00  0.21237561633E+03  0.21237561633E+03  0.00000000000E+00 0. -1.
         -2   -1    0    0    0  501 -0.00000000000E+00 -0.00000000000E+00 -0.90606340878E+02  0.90606340878E+02  0.00000000000E+00 0.  1.
         25    2    1    2    0    0  0.50671514397E+02 -0.35754965662E+02  0.13132348077E+03  0.19167926813E+03  0.12509622413E+03 0.  0.
          5    1    3    3  502    0  0.57551931160E+02  0.25012403141E+02  0.11012654525E+03  0.12681945221E+03  0.41800000000E+01 0.  1.
         -5    1    3    3    0  502 -0.68804167635E+01 -0.60767368803E+02  0.21196935520E+02  0.64859815923E+02  0.41800000000E+01 0.  1.
        -11    1    1    2    0    0 -0.27886823914E+02 -0.11588049026E+02  0.32234226695E+02  0.44170161862E+02  0.00000000000E+00 0. -1.
         11    1    1    2    0    0 -0.22784690483E+02  0.47343014688E+02 -0.41788432009E+02  0.67132527213E+02  0.00000000000E+00 0.  1.
</event>
<event>
 7    1  0.2899775E-009  0.9153432E+02  0.7561462E-02  0.1299178E+00
         -1   -1    0    0    0  501 -0.00000000000E+00  0.00000000000E+00  0.45940789550E+02  0.45940789550E+02  0.00000000000E+00 0.  1.
          1   -1    0    0  501    0  0.00000000000E+00 -0.00000000000E+00 -0.34231199199E+03  0.34231199199E+03  0.00000000000E+00 0. -1.
         25    2    1    2    0    0  0.36676681581E+02  0.31910194291E+02 -0.10472623915E+03  0.17023269423E+03  0.12509254792E+03 0.  0.
          5    1    3    3  502    0  0.39356927631E+02 -0.10213873144E+02 -0.11872685425E+03  0.12556603553E+03  0.41800000000E+01 0.  1.
         -5    1    3    3    0  502 -0.26802460505E+01  0.42124067435E+02  0.14000615099E+02  0.44666658699E+02  0.41800000000E+01 0.  1.
        -11    1    1    2    0    0 -0.37061067938E+02  0.23813899684E+02 -0.55124047095E+02  0.70564049934E+02  0.00000000000E+00 0.  1.
         11    1    1    2    0    0  0.38438635747E+00 -0.55724093975E+02 -0.13652091619E+03  0.14745603738E+03  0.00000000000E+00 0. -1.
</event>
<event>
 7    1  0.2899775E-009  0.1072876E+03  0.7561462E-02  0.1265677E+00
         -1   -1    0    0    0  501 -0.00000000000E+00  0.00000000000E+00  0.10536140133E+03  0.10536140133E+03  0.00000000000E+00 0.  1.
          1   -1    0    0  501    0  0.00000000000E+00 -0.00000000000E+00 -0.28200667260E+03  0.28200667260E+03  0.00000000000E+00 0. -1.
         25    2    1    2    0    0  0.11387368421E+02 -0.61295738781E+02  0.38422096905E+02  0.14489831364E+03  0.12502969253E+03 0.  0.
          5    1    3    3  502    0 -0.33716161817E+02 -0.74148933704E+02  0.50959423361E+02  0.96172652903E+02  0.41800000000E+01 0.  1.
         -5    1    3    3    0  502  0.45103530238E+02  0.12853194922E+02 -0.12537326456E+02  0.48725660737E+02  0.41800000000E+01 0.  1.
        -11    1    1    2    0    0 -0.34559550684E+02  0.24200043090E+02 -0.18411526667E+03  0.18888736339E+03  0.00000000000E+00 0. -1.
         11    1    1    2    0    0  0.23172182263E+02  0.37095695692E+02 -0.30952101501E+02  0.53582396895E+02  0.00000000000E+00 0.  1.
</event>
<event>
 7    1  0.2899775E-009  0.1191958E+03  0.7561462E-02  0.1244430E+00
         -3   -1    0    0    0  501 -0.00000000000E+00  0.00000000000E+00  0.59542219224E+02  0.59542219224E+02  0.00000000000E+00 0.  1.
          3   -1    0    0  501    0  0.00000000000E+00 -0.00000000000E+00 -0.27150485036E+03  0.27150485036E+03  0.00000000000E+00 0. -1.
         25    2    1    2    0    0 -0.56221484352E+02 -0.17832457260E+02 -0.75268296204E+02  0.15745141484E+03  0.12508708881E+03 0.  0.
          5    1    3    3  502    0 -0.64181656678E+02  0.40140565912E+02 -0.60391116327E+02  0.96928372610E+02  0.41800000000E+01 0.  1.
         -5    1    3    3    0  502  0.79601723260E+01 -0.57973023172E+02 -0.14877179877E+02  0.60523042226E+02  0.41800000000E+01 0.  1.
        -11    1    1    2    0    0  0.80816681413E+01 -0.32955626722E+02 -0.65504749835E+02  0.73771667620E+02  0.00000000000E+00 0.  1.
         11    1    1    2    0    0  0.48139816211E+02  0.50788083982E+02 -0.71189585093E+02  0.99823987122E+02  0.00000000000E+00 0. -1.
</event>
<event>
 7    1  0.2899775E-009  0.7470266E+02  0.7561462E-02  0.1344794E+00
          2   -1    0    0  501    0  0.00000000000E+00  0.00000000000E+00  0.70676353088E+02  0.70676353088E+02  0.00000000000E+00 0. -1.
         -2   -1    0    0    0  501 -0.00000000000E+00 -0.00000000000E+00 -0.22510376914E+03  0.22510376914E+03  0.00000000000E+00 0.  1.
         25    2    1    2    0    0 -0.33281191681E+02  0.44013616802E+02 -0.67417376766E+02  0.15243906453E+03  0.12509088505E+03 0.  0.
          5    1    3    3  502    0 -0.38894759974E+02 -0.93802048093E+01  0.23633008209E+02  0.46655997178E+02  0.41800000000E+01 0. -1.
         -5    1    3    3    0  502  0.56135682933E+01  0.53393821611E+02 -0.91050384975E+02  0.10578306736E+03  0.41800000000E+01 0. -1.
        -11    1    1    2    0    0  0.16495784634E+02 -0.18491498189E+02  0.20133439036E+02  0.31928072027E+02  0.00000000000E+00 0. -1.
         11    1    1    2    0    0  0.16785407047E+02 -0.25522118613E+02 -0.10714347832E+03  0.11141298566E+03  0.00000000000E+00 0.  1.
</event>
<event>
 7    1  0.2899775E-009  0.1495650E+03  0.7561462E-02  0.1201009E+00
         -1   -1    0    0    0  501 -0.00000000000E+00  0.00000000000E+00  0.64132715822E+03  0.64132715822E+03  0.00000000000E+00 0.  1.
          1   -1    0    0  501    0  0.00000000000E+00 -0.00000000000E+00 -0.66823403497E+02  0.66823403497E+02  0.00000000000E+00 0. -1.
         25    2    1    2    0    0 -0.52772546048E+02 -0.12121369356E+03  0.10102494123E+03  0.20816211175E+03  0.12509086656E+03 0.  0.
          5    1    3    3  502    0 -0.56755903922E+02 -0.13714015157E+03  0.11369297726E+03  0.18700860751E+03  0.41800000000E+01 0.  1.
         -5    1    3    3    0  502  0.39833578740E+01  0.15926458009E+02 -0.12668036039E+02  0.21153504243E+02  0.41800000000E+01 0.  1.
        -11    1    1    2    0    0  0.22951904896E+02  0.77242171737E+02  0.40693580762E+03  0.41483719042E+03  0.00000000000E+00 0. -1.
         11    1    1    2    0    0  0.29820641152E+02  0.43971521827E+02  0.66543005878E+02  0.85151259543E+02  0.00000000000E+00 0.  1.
</event>
<event>
 7    1  0.2899775E-009  0.1563793E+03  0.7561462E-02  0.1192846E+00
          4   -1    0    0  501    0  0.00000000000E+00  0.00000000000E+00  0.23913258004E+03  0.23913258004E+03  0.00000000000E+00 0. -1.
         -4   -1    0    0    0  501 -0.00000000000E+00 -0.00000000000E+00 -0.14530288709E+03  0.14530288709E+03  0.00000000000E+00 0.  1.
         25    2    1    2    0    0  0.12251428963E+03  0.43933328918E+02  0.12677816617E+03  0.22058963390E+03  0.12508874694E+03 0.  0.
          5    1    3    3  502    0  0.54569676275E+02 -0.30459428933E+02  0.55135946871E+01  0.62876851909E+02  0.41800000000E+01 0.  1.
         -5    1    3    3    0  502  0.67944613359E+02  0.74392757851E+02  0.12126457149E+03  0.15771278199E+03  0.41800000000E+01 0.  1.
        -11    1    1    2    0    0 -0.41907746671E+02 -0.53670402243E+02  0.14758452325E+02  0.69674839239E+02  0.00000000000E+00 0. -1.
         11    1    1    2    0    0 -0.80606542963E+02  0.97370733249E+01 -0.47706925543E+02  0.94170993996E+02  0.00000000000E+00 0.  1.
</event>
<event>
 7    1  0.2899775E-009  0.2455581E+03  0.7561462E-02  0.1116145E+00
          2   -1    0    0  501    0  0.00000000000E+00  0.00000000000E+00  0.90811572158E+03  0.90811572158E+03  0.00000000000E+00 0. -1.
         -2   -1    0    0    0  501 -0.00000000000E+00 -0.00000000000E+00 -0.86042278170E+02  0.86042278170E+02  0.00000000000E+00 0.  1.
         25    2    1    2    0    0  0.23081628139E+03 -0.25848864017E+02  0.61769404126E+03  0.67166839999E+03  0.12509273122E+03 0.  0.
          5    1    3    3  502    0  0.28422304761E+02 -0.33719404713E+02  0.40754851904E+02  0.60193488151E+02  0.41800000000E+01 0.  1.
         -5    1    3    3    0  502  0.20239397663E+03  0.78705406956E+01  0.57693918936E+03  0.61147491184E+03  0.41800000000E+01 0.  1.
        -11    1    1    2    0    0 -0.12560076639E+03  0.51794393264E+02  0.14585579016E+03  0.19932918305E+03  0.00000000000E+00 0. -1.
         11    1    1    2    0    0 -0.10521551500E+03 -0.25945529247E+02  0.58523611992E+02  0.12316041672E+03  0.00000000000E+00 0.  1.
</event>
<event>
 7    1  0.2899775E-009  0.3005122E+03  0.7561462E-02  0.1084985E+00
         -1   -1    0    0    0  501 -0.00000000000E+00  0.00000000000E+00  0.79490679209E+02  0.79490679209E+02  0.00000000000E+00 0.  1.
          1   -1    0    0  501    0  0.00000000000E+00 -0.00000000000E+00 -0.13037555721E+04  0.13037555721E+04  0.00000000000E+00 0. -1.
         25    2    1    2    0    0 -0.26961265384E+03 -0.96952529817E+02 -0.82962128475E+03  0.88657219749E+03  0.12509200260E+03 0.  0.
          5    1    3    3  502    0 -0.10873301850E+03  0.23365334316E+02 -0.31750229446E+03  0.33644314162E+03  0.41800000000E+01 0.  1.
         -5    1    3    3    0  502 -0.16087963534E+03 -0.12031786413E+03 -0.51211899029E+03  0.55012905587E+03  0.41800000000E+01 0.  1.
        -11    1    1    2    0    0  0.25012322727E+03  0.79020629480E+02 -0.30052320122E+03  0.39889858758E+03  0.00000000000E+00 0.  1.
         11    1    1    2    0    0  0.19489426568E+02  0.17931900337E+02 -0.94120406915E+02  0.97775466225E+02  0.00000000000E+00 0. -1.
</event>
<event>
 7    1  0.2899775E-009  0.1428427E+03  0.7561462E-02  0.1209554E+00
         -1   -1    0    0    0  501 -0.00000000000E+00  0.00000000000E+00  0.32430506771E+03  0.32430506771E+03  0.00000000000E+00 0.  1.
          1   -1    0    0  501    0  0.00000000000E+00 -0.00000000000E+00 -0.71477243262E+02  0.71477243262E+02  0.00000000000E+00 0. -1.
         25    2    1    2    0    0 -0.70616279237E+02  0.71267753960E+02  0.18106350313E+03  0.24186227569E+03  0.12509043364E+03 0.  0.
          5    1    3    3  502    0 -0.97225648080E+02  0.15818545062E+02  0.10690412150E+03  0.14542701471E+03  0.41800000000E+01 0.  1.
         -5    1    3    3    0  502  0.26609368843E+02  0.55449208898E+02  0.74159381630E+02  0.96435260985E+02  0.41800000000E+01 0.  1.
        -11    1    1    2    0    0 -0.14046608393E+02  0.10732164331E+01 -0.86769063408E+01  0.16545322738E+02  0.00000000000E+00 0. -1.
         11    1    1    2    0    0  0.84662887630E+02 -0.72340970393E+02  0.80441227659E+02  0.13737471254E+03  0.00000000000E+00 0.  1.
</event>
<event>
 7    1  0.2899775E-009  0.1510112E+03  0.7561462E-02  0.1199236E+00
          1   -1    0    0  501    0  0.00000000000E+00  0.00000000000E+00  0.90393468361E+03  0.90393468361E+03  0.00000000000E+00 0. -1.
         -1   -1    0    0    0  501 -0.00000000000E+00 -0.00000000000E+00 -0.32599798538E+02  0.32599798538E+02  0.00000000000E+00 0.  1.
         25    2    1    2    0    0 -0.62753105465E+02  0.11370548770E+03  0.36964716836E+03  0.41128244995E+03  0.12508930561E+03 0.  0.
          5    1    3    3  502    0 -0.73403275841E+02  0.69011963248E+02  0.11700018383E+03  0.15445778514E+03  0.41800000000E+01 0.  1.
         -5    1    3    3    0  502  0.10650170376E+02  0.44693524452E+02  0.25264698453E+03  0.25682466480E+03  0.41800000000E+01 0.  1.
        -11    1    1    2    0    0  0.45145150502E+02 -0.55662341645E+01  0.12849067316E+03  0.13630451447E+03  0.00000000000E+00 0.  1.
         11    1    1    2    0    0  0.17607954963E+02 -0.10813925354E+03  0.37319704354E+03  0.38894751772E+03  0.00000000000E+00 0. -1.
</event>
<event>
 7    1  0.2899775E-009  0.2502122E+03  0.7561462E-02  0.1113171E+00
         -2   -1    0    0    0  501 -0.00000000000E+00  0.00000000000E+00  0.33067045533E+03  0.33067045533E+03  0.00000000000E+00 0.  1.
          2   -1    0    0  501    0  0.00000000000E+00 -0.00000000000E+00 -0.20111067174E+03  0.20111067174E+03  0.00000000000E+00 0. -1.
         25    2    1    2    0    0 -0.70911737150E+02 -0.21763493370E+03  0.11225544039E+03  0.28397044050E+03  0.12507792909E+03 0.  0.
          5    1    3    3  502    0 -0.34713443812E+02  0.25404344582E+01  0.21645745642E+01  0.35123137269E+02  0.41800000000E+01 0.  1.
         -5    1    3    3    0  502 -0.36198293337E+02 -0.22017536816E+03  0.11009086583E+03  0.24884730323E+03  0.41800000000E+01 0.  1.
        -11    1    1    2    0    0  0.68526446884E+02  0.83400557993E+02 -0.16923110581E+02  0.10926078284E+03  0.00000000000E+00 0.  1.
         11    1    1    2    0    0  0.23852902657E+01  0.13423437571E+03  0.34227453776E+02  0.13854990373E+03  0.00000000000E+00 0. -1.
</event>
<event>
 7    1  0.2899775E-009  0.6452173E+02  0.7561462E-02  0.1379780E+00
         -2   -1    0    0    0  501 -0.00000000000E+00  0.00000000000E+00  0.21005118438E+02  0.21005118438E+02  0.00000000000E+00 0. -1.
          2   -1    0    0  501    0  0.00000000000E+00 -0.00000000000E+00 -0.80121819484E+03  0.80121819484E+03  0.00000000000E+00 0.  1.
         25    2    1    2    0    0  0.97744549048E+01  0.22221464450E+02 -0.64453993867E+03  0.65701802690E+03  0.12510644142E+03 0.  0.
          5    1    3    3  502    0 -0.18170076405E+02  0.23958843013E+02 -0.61624774656E+03  0.61699508537E+03  0.41800000000E+01 0. -1.
         -5    1    3    3    0  502  0.27944531310E+02 -0.17373785632E+01 -0.28292192111E+02  0.40022941532E+02  0.41800000000E+01 0. -1.
        -11    1    1    2    0    0 -0.18296174328E+02  0.20114501816E+02 -0.11340068315E+03  0.11661499954E+03  0.00000000000E+00 0.  1.
         11    1    1    2    0    0  0.85217194231E+01 -0.42335966266E+02 -0.22272454579E+02  0.48590286834E+02  0.00000000000E+00 0. -1.
</event>
<event>
 7    1  0.2899775E-009  0.1527564E+03  0.7561462E-02  0.1197126E+00
         -1   -1    0    0    0  501 -0.00000000000E+00  0.00000000000E+00  0.57748897893E+03  0.57748897893E+03  0.00000000000E+00 0.  1.
          1   -1    0    0  501    0  0.00000000000E+00 -0.00000000000E+00 -0.47332153138E+02  0.47332153138E+02  0.00000000000E+00 0. -1.
         25    2    1    2    0    0  0.81436867659E+02 -0.81007422263E+02  0.19068792995E+03  0.25534980804E+03  0.12508985555E+03 0.  0.
          5    1    3    3  502    0  0.11097300166E+03 -0.62171618635E+02  0.11369369172E+03  0.17065768426E+03  0.41800000000E+01 0.  1.
         -5    1    3    3    0  502 -0.29536133997E+02 -0.18835803628E+02  0.76994238229E+02  0.84692123780E+02  0.41800000000E+01 0.  1.
        -11    1    1    2    0    0 -0.50244845488E+01 -0.17549082083E+02  0.73253494366E+02  0.75493643202E+02  0.00000000000E+00 0.  1.
         11    1    1    2    0    0 -0.76412383110E+02  0.98556504346E+02  0.26621540147E+03  0.29397768082E+03  0.00000000000E+00 0. -1.
</event>
<event>
 7    1  0.2899775E-009  0.1306517E+03  0.7561462E-02  0.1226492E+00
         -1   -1    0    0    0  501 -0.00000000000E+00  0.00000000000E+00  0.55814629133E+02  0.55814629133E+02  0.00000000000E+00 0.  1.
          1   -1    0    0  501    0  0.00000000000E+00 -0.00000000000E+00 -0.37716757624E+03  0.37716757624E+03  0.00000000000E+00 0. -1.
         25    2    1    2    0    0  0.84379985781E+02 -0.30194046989E+01 -0.27337002263E+03  0.31226863255E+03  0.12510567850E+03 0.  0.
          5    1    3    3  502    0  0.11712857313E+03  0.35909724489E+01 -0.21137661551E+03  0.24172203812E+03  0.41800000000E+01 0. -1.
         -5    1    3    3    0  502 -0.32748587345E+02 -0.66103771477E+01 -0.61993407119E+02  0.70546594428E+02  0.41800000000E+01 0. -1.
        -11    1    1    2    0    0 -0.78984819976E+02  0.28773467531E+02 -0.32127861535E+02  0.89992853645E+02  0.00000000000E+00 0. -1.
         11    1    1    2    0    0 -0.53951658044E+01 -0.25754062832E+02 -0.15855062944E+02  0.30720719187E+02  0.00000000000E+00 0.  1.
</event>
<event>
 7    1  0.4331222E-009  0.1554812E+03  0.7561462E-02  0.1193895E+00
         -1   -1    0    0    0  501 -0.00000000000E+00  0.00000000000E+00  0.45586398430E+02  0.45586398430E+02  0.00000000000E+00 0.  1.
          1   -1    0    0  501    0  0.00000000000E+00 -0.00000000000E+00 -0.63806305881E+03  0.63806305881E+03  0.00000000000E+00 0. -1.
         25    2    1    2    0    0  0.45189141682E+02 -0.12165953075E+03 -0.28703733646E+03  0.33893820221E+03  0.12508226273E+03 0.  0.
          5    1    3    3  502    0 -0.41109357059E+02 -0.55093177517E+02 -0.85555037713E+02  0.10982884104E+03  0.41800000000E+01 0. -1.
         -5    1    3    3    0  502  0.86298498742E+02 -0.66566353236E+02 -0.20148229874E+03  0.22910936117E+03  0.41800000000E+01 0. -1.
        -11    1    1    2    0    0 -0.24253269393E+02  0.10001383179E+03 -0.12564271663E+03  0.16241022095E+03  0.00000000000E+00 0.  1.
         11    1    1    2    0    0 -0.20935872289E+02  0.21645698958E+02 -0.17979660730E+03  0.18230103408E+03  0.00000000000E+00 0. -1.
</event>
<event>
 7    1  0.2899775E-009  0.1112459E+03  0.7561462E-02  0.1258280E+00
          1   -1    0    0  501    0  0.00000000000E+00  0.00000000000E+00  0.43538012104E+03  0.43538012104E+03  0.00000000000E+00 0. -1.
         -1   -1    0    0    0  501 -0.00000000000E+00 -0.00000000000E+00 -0.35789745740E+02  0.35789745740E+02  0.00000000000E+00 0.  1.
         25    2    1    2    0    0  0.17857740901E+02  0.59517565647E+02  0.21068167329E+03  0.25277733318E+03  0.12509345777E+03 0.  0.
          5    1    3    3  502    0  0.62073546664E+02  0.26670628493E+02  0.17337348857E+03  0.18611901181E+03  0.41800000000E+01 0.  1.
         -5    1    3    3    0  502 -0.44215805763E+02  0.32846937154E+02  0.37308184719E+02  0.66658321361E+02  0.41800000000E+01 0.  1.
        -11    1    1    2    0    0 -0.51219897008E+01  0.19174181039E+02  0.93594397357E+01  0.21942723376E+02  0.00000000000E+00 0.  1.
         11    1    1    2    0    0 -0.12735751200E+02 -0.78691746686E+02  0.17954926228E+03  0.19644981023E+03  0.00000000000E+00 0. -1.
</event>
<event>
 7    1  0.2899775E-009  0.1149221E+03  0.7561462E-02  0.1251717E+00
         -2   -1    0    0    0  501 -0.00000000000E+00  0.00000000000E+00  0.29500889556E+02  0.29500889556E+02  0.00000000000E+00 0.  1.
          2   -1    0    0  501    0  0.00000000000E+00 -0.00000000000E+00 -0.62552096198E+03  0.62552096198E+03  0.00000000000E+00 0. -1.
         25    2    1    2    0    0 -0.33502094583E+01  0.79135787641E+02 -0.28583064122E+03  0.32190188266E+03  0.12509184550E+03 0.  0.
          5    1    3    3  502    0  0.58478921167E+02  0.40121778095E+02 -0.17703359855E+03  0.19075614988E+03  0.41800000000E+01 0.  1.
         -5    1    3    3    0  502 -0.61829130625E+02  0.39014009547E+02 -0.10879704266E+03  0.13114573278E+03  0.41800000000E+01 0.  1.
        -11    1    1    2    0    0  0.16672100979E+02 -0.59885514593E+02 -0.30198017486E+03  0.30831195211E+03  0.00000000000E+00 0. -1.
         11    1    1    2    0    0 -0.13321891521E+02 -0.19250273048E+02 -0.82092563536E+01  0.24808016768E+02  0.00000000000E+00 0.  1.
</event>
<event>
 7    1  0.2899775E-009  0.2293863E+03  0.7561462E-02  0.1127072E+00
          1   -1    0    0  501    0  0.00000000000E+00  0.00000000000E+00  0.38787171483E+03  0.38787171483E+03  0.00000000000E+00 0. -1.
         -1   -1    0    0    0  501 -0.00000000000E+00 -0.00000000000E+00 -0.15427311511E+03  0.15427311511E+03  0.00000000000E+00 0.  1.
         25    2    1    2    0    0  0.16336590235E+03 -0.13643603025E+03  0.17554249842E+03  0.30292462593E+03  0.12507978192E+03 0.  0.
          5    1    3    3  502    0  0.91274357753E+02  0.56516134093E-01  0.79193763244E+02  0.12091375486E+03  0.41800000000E+01 0.  1.
         -5    1    3    3    0  502  0.72091544597E+02 -0.13649254638E+03  0.96348735176E+02  0.18201087108E+03  0.41800000000E+01 0.  1.
        -11    1    1    2    0    0 -0.10242086110E+03  0.90347015077E+02  0.81810475732E+02  0.15920292039E+03  0.00000000000E+00 0. -1.
         11    1    1    2    0    0 -0.60945041247E+02  0.46089015169E+02 -0.23754374439E+02  0.80017283614E+02  0.00000000000E+00 0.  1.
</event>
<event>
 7    1  0.2899775E-009  0.1090066E+03  0.7561462E-02  0.1262421E+00
         -1   -1    0    0    0  501 -0.00000000000E+00  0.00000000000E+00  0.19897058828E+03  0.19897058828E+03  0.00000000000E+00 0. -1.
          1   -1    0    0  501    0  0.00000000000E+00 -0.00000000000E+00 -0.10176623623E+03  0.10176623623E+03  0.00000000000E+00 0.  1.
         25    2    1    2    0    0  0.69547146925E+02  0.52764917872E+02  0.87105461278E+02  0.17565905092E+03  0.12509116109E+03 0.  0.
          5    1    3    3  502    0  0.61292916531E+02 -0.12197484703E+02  0.90377171398E+02  0.10995956420E+03  0.41800000000E+01 0.  1.
         -5    1    3    3    0  502  0.82542303941E+01  0.64962402575E+02 -0.32717101203E+01  0.65699486717E+02  0.41800000000E+01 0.  1.
        -11    1    1    2    0    0 -0.45677076385E+01 -0.12521596350E+02 -0.34221371448E+02  0.36725421605E+02  0.00000000000E+00 0.  1.
         11    1    1    2    0    0 -0.64979439286E+02 -0.40243321522E+02  0.44320262218E+02  0.88352351979E+02  0.00000000000E+00 0. -1.
</event>
<event>
 7    1  0.2899775E-009  0.1608387E+03  0.7561462E-02  0.1187753E+00
         -2   -1    0    0    0  501 -0.00000000000E+00  0.00000000000E+00  0.21481011734E+03  0.21481011734E+03  0.00000000000E+00 0.  1.
          2   -1    0    0  501    0  0.00000000000E+00 -0.00000000000E+00 -0.15652607941E+03  0.15652607941E+03  0.00000000000E+00 0. -1.
         25    2    1    2    0    0  0.10960789223E+02 -0.13990138517E+03  0.77648087917E+02  0.20339553952E+03  0.12509190008E+03 0.  0.
          5    1    3    3  502    0  0.40131602879E+02 -0.11413767777E+03  0.53458346659E+01  0.12117757789E+03  0.41800000000E+01 0. -1.
         -5    1    3    3    0  502 -0.29170813656E+02 -0.25763707409E+02  0.72302253251E+02  0.82217961627E+02  0.41800000000E+01 0. -1.
        -11    1    1    2    0    0 -0.37434316203E+02  0.28712433172E+02 -0.25216205132E+02  0.53493820667E+02  0.00000000000E+00 0.  1.
         11    1    1    2    0    0  0.26473526980E+02  0.11118895200E+03  0.58521551424E+01  0.11444683656E+03  0.00000000000E+00 0. -1.
</event>
<event>
 7    1  0.2899775E-009  0.1591695E+03  0.7561462E-02  0.1189638E+00
         -1   -1    0    0    0  501 -0.00000000000E+00  0.00000000000E+00  0.12862319511E+03  0.12862319511E+03  0.00000000000E+00 0.  1.
          1   -1    0    0  501    0  0.00000000000E+00 -0.00000000000E+00 -0.24014883374E+03  0.24014883374E+03  0.00000000000E+00 0. -1.
         25    2    1    2    0    0  0.11410811749E+03  0.53928478876E+02 -0.11800244644E+03  0.21329203426E+03  0.12505987047E+03 0.  0.
          5    1    3    3  502    0  0.28213712952E+01 -0.25732129605E+02 -0.58286703354E+02  0.63913338340E+02  0.41800000000E+01 0. -1.
         -5    1    3    3    0  502  0.11128674619E+03  0.79660608481E+02 -0.59715743082E+02  0.14937869591E+03  0.41800000000E+01 0. -1.
        -11    1    1    2    0    0 -0.12973362324E+03 -0.45801258435E+02  0.35585904316E+01  0.13762714790E+03  0.00000000000E+00 0.  1.
         11    1    1    2    0    0  0.15625505757E+02 -0.81272204410E+01  0.29182173731E+01  0.17852846689E+02  0.00000000000E+00 0. -1.
</event>
<event>
 7    1  0.2899775E-009  0.9145035E+02  0.7561462E-02  0.1299377E+00
         -3   -1    0    0    0  501 -0.00000000000E+00  0.00000000000E+00  0.26132033605E+02  0.26132033605E+02  0.00000000000E+00 0.  1.
          3   -1    0    0  501    0  0.00000000000E+00 -0.00000000000E+00 -0.48196395000E+03  0.48196395000E+03  0.00000000000E+00 0. -1.
         25    2    1    2    0    0 -0.14597940666E+02  0.11650315222E+02 -0.18907268797E+03  0.22747937151E+03  0.12509817508E+03 0.  0.
          5    1    3    3  502    0  0.37536911183E+02 -0.15836645614E+02 -0.15269882422E+03  0.15809561147E+03  0.41800000000E+01 0.  1.
         -5    1    3    3    0  502 -0.52134851850E+02  0.27486960836E+02 -0.36373863750E+02  0.69383760042E+02  0.41800000000E+01 0.  1.
        -11    1    1    2    0    0  0.47593096443E+01 -0.46452003465E+02 -0.10583210742E+03  0.11567573045E+03  0.00000000000E+00 0. -1.
         11    1    1    2    0    0  0.98386310221E+01  0.34801688243E+02 -0.16092712100E+03  0.16494088165E+03  0.00000000000E+00 0.  1.
</event>
<event>
 7    1  0.2899775E-009  0.1158136E+03  0.7561462E-02  0.1250168E+00
          1   -1    0    0  501    0  0.00000000000E+00  0.00000000000E+00  0.75924890313E+03  0.75924890313E+03  0.00000000000E+00 0. -1.
         -1   -1    0    0    0  501 -0.00000000000E+00 -0.00000000000E+00 -0.22306311729E+02  0.22306311729E+02  0.00000000000E+00 0.  1.
         25    2    1    2    0    0 -0.47260784230E+02 -0.20823079823E+02  0.56020104188E+03  0.57632294238E+03  0.12512291640E+03 0.  0.
          5    1    3    3  502    0  0.41946395400E+02 -0.25169017642E+01  0.22600216297E+03  0.22991364672E+03  0.41800000000E+01 0.  1.
         -5    1    3    3    0  502 -0.89207179630E+02 -0.18306178059E+02  0.33419887891E+03  0.34640929566E+03  0.41800000000E+01 0.  1.
        -11    1    1    2    0    0  0.48213381086E+02  0.49758355072E+02  0.15239199666E+03  0.16740294101E+03  0.00000000000E+00 0. -1.
         11    1    1    2    0    0 -0.95259685649E+00 -0.28935275249E+02  0.24349552864E+02  0.37829331466E+02  0.00000000000E+00 0.  1.
</event>
<event>
 7    1  0.2899775E-009  0.1061280E+03  0.7561462E-02  0.1267913E+00
         -2   -1    0    0    0  501 -0.00000000000E+00  0.00000000000E+00  0.40656954768E+02  0.40656954768E+02  0.00000000000E+00 0.  1.
          2   -1    0    0  501    0  0.00000000000E+00 -0.00000000000E+00 -0.36975722685E+03  0.36975722685E+03  0.00000000000E+00 0. -1.
         25    2    1    2    0    0 -0.25310394920E+01  0.16616674254E+02 -0.95276323444E+02  0.15813024486E+03  0.12508028025E+03 0.  0.
          5    1    3    3  502    0 -0.13823233295E+02 -0.51999448965E+02 -0.26075005530E+02  0.59936656436E+02  0.41800000000E+01 0. -1.
         -5    1    3    3    0  502  0.11292193803E+02  0.68616123219E+02 -0.69201317914E+02  0.98193588424E+02  0.41800000000E+01 0. -1.
        -11    1    1    2    0    0 -0.31262155260E+02 -0.37559290577E+02 -0.83086791452E+02  0.96392103275E+02  0.00000000000E+00 0.  1.
         11    1    1    2    0    0  0.33793194752E+02  0.20942616323E+02 -0.15073715719E+03  0.15589183348E+03  0.00000000000E+00 0. -1.
</event>
<event>
 7    1  0.2899775E-009  0.1043486E+03  0.7561462E-02  0.1271408E+00
          2   -1    0    0  501    0  0.00000000000E+00  0.00000000000E+00  0.93859491995E+03  0.93859491995E+03  0.00000000000E+00 0. -1.
         -2   -1    0    0    0  501 -0.00000000000E+00 -0.00000000000E+00 -0.13305045834E+02  0.13305045834E+02  0.00000000000E+00 0.  1.
         25    2    1    2    0    0  0.90064457999E+01  0.20338640341E+01  0.67651276261E+03  0.68804260805E+03  0.12509140600E+03 0.  0.
          5    1    3    3  502    0  0.26112796704E+02 -0.55374467022E+02  0.42806624864E+03  0.43244236076E+03  0.41800000000E+01 0. -1.
         -5    1    3    3    0  502 -0.17106350904E+02  0.57408331056E+02  0.24844651396E+03  0.25560024729E+03  0.41800000000E+01 0. -1.
        -11    1    1    2    0    0 -0.47711411578E+02 -0.71423794832E+01  0.15311990999E+03  0.16054002372E+03  0.00000000000E+00 0.  1.
         11    1    1    2    0    0  0.38704965778E+02  0.51085154491E+01  0.95657201513E+02  0.10331733401E+03  0.00000000000E+00 0. -1.
</event>
<event>
 7    1  0.2899775E-009  0.9561882E+02  0.7561462E-02  0.1289788E+00
         -1   -1    0    0    0  501 -0.00000000000E+00  0.00000000000E+00  0.48280339660E+02  0.48280339660E+02  0.00000000000E+00 0.  1.
          1   -1    0    0  501    0  0.00000000000E+00 -0.00000000000E+00 -0.53033834449E+03  0.53033834449E+03  0.00000000000E+00 0. -1.
         25    2    1    2    0    0  0.80953246300E+02  0.33887472705E+02 -0.40127100235E+03  0.42937800435E+03  0.12508103133E+03 0.  0.
          5    1    3    3  502    0  0.20079237023E+02  0.17196512829E+02 -0.34085244570E+03  0.34190167878E+03  0.41800000000E+01 0. -1.
         -5    1    3    3    0  502  0.60874009277E+02  0.16690959877E+02 -0.60418556644E+02  0.87476325563E+02  0.41800000000E+01 0. -1.
        -11    1    1    2    0    0 -0.32027477088E+02  0.11936457053E+02  0.10707597312E+02  0.35817466909E+02  0.00000000000E+00 0.  1.
         11    1    1    2    0    0 -0.48925769213E+02 -0.45823929758E+02 -0.91494599790E+02  0.11342321289E+03  0.00000000000E+00 0. -1.
</event>
<event>
 7    1  0.2899775E-009  0.1157366E+03  0.7561462E-02  0.1250301E+00
          2   -1    0    0  501    0  0.00000000000E+00  0.00000000000E+00  0.17162723601E+04  0.17162723601E+04  0.00000000000E+00 0.  1.
         -2   -1    0    0    0  501 -0.00000000000E+00 -0.00000000000E+00 -0.16808539757E+02  0.16808539757E+02  0.00000000000E+00 0. -1.
         25    2    1    2    0    0  0.28950148755E+02  0.76335610072E+02  0.14284519145E+04  0.14362409205E+04  0.12509145948E+03 0.  0.
          5    1    3    3  502    0  0.35438239508E+02  0.89196190926E+02  0.14057675811E+04  0.14090464129E+04  0.41800000000E+01 0. -1.
         -5    1    3    3    0  502 -0.64880907537E+01 -0.12860580854E+02  0.22684333432E+02  0.27194507622E+02  0.41800000000E+01 0. -1.
        -11    1    1    2    0    0 -0.61031919084E+02 -0.50245736110E+02  0.19259357904E+03  0.20818697325E+03  0.00000000000E+00 0.  1.
         11    1    1    2    0    0  0.32081770330E+02 -0.26089873962E+02  0.78418326810E+02  0.88653006100E+02  0.00000000000E+00 0. -1.
</event>
<event>
 7    1  0.2899775E-009  0.1443328E+03  0.7561462E-02  0.1207615E+00
         -2   -1    0    0    0  501 -0.00000000000E+00  0.00000000000E+00  0.12128361644E+03  0.12128361644E+03  0.00000000000E+00 0. -1.
          2   -1    0    0  501    0  0.00000000000E+00 -0.00000000000E+00 -0.21978848090E+03  0.21978848090E+03  0.00000000000E+00 0.  1.
         25    2    1    2    0    0  0.11100527166E+03  0.44169504498E+02 -0.73104447068E+02  0.18779029608E+03  0.12509124533E+03 0.  0.
          5    1    3    3  502    0 -0.24407483021E+02 -0.33518352708E+01  0.32167155301E+01  0.25194834509E+02  0.41800000000E+01 0. -1.
         -5    1    3    3    0  502  0.13541275468E+03  0.47521339768E+02 -0.76321162598E+02  0.16259546158E+03  0.41800000000E+01 0. -1.
        -11    1    1    2    0    0 -0.13914060631E+02 -0.10170905681E+02 -0.45331179546E+02  0.48497053980E+02  0.00000000000E+00 0.  1.
         11    1    1    2    0    0 -0.97091211031E+02 -0.33998598816E+02  0.19930762152E+02  0.10478474727E+03  0.00000000000E+00 0. -1.
</event>
<event>
 7    1  0.2899775E-009  0.9105148E+02  0.7561462E-02  0.1300325E+00
          2   -1    0    0  501    0  0.00000000000E+00  0.00000000000E+00  0.72303395040E+03  0.72303395040E+03  0.00000000000E+00 0. -1.
         -2   -1    0    0    0  501 -0.00000000000E+00 -0.00000000000E+00 -0.27669604852E+02  0.27669604852E+02  0.00000000000E+00 0.  1.
         25    2    1    2    0    0  0.76461252290E+01 -0.11651955926E+02  0.61974596308E+03  0.63239786296E+03  0.12509103494E+03 0.  0.
          5    1    3    3  502    0 -0.19464799691E+02  0.45941301444E+02  0.41326712046E+03  0.41628916256E+03  0.41800000000E+01 0. -1.
         -5    1    3    3    0  502  0.27110924920E+02 -0.57593257370E+02  0.20647884261E+03  0.21610870041E+03  0.41800000000E+01 0. -1.
        -11    1    1    2    0    0 -0.25285641950E+01 -0.28073642127E+02  0.72900020759E+02  0.78159682995E+02  0.00000000000E+00 0. -1.
         11    1    1    2    0    0 -0.51175610340E+01  0.39725598053E+02  0.27183617086E+01  0.40146009291E+02  0.00000000000E+00 0.  1.
</event>
<event>
 7    1  0.2899775E-009  0.9802672E+02  0.7561462E-02  0.1284501E+00
          2   -1    0    0  501    0  0.00000000000E+00  0.00000000000E+00  0.47864117309E+03  0.47864117309E+03  0.00000000000E+00 0. -1.
         -2   -1    0    0    0  501 -0.00000000000E+00 -0.00000000000E+00 -0.26005218625E+02  0.26005218625E+02  0.00000000000E+00 0.  1.
         25    2    1    2    0    0 -0.23588410761E+01  0.96600131552E+01  0.20373336214E+03  0.23928250914E+03  0.12509978556E+03 0.  0.
          5    1    3    3  502    0  0.17910376057E+02 -0.43380584038E+02  0.16193739678E+03  0.16865304479E+03  0.41800000000E+01 0.  1.
         -5    1    3    3    0  502 -0.20269217134E+02  0.53040597193E+02  0.41795965360E+02  0.70629464349E+02  0.41800000000E+01 0.  1.
        -11    1    1    2    0    0  0.17427635632E+02  0.38112073449E+02  0.11513570686E+03  0.12252544070E+03  0.00000000000E+00 0.  1.
         11    1    1    2    0    0 -0.15068794556E+02 -0.47772086604E+02  0.13376688547E+03  0.14283844187E+03  0.00000000000E+00 0. -1.
</event>
<event>
 7    1  0.2899775E-009  0.9111277E+02  0.7561462E-02  0.1300179E+00
          1   -1    0    0  501    0  0.00000000000E+00  0.00000000000E+00  0.46498124472E+02  0.46498124472E+02  0.00000000000E+00 0. -1.
         -1   -1    0    0    0  501 -0.00000000000E+00 -0.00000000000E+00 -0.26338386317E+03  0.26338386317E+03  0.00000000000E+00 0.  1.
         25    2    1    2    0    0  0.44481990560E+01  0.20220586531E+02 -0.13973846928E+03  0.18868674483E+03  0.12508872565E+03 0.  0.
          5    1    3    3  502    0  0.58094831000E+02  0.24455503372E+02 -0.38555325825E+02  0.74007206295E+02  0.41800000000E+01 0.  1.
         -5    1    3    3    0  502 -0.53646631944E+02 -0.42349168410E+01 -0.10118314345E+03  0.11467953853E+03  0.41800000000E+01 0.  1.
        -11    1    1    2    0    0  0.28538186043E+02 -0.12752582016E+02 -0.81317178325E+02  0.87117965435E+02  0.00000000000E+00 0.  1.
         11    1    1    2    0    0 -0.32986385099E+02 -0.74680045149E+01  0.41699089036E+01  0.34077277380E+02  0.00000000000E+00 0. -1.
</event>
<event>
 7    1  0.2899775E-009  0.1189321E+03  0.7561462E-02  0.1244869E+00
         -2   -1    0    0    0  501 -0.00000000000E+00  0.00000000000E+00  0.84594446911E+02  0.84594446911E+02  0.00000000000E+00 0.  1.
          2   -1    0    0  501    0  0.00000000000E+00 -0.00000000000E+00 -0.20557706317E+03  0.20557706317E+03  0.00000000000E+00 0. -1.
         25    2    1    2    0    0  0.67817097125E+02 -0.23445934415E+02 -0.89377015654E+02  0.16966215394E+03  0.12509246599E+03 0.  0.
          5    1    3    3  502    0  0.32293526618E+02  0.47443937254E+02 -0.64535307073E+02  0.86464312306E+02  0.41800000000E+01 0.  1.
         -5    1    3    3    0  502  0.35523570507E+02 -0.70889871670E+02 -0.24841708581E+02  0.83197841631E+02  0.41800000000E+01 0.  1.
        -11    1    1    2    0    0  0.15130129460E+02  0.21642769623E+01 -0.31347582192E+02  0.34875146187E+02  0.00000000000E+00 0. -1.
         11    1    1    2    0    0 -0.82947226585E+02  0.21281657453E+02 -0.25801841641E+00  0.85634209961E+02  0.00000000000E+00 0.  1.
</event>
<event>
 7    1  0.2899775E-009  0.1117603E+03  0.7561462E-02  0.1257344E+00
          1   -1    0    0  501    0  0.00000000000E+00  0.00000000000E+00  0.13559273691E+02  0.13559273691E+02  0.00000000000E+00 0. -1.
         -1   -1    0    0    0  501 -0.00000000000E+00 -0.00000000000E+00 -0.98935293365E+03  0.98935293365E+03  0.00000000000E+00 0.  1.
         25    2    1    2    0    0 -0.69569040459E+01 -0.35163978763E+02 -0.59744636138E+03  0.61145246363E+03  0.12508819545E+03 0.  0.
          5    1    3    3  502    0  0.57184837935E+02 -0.22356990486E+02 -0.22409252517E+03  0.23238948545E+03  0.41800000000E+01 0. -1.
         -5    1    3    3    0  502 -0.64141741980E+02 -0.12806988277E+02 -0.37335383621E+03  0.37906297818E+03  0.41800000000E+01 0. -1.
        -11    1    1    2    0    0 -0.39511436039E+02  0.30146732109E+02 -0.24939216460E+03  0.25429595120E+03  0.00000000000E+00 0. -1.
         11    1    1    2    0    0  0.46468340084E+02  0.50172466542E+01 -0.12895513398E+03  0.13716379251E+03  0.00000000000E+00 0.  1.
</event>
<event>
 7    1  0.2899775E-009  0.8908545E+02  0.7561462E-02  0.1305082E+00
          1   -1    0    0  501    0  0.00000000000E+00  0.00000000000E+00  0.19698251587E+03  0.19698251587E+03  0.00000000000E+00 0. -1.
         -1   -1    0    0    0  501 -0.00000000000E+00 -0.00000000000E+00 -0.62789756343E+02  0.62789756343E+02  0.00000000000E+00 0.  1.
         25    2    1    2    0    0  0.14608654278E+02  0.71246345864E+01  0.65825860966E+02  0.14228445914E+03  0.12509056776E+03 0.  0.
          5    1    3    3  502    0  0.40380048687E+02 -0.26308196427E+02  0.83363639897E+02  0.96382770182E+02  0.41800000000E+01 0.  1.
         -5    1    3    3    0  502 -0.25771394409E+02  0.33432831014E+02 -0.17537778931E+02  0.45901688958E+02  0.41800000000E+01 0.  1.
        -11    1    1    2    0    0 -0.39646893173E+01 -0.46458859942E+02  0.59831053573E+02  0.75854461966E+02  0.00000000000E+00 0. -1.
         11    1    1    2    0    0 -0.10643964961E+02  0.39334225356E+02  0.85358449834E+01  0.41633351102E+02  0.00000000000E+00 0.  1.
</event>
<event>
 7    1  0.2899775E-009  0.1148584E+03  0.7561462E-02  0.1251828E+00
         -2   -1    0    0    0  501 -0.00000000000E+00  0.00000000000E+00  0.25968293467E+02  0.25968293467E+02  0.00000000000E+00 0.  1.
          2   -1    0    0  501    0  0.00000000000E+00 -0.00000000000E+00 -0.10015429165E+04  0.10015429165E+04  0.00000000000E+00 0. -1.
         25    2    1    2    0    0  0.80069250650E+02  0.82177747163E+01 -0.80216095421E+03  0.81583585615E+03  0.12508929207E+03 0.  0.
          5    1    3    3  502    0  0.90181507832E+02  0.29526330606E+02 -0.76945920772E+03  0.77529958938E+03  0.41800000000E+01 0.  1.
         -5    1    3    3    0  502 -0.10112257182E+02 -0.21308555890E+02 -0.32701746496E+02  0.40536266766E+02  0.41800000000E+01 0.  1.
        -11    1    1    2    0    0 -0.38930103121E+02  0.34105237948E+02 -0.12515741504E+03  0.13543669637E+03  0.00000000000E+00 0. -1.
         11    1    1    2    0    0 -0.41139147529E+02 -0.42323012664E+02 -0.48256253775E+02  0.76238657444E+02  0.00000000000E+00 0.  1.
</event>
<event>
 7    1  0.2899775E-009  0.9603379E+02  0.7561462E-02  0.1288865E+00
         -1   -1    0    0    0  501 -0.00000000000E+00  0.00000000000E+00  0.42975846340E+02  0.42975846340E+02  0.00000000000E+00 0.  1.
          1   -1    0    0  501    0  0.00000000000E+00 -0.00000000000E+00 -0.50269510735E+03  0.50269510735E+03  0.00000000000E+00 0. -1.
         25    2    1    2    0    0 -0.46843635211E+02  0.80610973146E+01 -0.40470290872E+03  0.42625338450E+03  0.12509274969E+03 0.  0.
          5    1    3    3  502    0  0.17044220573E+02 -0.20512781636E+02 -0.29386393079E+03  0.29510127394E+03  0.41800000000E+01 0. -1.
         -5    1    3    3    0  502 -0.63887855784E+02  0.28573878950E+02 -0.11083897793E+03  0.13115211056E+03  0.41800000000E+01 0. -1.
        -11    1    1    2    0    0  0.67674177144E+02 -0.20485058771E+02 -0.62147415519E+02  0.94136778894E+02  0.00000000000E+00 0. -1.
         11    1    1    2    0    0 -0.20830541933E+02  0.12423961456E+02  0.71310632222E+01  0.25280790299E+02  0.00000000000E+00 0.  1.
</event>
<event>
 7    1  0.2899775E-009  0.8263107E+02  0.7561462E-02  0.1321746E+00
         -2   -1    0    0    0  501 -0.00000000000E+00  0.00000000000E+00  0.35480183968E+03  0.35480183968E+03  0.00000000000E+00 0.  1.
          2   -1    0    0  501    0  0.00000000000E+00 -0.00000000000E+00 -0.46417718917E+02  0.46417718917E+02  0.00000000000E+00 0. -1.
         25    2    1    2    0    0 -0.80703466602E+01  0.27599623994E+02  0.26732929375E+03  0.29654481420E+03  0.12508799221E+03 0.  0.
          5    1    3    3  502    0 -0.16200739207E+02 -0.21679767756E+02  0.30495672612E+01  0.27554464997E+02  0.41800000000E+01 0. -1.
         -5    1    3    3    0  502  0.81303925472E+01  0.49279391750E+02  0.26427972649E+03  0.26899034920E+03  0.41800000000E+01 0. -1.
        -11    1    1    2    0    0  0.45686768506E+02 -0.14982810495E+02  0.43615970215E+02  0.64916240530E+02  0.00000000000E+00 0.  1.
         11    1    1    2    0    0 -0.37616421846E+02 -0.12616813499E+02 -0.25611431939E+01  0.39758503868E+02  0.00000000000E+00 0. -1.
</event>
<event>
 7    1  0.2992523E-009  0.1386834E+03  0.7561462E-02  0.1215112E+00
          2   -1    0    0  501    0  0.00000000000E+00  0.00000000000E+00  0.15316005689E+03  0.15316005689E+03  0.00000000000E+00 0. -1.
         -2   -1    0    0    0  501 -0.00000000000E+00 -0.00000000000E+00 -0.26852752645E+03  0.26852752645E+03  0.00000000000E+00 0.  1.
         25    2    1    2    0    0  0.54196272521E+02  0.91187917990E+02  0.79369646507E+02  0.18220772862E+03  0.12509054016E+03 0.  0.
          5    1    3    3  502    0 -0.11762868927E+02 -0.25176247960E+02  0.25507959932E+02  0.37951771588E+02  0.41800000000E+01 0. -1.
         -5    1    3    3    0  502  0.65959141447E+02  0.11636416595E+03  0.53861686575E+02  0.14425595703E+03  0.41800000000E+01 0. -1.
        -11    1    1    2    0    0 -0.74098988298E+01 -0.57040054120E+02 -0.30034068852E+02  0.64888517215E+02  0.00000000000E+00 0. -1.
         11    1    1    2    0    0 -0.46786373691E+02 -0.34147863871E+02 -0.16470304721E+03  0.17459133750E+03  0.00000000000E+00 0.  1.
</event>
<event>
 7    1  0.2899775E-009  0.1458985E+03  0.7561462E-02  0.1205605E+00
          2   -1    0    0  501    0  0.00000000000E+00  0.00000000000E+00  0.71330186673E+02  0.71330186673E+02  0.00000000000E+00 0. -1.
         -2   -1    0    0    0  501 -0.00000000000E+00 -0.00000000000E+00 -0.39235126839E+03  0.39235126839E+03  0.00000000000E+00 0.  1.
         25    2    1    2    0    0  0.37349518504E+02  0.11310844298E+03 -0.23406630049E+03  0.29090086252E+03  0.12509105638E+03 0.  0.
          5    1    3    3  502    0  0.33115850560E+01 -0.27005075703E+02 -0.27121853378E+02  0.38643344058E+02  0.41800000000E+01 0. -1.
         -5    1    3    3    0  502  0.34037933448E+02  0.14011351868E+03 -0.20694444711E+03  0.25225751846E+03  0.41800000000E+01 0. -1.
        -11    1    1    2    0    0 -0.22266816817E+01 -0.26046916205E+02 -0.73414288127E+02  0.77929825203E+02  0.00000000000E+00 0.  1.
         11    1    1    2    0    0 -0.35122836822E+02 -0.87061526774E+02 -0.13540493097E+02  0.94850767335E+02  0.00000000000E+00 0. -1.
</event>
<event>
 7    1  0.2899775E-009  0.6842224E+02  0.7561462E-02  0.1365542E+00
          2   -1    0    0  501    0  0.00000000000E+00  0.00000000000E+00  0.93666305274E+03  0.93666305274E+03  0.00000000000E+00 0.  1.
         -2   -1    0    0    0  501 -0.00000000000E+00 -0.00000000000E+00 -0.35146106996E+02  0.35146106996E+02  0.00000000000E+00 0. -1.
         25    2    1    2    0    0  0.16923555449E+02 -0.46076062492E+01  0.87649908846E+03  0.88555402067E+03  0.12509050599E+03 0.  0.
          5    1    3    3  502    0  0.83079310376E+01 -0.28520791814E+02  0.84182182482E+03  0.84235616840E+03  0.41800000000E+01 0. -1.
         -5    1    3    3    0  502  0.86156244117E+01  0.23913185565E+02  0.34677263636E+02  0.43197852275E+02  0.41800000000E+01 0. -1.
        -11    1    1    2    0    0  0.31193300215E+02 -0.61203577528E+01  0.20082467988E+01  0.31851433446E+02  0.00000000000E+00 0. -1.
         11    1    1    2    0    0 -0.48116855665E+02  0.10727964002E+02  0.23009610488E+02  0.54403705623E+02  0.00000000000E+00 0.  1.
</event>
<event>
 7    1  0.2899775E-009  0.1553547E+03  0.7561462E-02  0.1194043E+00
         -2   -1    0    0    0  501 -0.00000000000E+00  0.00000000000E+00  0.59849104973E+02  0.59849104973E+02  0.00000000000E+00 0.  1.
          2   -1    0    0  501    0  0.00000000000E+00 -0.00000000000E+00 -0.46457409150E+03  0.46457409150E+03  0.00000000000E+00 0. -1.
         25    2    1    2    0    0 -0.51044192473E+01 -0.11174555771E+03 -0.30174369960E+03  0.34526715464E+03  0.12508806124E+03 0.  0.
          5    1    3    3  502    0  0.43308231602E+02 -0.60893927143E+00 -0.11098945727E+03  0.11921453668E+03  0.41800000000E+01 0.  1.
         -5    1    3    3    0  502 -0.48412650850E+02 -0.11113661844E+03 -0.19075424233E+03  0.22605261796E+03  0.41800000000E+01 0.  1.
        -11    1    1    2    0    0 -0.15793572630E+02  0.12172237979E+03 -0.92719883824E+02  0.15382701822E+03  0.00000000000E+00 0.  1.
         11    1    1    2    0    0  0.20897991877E+02 -0.99768220771E+01 -0.10261403108E+02  0.25329023609E+02  0.00000000000E+00 0. -1.
</event>
<event>
 7    1  0.2899775E-009  0.1038326E+03  0.7561462E-02  0.1272437E+00
         -3   -1    0    0    0  501 -0.00000000000E+00  0.00000000000E+00  0.34262851375E+03  0.34262851375E+03  0.00000000000E+00 0.  1.
          3   -1    0    0  501    0  0.00000000000E+00 -0.00000000000E+00 -0.35798604125E+02  0.35798604125E+02  0.00000000000E+00 0. -1.
         25    2    1    2    0    0  0.72159892907E+01 -0.46419717045E+01  0.14167249126E+03  0.18917942350E+03  0.12507654094E+03 0.  0.
          5    1    3    3  502    0  0.65794162119E+02 -0.87245870630E+01  0.75081161286E+02  0.10029777350E+03  0.41800000000E+01 0.  1.
         -5    1    3    3    0  502 -0.58578172829E+02  0.40826153585E+01  0.66591329971E+02  0.88881650004E+02  0.41800000000E+01 0.  1.
        -11    1    1    2    0    0  0.35998139609E+02 -0.87628140715E+01  0.33197778954E+02  0.49746813901E+02  0.00000000000E+00 0. -1.
         11    1    1    2    0    0 -0.43214128900E+02  0.13404785776E+02  0.13195963941E+03  0.13950088047E+03  0.00000000000E+00 0.  1.
</event>
<event>
 7    1  0.2899775E-009  0.9315221E+02  0.7561462E-02  0.1295393E+00
         -2   -1    0    0    0  501 -0.00000000000E+00  0.00000000000E+00  0.70391976251E+02  0.70391976251E+02  0.00000000000E+00 0.  1.
          2   -1    0    0  501    0  0.00000000000E+00 -0.00000000000E+00 -0.10007959381E+04  0.10007959381E+04  0.00000000000E+00 0. -1.
         25    2    1    2    0    0  0.71106023829E+02  0.51010352515E+02 -0.92965729666E+03  0.94211169716E+03  0.12511449960E+03 0.  0.
          5    1    3    3  502    0  0.47491552927E+02  0.73384105870E+01 -0.10068360104E+03  0.11164210580E+03  0.41800000000E+01 0. -1.
         -5    1    3    3    0  502  0.23614470903E+02  0.43671941928E+02 -0.82897369562E+03  0.83046959136E+03  0.41800000000E+01 0. -1.
        -11    1    1    2    0    0 -0.90020534047E+01 -0.11631815135E+02  0.41665850966E+02  0.44185735544E+02  0.00000000000E+00 0.  1.
         11    1    1    2    0    0 -0.62103970425E+02 -0.39378537380E+02 -0.42412516176E+02  0.84890481664E+02  0.00000000000E+00 0. -1.
</event>
<event>
 7    1  0.2899775E-009  0.1301641E+03  0.7561462E-02  0.1227212E+00
          1   -1    0    0  501    0  0.00000000000E+00  0.00000000000E+00  0.26739398095E+03  0.26739398095E+03  0.00000000000E+00 0. -1.
         -1   -1    0    0    0  501 -0.00000000000E+00 -0.00000000000E+00 -0.10238302263E+03  0.10238302263E+03  0.00000000000E+00 0.  1.
         25    2    1    2    0    0  0.94558969686E+02  0.79475565921E+02  0.87901380626E+02  0.19655563596E+03  0.12509876492E+03 0.  0.
          5    1    3    3  502    0  0.98783409835E+02  0.58426886429E+02  0.95868059273E+01  0.11524427259E+03  0.41800000000E+01 0.  1.
         -5    1    3    3    0  502 -0.42244401496E+01  0.21048679492E+02  0.78314574699E+02  0.81311363371E+02  0.41800000000E+01 0.  1.
        -11    1    1    2    0    0 -0.80257285027E+02 -0.65183097145E+02  0.99192550400E+02  0.14328024989E+03  0.00000000000E+00 0. -1.
         11    1    1    2    0    0 -0.14301684659E+02 -0.14292468776E+02 -0.22082972702E+02  0.29941117734E+02  0.00000000000E+00 0.  1.
</event>
<event>
 7    1  0.2899775E-009  0.1559806E+03  0.7561462E-02  0.1193311E+00
         -1   -1    0    0    0  501 -0.00000000000E+00  0.00000000000E+00  0.47749847597E+02  0.47749847597E+02  0.00000000000E+00 0.  1.
          1   -1    0    0  501    0  0.00000000000E+00 -0.00000000000E+00 -0.66466188751E+03  0.66466188751E+03  0.00000000000E+00 0. -1.
         25    2    1    2    0    0  0.11774866307E+03  0.76462154525E+02 -0.34448062365E+03  0.39246344496E+03  0.12509774910E+03 0.  0.
          5    1    3    3  502    0  0.40197710438E+02 -0.11967631304E+02 -0.20808154433E+03  0.21230751663E+03  0.41800000000E+01 0. -1.
         -5    1    3    3    0  502  0.77550952632E+02  0.88429785830E+02 -0.13639907932E+03  0.18015592834E+03  0.41800000000E+01 0. -1.
        -11    1    1    2    0    0 -0.53572126079E+02 -0.69229749629E+02 -0.21995353367E+03  0.23673252396E+03  0.00000000000E+00 0. -1.
         11    1    1    2    0    0 -0.64176536991E+02 -0.72324048964E+01 -0.52477882594E+02  0.83215766188E+02  0.00000000000E+00 0.  1.
</event>
<event>
 7    1  0.2899775E-009  0.9790157E+02  0.7561462E-02  0.1284772E+00
         -3   -1    0    0    0  501 -0.00000000000E+00  0.00000000000E+00  0.65590449033E+02  0.65590449033E+02  0.00000000000E+00 0.  1.
          3   -1    0    0  501    0  0.00000000000E+00 -0.00000000000E+00 -0.23422828395E+03  0.23422828395E+03  0.00000000000E+00 0. -1.
         25    2    1    2    0    0  0.41997327274E+02 -0.23648127284E+02 -0.11214609833E+03  0.17478240603E+03  0.12509649342E+03 0.  0.
          5    1    3    3  502    0 -0.35253657421E+02 -0.38001250778E+01 -0.81960009244E+02  0.89398975539E+02  0.41800000000E+01 0. -1.
         -5    1    3    3    0  502  0.77250984695E+02 -0.19848002206E+02 -0.30186089081E+02  0.85383430488E+02  0.41800000000E+01 0. -1.
        -11    1    1    2    0    0 -0.38224560643E+02 -0.15246537188E+02  0.14803130939E+02  0.43734501462E+02  0.00000000000E+00 0.  1.
         11    1    1    2    0    0 -0.37727666304E+01  0.38894664472E+02 -0.71294867525E+02  0.81301825489E+02  0.00000000000E+00 0. -1.
</event>
<event>
 7    1  0.2899775E-009  0.2230569E+03  0.7561462E-02  0.1131624E+00
          3   -1    0    0  501    0  0.00000000000E+00  0.00000000000E+00  0.49232934494E+02  0.49232934494E+02  0.00000000000E+00 0. -1.
         -3   -1    0    0    0  501 -0.00000000000E+00 -0.00000000000E+00 -0.13401432161E+04  0.13401432161E+04  0.00000000000E+00 0.  1.
         25    2    1    2    0    0 -0.15414034261E+03  0.14734468730E+03 -0.90697199698E+03  0.94006120676E+03  0.12508863676E+03 0.  0.
          5    1    3    3  502    0 -0.61131087201E+01  0.10682849862E+02 -0.30461037012E+03  0.30488759136E+03  0.41800000000E+01 0.  1.
         -5    1    3    3    0  502 -0.14802723389E+03  0.13666183743E+03 -0.60236162686E+03  0.63517361540E+03  0.41800000000E+01 0.  1.
        -11    1    1    2    0    0  0.15924665974E+03 -0.10912975176E+03 -0.29722881700E+03  0.35442033098E+03  0.00000000000E+00 0. -1.
         11    1    1    2    0    0 -0.51063171240E+01 -0.38214935537E+02 -0.86709467577E+02  0.94894612809E+02  0.00000000000E+00 0.  1.
</event>
<event>
 7    1  0.2899775E-009  0.9843944E+02  0.7561462E-02  0.1283612E+00
          2   -1    0    0  501    0  0.00000000000E+00  0.00000000000E+00  0.18923823209E+03  0.18923823209E+03  0.00000000000E+00 0.  1.
         -2   -1    0    0    0  501 -0.00000000000E+00 -0.00000000000E+00 -0.10628798954E+03  0.10628798954E+03  0.00000000000E+00 0. -1.
         25    2    1    2    0    0 -0.91021920465E+01  0.21912667766E+02 -0.45375295633E+02  0.13515910823E+03  0.12508418035E+03 0.  0.
          5    1    3    3  502    0 -0.55951722323E+02  0.24199404744E+02 -0.60212389706E+02  0.85785842043E+02  0.41800000000E+01 0.  1.
         -5    1    3    3    0  502  0.46849530277E+02 -0.22867369784E+01  0.14837094073E+02  0.49373266184E+02  0.41800000000E+01 0.  1.
        -11    1    1    2    0    0 -0.32747639431E+02  0.11939806715E+02  0.22071926033E+02  0.41256960522E+02  0.00000000000E+00 0. -1.
         11    1    1    2    0    0  0.41849831477E+02 -0.33852474481E+02  0.10625361215E+03  0.11911015288E+03  0.00000000000E+00 0.  1.
</event>
<event>
 7    1  0.2899775E-009  0.1003286E+03  0.7561462E-02  0.1279606E+00
         -2   -1    0    0    0  501 -0.00000000000E+00  0.00000000000E+00  0.38751600746E+02  0.38751600746E+02  0.00000000000E+00 0.  1.
          2   -1    0    0  501    0  0.00000000000E+00 -0.00000000000E+00 -0.36679910914E+03  0.36679910914E+03  0.00000000000E+00 0. -1.
         25    2    1    2    0    0  0.15309207943E+02 -0.23663824746E+02 -0.11511091018E+03  0.17231069597E+03  0.12508439493E+03 0.  0.
          5    1    3    3  502    0  0.56720347277E+02  0.26603545964E+02 -0.60872784118E+02  0.87452356739E+02  0.41800000000E+01 0.  1.
         -5    1    3    3    0  502 -0.41411139333E+02 -0.50267370710E+02 -0.54238126058E+02  0.84858339232E+02  0.41800000000E+01 0.  1.
        -11    1    1    2    0    0 -0.13552239404E+02  0.47147667005E+02 -0.20088064044E+03  0.20678393893E+03  0.00000000000E+00 0. -1.
         11    1    1    2    0    0 -0.17569685390E+01 -0.23483842259E+02 -0.12055957786E+02  0.26456074989E+02  0.00000000000E+00 0.  1.
</event>
<event>
 7    1  0.2899775E-009  0.1318309E+03  0.7561462E-02  0.1224764E+00
          2   -1    0    0  501    0  0.00000000000E+00  0.00000000000E+00  0.37820268444E+03  0.37820268444E+03  0.00000000000E+00 0.  1.
         -2   -1    0    0    0  501 -0.00000000000E+00 -0.00000000000E+00 -0.56778007223E+02  0.56778007223E+02  0.00000000000E+00 0. -1.
         25    2    1    2    0    0  0.72253741481E+02 -0.69685766172E+02  0.23349709203E+03  0.28327650491E+03  0.12509187456E+03 0.  0.
          5    1    3    3  502    0  0.58208571417E+01  0.24245058497E+02  0.11621310011E+03  0.11893133429E+03  0.41800000000E+01 0.  1.
         -5    1    3    3    0  502  0.66432884339E+02 -0.93930824669E+02  0.11728399193E+03  0.16434517062E+03  0.41800000000E+01 0.  1.
        -11    1    1    2    0    0  0.80398945436E+01  0.34788180532E+02  0.30901114620E+02  0.47220083585E+02  0.00000000000E+00 0. -1.
         11    1    1    2    0    0 -0.80293636024E+02  0.34897585640E+02  0.57026470562E+02  0.10448410317E+03  0.00000000000E+00 0.  1.
</event>
<event>
 7    1  0.2899775E-009  0.8651910E+02  0.7561462E-02  0.1311507E+00
          2   -1    0    0  501    0  0.00000000000E+00  0.00000000000E+00  0.32170950902E+03  0.32170950902E+03  0.00000000000E+00 0. -1.
         -2   -1    0    0    0  501 -0.00000000000E+00 -0.00000000000E+00 -0.63689239529E+02  0.63689239529E+02  0.00000000000E+00 0.  1.
         25    2    1    2    0    0 -0.80263845661E+01 -0.31883688909E+02  0.19568982996E+02  0.13080959501E+03  0.12508881878E+03 0.  0.
          5    1    3    3  502    0 -0.48858939229E+02  0.12501803404E+02  0.42566671803E+02  0.66127792790E+02  0.41800000000E+01 0. -1.
         -5    1    3    3    0  502  0.40832554663E+02 -0.44385492313E+02 -0.22997688807E+02  0.64681802221E+02  0.41800000000E+01 0. -1.
        -11    1    1    2    0    0 -0.14182973293E+02 -0.80313753104E+01  0.55003877614E+01  0.17202150631E+02  0.00000000000E+00 0.  1.
         11    1    1    2    0    0  0.22209357859E+02  0.39915064220E+02  0.23295089873E+03  0.23738700291E+03  0.00000000000E+00 0. -1.
</event>
<event>
 7    1  0.2899775E-009  0.1171115E+03  0.7561462E-02  0.1247940E+00
         -2   -1    0    0    0  501 -0.00000000000E+00  0.00000000000E+00  0.24110216736E+02  0.24110216736E+02  0.00000000000E+00 0.  1.
          2   -1    0    0  501    0  0.00000000000E+00 -0.00000000000E+00 -0.60295868866E+03  0.60295868866E+03  0.00000000000E+00 0. -1.
         25    2    1    2    0    0 -0.15451729077E+02  0.22553380824E+02 -0.37564907633E+03  0.39687194378E+03  0.12509076823E+03 0.  0.
          5    1    3    3  502    0 -0.41357113658E+02  0.65580782024E+02 -0.22704821667E+03  0.23995752732E+03  0.41800000000E+01 0. -1.
         -5    1    3    3    0  502  0.25905384581E+02 -0.43027401200E+02 -0.14860085965E+03  0.15691441646E+03  0.41800000000E+01 0. -1.
        -11    1    1    2    0    0 -0.24996385101E+02 -0.50955664155E+02 -0.13028007041E+03  0.14210628319E+03  0.00000000000E+00 0.  1.
         11    1    1    2    0    0  0.40448114178E+02  0.28402283330E+02 -0.72919325190E+02  0.88090678423E+02  0.00000000000E+00 0. -1.
</event>
<event>
 7    1  0.2899775E-009  0.1996769E+03  0.7561462E-02  0.1150012E+00
         -2   -1    0    0    0  501 -0.00000000000E+00  0.00000000000E+00  0.59942038518E+02  0.59942038518E+02  0.00000000000E+00 0.  1.
          2   -1    0    0  501    0  0.00000000000E+00 -0.00000000000E+00 -0.76909046340E+03  0.76909046340E+03  0.00000000000E+00 0. -1.
         25    2    1    2    0    0 -0.84781408621E+02 -0.15629358964E+03 -0.27375272650E+03  0.34957669388E+03  0.12509091185E+03 0.  0.
          5    1    3    3  502    0  0.23116478965E+02 -0.84230475759E+02 -0.10408457157E+03  0.13594195484E+03  0.41800000000E+01 0. -1.
         -5    1    3    3    0  502 -0.10789788759E+03 -0.72063113881E+02 -0.16966815493E+03  0.21363473904E+03  0.41800000000E+01 0. -1.
        -11    1    1    2    0    0  0.18970752614E+02  0.94905582045E+01 -0.78071074366E+01  0.22603342149E+02  0.00000000000E+00 0.  1.
         11    1    1    2    0    0  0.65810656008E+02  0.14680303144E+03 -0.42758859094E+03  0.45685246589E+03  0.00000000000E+00 0. -1.
</event>
<event>
 7    1  0.2899775E-009  0.1220130E+03  0.7561462E-02  0.1239813E+00
         -4   -1    0    0    0  501 -0.00000000000E+00  0.00000000000E+00  0.48340374862E+03  0.48340374862E+03  0.00000000000E+00 0.  1.
          4   -1    0    0  501    0  0.00000000000E+00 -0.00000000000E+00 -0.45002058192E+02  0.45002058192E+02  0.00000000000E+00 0. -1.
         25    2    1    2    0    0  0.95635324105E+02 -0.20040940583E+02  0.22793739382E+03  0.27776027868E+03  0.12509021704E+03 0.  0.
          5    1    3    3  502    0  0.10221176736E+03 -0.56937072316E+01  0.23762781055E+03  0.25877424995E+03  0.41800000000E+01 0. -1.
         -5    1    3    3    0  502 -0.65764432546E+01 -0.14347233351E+02 -0.96904167332E+01  0.18986028737E+02  0.41800000000E+01 0. -1.
        -11    1    1    2    0    0 -0.30143347667E+02  0.45832159987E+02  0.14294626131E+03  0.15311055457E+03  0.00000000000E+00 0. -1.
         11    1    1    2    0    0 -0.65491976438E+02 -0.25791219404E+02  0.67518035297E+02  0.97534973555E+02  0.00000000000E+00 0.  1.
</event>
<event>
 7    1  0.2899775E-009  0.1932313E+03  0.7561462E-02  0.1155579E+00
          2   -1    0    0  501    0  0.00000000000E+00  0.00000000000E+00  0.19060382172E+03  0.19060382172E+03  0.00000000000E+00 0. -1.
         -2   -1    0    0    0  501 -0.00000000000E+00 -0.00000000000E+00 -0.23953685462E+03  0.23953685462E+03  0.00000000000E+00 0.  1.
         25    2    1    2    0    0 -0.17015771621E+03  0.89235780903E+01 -0.96668724698E+02  0.23243551821E+03  0.12509256236E+03 0.  0.
          5    1    3    3  502    0 -0.90724010682E+02  0.65257085128E+02 -0.67791746369E+02  0.13077662845E+03  0.41800000000E+01 0.  1.
         -5    1    3    3    0  502 -0.79433705532E+02 -0.56333507038E+02 -0.28876978329E+02  0.10165888976E+03  0.41800000000E+01 0.  1.
        -11    1    1    2    0    0  0.93823587763E+02  0.19272208281E+02 -0.12316005649E+02  0.96571049636E+02  0.00000000000E+00 0.  1.
         11    1    1    2    0    0  0.76334128451E+02 -0.28195786371E+02  0.60051697447E+02  0.10113410850E+03  0.00000000000E+00 0. -1.
</event>
<event>
 7    1  0.2899775E-009  0.1223139E+03  0.7561462E-02  0.1239328E+00
          2   -1    0    0  501    0  0.00000000000E+00  0.00000000000E+00  0.99160494136E+02  0.99160494136E+02  0.00000000000E+00 0. -1.
         -2   -1    0    0    0  501 -0.00000000000E+00 -0.00000000000E+00 -0.28052103101E+03  0.28052103101E+03  0.00000000000E+00 0.  1.
         25    2    1    2    0    0 -0.60586437701E+02  0.79699876445E+02 -0.18363928094E+03  0.24370855935E+03  0.12509072570E+03 0.  0.
          5    1    3    3  502    0 -0.77385380273E+02  0.55415603695E+02 -0.51610769141E+02  0.10835372677E+03  0.41800000000E+01 0.  1.
         -5    1    3    3    0  502  0.16798942572E+02  0.24284272749E+02 -0.13202851180E+03  0.13535483258E+03  0.41800000000E+01 0.  1.
        -11    1    1    2    0    0  0.55335008976E+02 -0.91322163840E+02  0.25227529160E+02  0.10971840800E+03  0.00000000000E+00 0. -1.
         11    1    1    2    0    0  0.52514287254E+01  0.11622287395E+02 -0.22948785098E+02  0.26254557803E+02  0.00000000000E+00 0.  1.
</event>
<event>
 7    1  0.2899775E-009  0.1614282E+03  0.7561462E-02  0.1187094E+00
          1   -1    0    0  501    0  0.00000000000E+00  0.00000000000E+00  0.82557058006E+03  0.82557058006E+03  0.00000000000E+00 0. -1.
         -1   -1    0    0    0  501 -0.00000000000E+00 -0.00000000000E+00 -0.49118323664E+02  0.49118323664E+02  0.00000000000E+00 0.  1.
         25    2    1    2    0    0  0.83743919568E+01 -0.15153731906E+03  0.24806468773E+03  0.31656964031E+03  0.12508620373E+03 0.  0.
          5    1    3    3  502    0 -0.27608718351E+02 -0.10038406247E+03  0.64369954119E+02  0.12247515960E+03  0.41800000000E+01 0.  1.
         -5    1    3    3    0  502  0.35983110308E+02 -0.51153256592E+02  0.18369473361E+03  0.19409448071E+03  0.41800000000E+01 0.  1.
        -11    1    1    2    0    0 -0.20439284571E+02  0.54699573670E+02  0.34950593667E+03  0.35435040212E+03  0.00000000000E+00 0. -1.
         11    1    1    2    0    0  0.12064892614E+02  0.96837745389E+02  0.17888163200E+03  0.20376886129E+03  0.00000000000E+00 0.  1.
</event>
<event>
 7    1  0.2899775E-009  0.5577437E+02  0.7561462E-02  0.1416472E+00
         -2   -1    0    0    0  501 -0.00000000000E+00  0.00000000000E+00  0.11126484315E+03  0.11126484315E+03  0.00000000000E+00 0.  1.
          2   -1    0    0  501    0  0.00000000000E+00 -0.00000000000E+00 -0.16152054185E+03  0.16152054185E+03  0.00000000000E+00 0. -1.
         25    2    1    2    0    0 -0.80067924443E+01  0.23453849578E+02 -0.10570354334E+03  0.16563473850E+03  0.12508971076E+03 0.  0.
          5    1    3    3  502    0  0.49538173957E+01 -0.10842133727E+02 -0.12386459236E+03  0.12450703519E+03  0.41800000000E+01 0.  1.
         -5    1    3    3    0  502 -0.12960609840E+02  0.34295983304E+02  0.18161049022E+02  0.41127703313E+02  0.41800000000E+01 0.  1.
        -11    1    1    2    0    0  0.74097561613E+01  0.18567041621E+02 -0.15087185526E+02  0.25045212876E+02  0.00000000000E+00 0. -1.
         11    1    1    2    0    0  0.59703628295E+00 -0.42020891199E+02  0.70535030168E+02  0.82105433622E+02  0.00000000000E+00 0.  1.
</event>
<event>
 6    1  0.2899775E-009  0.2663450E+03  0.7561462E-02  0.1103390E+00
          3   -1    0    0  501    0  0.00000000000E+00  0.00000000000E+00  0.60337593213E+03  0.60337593213E+03  0.00000000000E+00 0. -1.
         -3   -1    0    0    0  501 -0.00000000000E+00 -0.00000000000E+00 -0.15943950681E+03  0.15943950681E+03  0.00000000000E+00 0.  1.
          5    1    1    2  502    0 -0.98858142841E+01  0.98589964176E+01  0.45500552928E+02  0.47777629192E+02  0.41800000000E+01 0.  1.
         -5    1    1    2    0  502 -0.14036949731E+03  0.19976630969E+03  0.16137450617E+02  0.24472037916E+03  0.41800000000E+01 0.  1.
        -11    1    1    2    0    0  0.11924259068E+03 -0.87434960376E+02  0.20902801413E+03  0.25603979851E+03  0.00000000000E+00 0.  1.
         11    1    1    2    0    0  0.31012720917E+02 -0.12219034573E+03  0.17327040764E+03  0.21427763209E+03  0.00000000000E+00 0. -1.
</event>
<event>
 7    1  0.2899775E-009  0.1116170E+03  0.7561462E-02  0.1257604E+00
          1   -1    0    0  501    0  0.00000000000E+00  0.00000000000E+00  0.13190618377E+04  0.13190618377E+04  0.00000000000E+00 0. -1.
         -1   -1    0    0    0  501 -0.00000000000E+00 -0.00000000000E+00 -0.11810002633E+02  0.11810002633E+02  0.00000000000E+00 0.  1.
         25    2    1    2    0    0 -0.13543543643E+02  0.31488241211E+02  0.99789713835E+03  0.10062908036E+04  0.12509015076E+03 0.  0.
          5    1    3    3  502    0 -0.64524100627E+02 -0.77116443200E+01  0.47822955726E+03  0.48264252906E+03  0.41800000000E+01 0.  1.
         -5    1    3    3    0  502  0.50980556984E+02  0.39199885531E+02  0.51966758109E+03  0.52364827456E+03  0.41800000000E+01 0.  1.
        -11    1    1    2    0    0 -0.26612756214E+02 -0.44163694449E+02  0.21759000706E+03  0.22361592491E+03  0.00000000000E+00 0. -1.
         11    1    1    2    0    0  0.40156299856E+02  0.12675453238E+02  0.91764689630E+02  0.10096511178E+03  0.00000000000E+00 0.  1.
</event>
<event>
 7    1  0.3201789E-009  0.1459324E+03  0.7561462E-02  0.1205562E+00
         -2   -1    0    0    0  501 -0.00000000000E+00  0.00000000000E+00  0.65396679587E+02  0.65396679587E+02  0.00000000000E+00 0.  1.
          2   -1    0    0  501    0  0.00000000000E+00 -0.00000000000E+00 -0.39657909429E+03  0.39657909429E+03  0.00000000000E+00 0. -1.
         25    2    1    2    0    0 -0.34684439618E+02  0.10866618428E+03 -0.22328484007E+03  0.28020533058E+03  0.12509019755E+03 0.  0.
          5    1    3    3  502    0 -0.79662652553E+02  0.69085144301E+02 -0.11290924565E+03  0.15454729220E+03  0.41800000000E+01 0. -1.
         -5    1    3    3    0  502  0.44978212935E+02  0.39581039981E+02 -0.11037559442E+03  0.12565803838E+03  0.41800000000E+01 0. -1.
        -11    1    1    2    0    0  0.48458323905E+02 -0.69236231817E+02 -0.11143349845E+03  0.13985452989E+03  0.00000000000E+00 0. -1.
         11    1    1    2    0    0 -0.13773884287E+02 -0.39429952464E+02  0.35359238207E+01  0.41915913409E+02  0.00000000000E+00 0.  1.
</event>
<event>
 7    1  0.2899775E-009  0.9428217E+02  0.7561462E-02  0.1292801E+00
          2   -1    0    0  501    0  0.00000000000E+00  0.00000000000E+00  0.51653326353E+03  0.51653326353E+03  0.00000000000E+00 0. -1.
         -2   -1    0    0    0  501 -0.00000000000E+00 -0.00000000000E+00 -0.24313093282E+02  0.24313093282E+02  0.00000000000E+00 0.  1.
         25    2    1    2    0    0 -0.26046287445E+02  0.24151847718E+02  0.28179763444E+03  0.31035688203E+03  0.12509902720E+03 0.  0.
          5    1    3    3  502    0 -0.38530931542E+02  0.61153200063E+02  0.94828553588E+02  0.11930747478E+03  0.41800000000E+01 0. -1.
         -5    1    3    3    0  502  0.12484644097E+02 -0.37001352345E+02  0.18696908085E+03  0.19104940724E+03  0.41800000000E+01 0. -1.
        -11    1    1    2    0    0  0.10392230553E+02 -0.47586426512E+02  0.59195082961E+02  0.76658491316E+02  0.00000000000E+00 0.  1.
         11    1    1    2    0    0  0.15654056892E+02  0.23434578794E+02  0.15122745285E+03  0.15383098347E+03  0.00000000000E+00 0. -1.
</event>
<event>
 7    1  0.2899775E-009  0.1654806E+03  0.7561462E-02  0.1182645E+00
         -1   -1    0    0    0  501 -0.00000000000E+00  0.00000000000E+00  0.47002649120E+02  0.47002649120E+02  0.00000000000E+00 0.  1.
          1   -1    0    0  501    0  0.00000000000E+00 -0.00000000000E+00 -0.82484941975E+03  0.82484941975E+03  0.00000000000E+00 0. -1.
         25    2    1    2    0    0 -0.12261101082E+03 -0.69854929844E+02 -0.59433952641E+03  0.62353302232E+03  0.12506312835E+03 0.  0.
          5    1    3    3  502    0  0.66462541675E+01 -0.47047567160E+02 -0.25979742234E+03  0.26413977232E+03  0.41800000000E+01 0. -1.
         -5    1    3    3    0  502 -0.12925726499E+03 -0.22807362684E+02 -0.33454210407E+03  0.35939325000E+03  0.41800000000E+01 0. -1.
        -11    1    1    2    0    0  0.41987114218E+02 -0.45492759850E+01 -0.10599163927E+02  0.43542576271E+02  0.00000000000E+00 0.  1.
         11    1    1    2    0    0  0.80623896606E+02  0.74404205829E+02 -0.17290808029E+03  0.20477647028E+03  0.00000000000E+00 0. -1.
</event>
<event>
 7    1  0.2899775E-009  0.1002968E+03  0.7561462E-02  0.1279673E+00
         -1   -1    0    0    0  501 -0.00000000000E+00  0.00000000000E+00  0.98857951947E+02  0.98857951947E+02  0.00000000000E+00 0.  1.
          1   -1    0    0  501    0  0.00000000000E+00 -0.00000000000E+00 -0.24615113540E+03  0.24615113540E+03  0.00000000000E+00 0. -1.
         25    2    1    2    0    0  0.58418785888E+02 -0.15253929982E+01  0.26971310712E+02  0.14067937152E+03  0.12509257613E+03 0.  0.
          5    1    3    3  502    0 -0.34275943995E+02  0.14385209688E+02 -0.11267535845E+02  0.39066665567E+02  0.41800000000E+01 0.  1.
         -5    1    3    3    0  502  0.92694729883E+02 -0.15910602687E+02  0.38238846557E+02  0.10161270596E+03  0.41800000000E+01 0.  1.
        -11    1    1    2    0    0 -0.27199193062E+02  0.19083008575E+02 -0.78986761516E+01  0.34151814073E+02  0.00000000000E+00 0.  1.
         11    1    1    2    0    0 -0.31219592826E+02 -0.17557615577E+02 -0.16636581802E+03  0.17017790175E+03  0.00000000000E+00 0. -1.
</event>
<event>
 7    1  0.2899775E-009  0.8323916E+02  0.7561462E-02  0.1320103E+00
          1   -1    0    0  501    0  0.00000000000E+00  0.00000000000E+00  0.31286577160E+02  0.31286577160E+02  0.00000000000E+00 0. -1.
         -1   -1    0    0    0  501 -0.00000000000E+00 -0.00000000000E+00 -0.40130696253E+03  0.40130696253E+03  0.00000000000E+00 0.  1.
         25    2    1    2    0    0 -0.26990301252E+02 -0.14801112211E+02 -0.24168735381E+03  0.27387574349E+03  0.12509035373E+03 0.  0.
          5    1    3    3  502    0  0.25035884098E+02 -0.44857108402E+00  0.82073352788E+00  0.25399659685E+02  0.41800000000E+01 0. -1.
         -5    1    3    3    0  502 -0.52026185350E+02 -0.14352541127E+02 -0.24250808734E+03  0.24847608380E+03  0.41800000000E+01 0. -1.
        -11    1    1    2    0    0 -0.18813524781E+02  0.32747110426E+02 -0.28134316109E+02  0.47094179034E+02  0.00000000000E+00 0. -1.
         11    1    1    2    0    0  0.45803826033E+02 -0.17945998215E+02 -0.10019871546E+03  0.11162361717E+03  0.00000000000E+00 0.  1.
</event>
<event>
 7    1  0.3348865E-009  0.2219245E+03  0.7561462E-02  0.1132456E+00
         -1   -1    0    0    0  501 -0.00000000000E+00  0.00000000000E+00  0.44349915223E+03  0.44349915223E+03  0.00000000000E+00 0.  1.
          1   -1    0    0  501    0  0.00000000000E+00 -0.00000000000E+00 -0.14829671683E+03  0.14829671683E+03  0.00000000000E+00 0. -1.
         25    2    1    2    0    0  0.10033476534E+03  0.18480892856E+03  0.26504131088E+03  0.36071497678E+03  0.12508794024E+03 0.  0.
          5    1    3    3  502    0  0.38362467137E+02  0.10990473749E+02  0.30626737141E+01  0.40240797312E+02  0.41800000000E+01 0.  1.
         -5    1    3    3    0  502  0.61972298200E+02  0.17381845481E+03  0.26197863717E+03  0.32047417947E+03  0.41800000000E+01 0.  1.
        -11    1    1    2    0    0 -0.54447929609E+02 -0.40911422832E+02 -0.21556018297E+02  0.71435169781E+02  0.00000000000E+00 0. -1.
         11    1    1    2    0    0 -0.45886835727E+02 -0.14389750573E+03  0.51717142816E+02  0.15964572249E+03  0.00000000000E+00 0.  1.
</event>
<event>
 7    1  0.2899775E-009  0.7095491E+02  0.7561462E-02  0.1356876E+00
         -1   -1    0    0    0  501 -0.00000000000E+00  0.00000000000E+00  0.39195304456E+02  0.39195304456E+02  0.00000000000E+00 0.  1.
          1   -1    0    0  501    0  0.00000000000E+00 -0.00000000000E+00 -0.30081080754E+03  0.30081080754E+03  0.00000000000E+00 0. -1.
         25    2    1    2    0    0 -0.15688343628E+02  0.15866966547E+02 -0.21074505353E+03  0.24608200563E+03  0.12507993904E+03 0.  0.
          5    1    3    3  502    0  0.98742168681E+00 -0.25463179922E+02  0.45170606612E+01  0.26214972255E+02  0.41800000000E+01 0. -1.
         -5    1    3    3    0  502 -0.16675765315E+02  0.41330146469E+02 -0.21526211419E+03  0.21986703337E+03  0.41800000000E+01 0. -1.
        -11    1    1    2    0    0  0.21889658065E+02  0.23124817950E+02 -0.31637745184E+01  0.31998809425E+02  0.00000000000E+00 0.  1.
         11    1    1    2    0    0 -0.62013144370E+01 -0.38991784497E+02 -0.47706675029E+02  0.61925296942E+02  0.00000000000E+00 0. -1.
</event>
<event>
 7    1  0.2899775E-009  0.1474072E+03  0.7561462E-02  0.1203696E+00
         -1   -1    0    0    0  501 -0.00000000000E+00  0.00000000000E+00  0.41365863279E+02  0.41365863279E+02  0.00000000000E+00 0.  1.
          1   -1    0    0  501    0  0.00000000000E+00 -0.00000000000E+00 -0.60253191915E+03  0.60253191915E+03  0.00000000000E+00 0. -1.
         25    2    1    2    0    0 -0.10244156516E+03  0.45624349625E+02 -0.25783162932E+03  0.30773281043E+03  0.12508588244E+03 0.  0.
          5    1    3    3  502    0  0.24077993941E+02  0.29445783238E+02 -0.40619565929E+02  0.55805245981E+02  0.41800000000E+01 0.  1.
         -5    1    3    3    0  502 -0.12651955910E+03  0.16178566387E+02 -0.21721206339E+03  0.25192756444E+03  0.41800000000E+01 0.  1.
        -11    1    1    2    0    0  0.90126839255E+01 -0.33532057780E+02 -0.16620322874E+03  0.16979146213E+03  0.00000000000E+00 0. -1.
         11    1    1    2    0    0  0.93428881238E+02 -0.12092291844E+02 -0.13713119781E+03  0.16637350987E+03  0.00000000000E+00 0.  1.
</event>
<event>
 7    1  0.2899775E-009  0.1211310E+03  0.7561462E-02  0.1241243E+00
          1   -1    0    0  501    0  0.00000000000E+00  0.00000000000E+00  0.84927801104E+02  0.84927801104E+02  0.00000000000E+00 0. -1.
         -1   -1    0    0    0  501 -0.00000000000E+00 -0.00000000000E+00 -0.26273838534E+03  0.26273838534E+03  0.00000000000E+00 0.  1.
         25    2    1    2    0    0  0.83531985641E+02  0.43532969616E+02 -0.54409312268E+02  0.16577366506E+03  0.12509125748E+03 0.  0.
          5    1    3    3  502    0  0.10404242704E+03  0.83029185911E+01 -0.93618621693E+01  0.10487555456E+03  0.41800000000E+01 0.  1.
         -5    1    3    3    0  502 -0.20510441400E+02  0.35230051025E+02 -0.45047450099E+02  0.60898110497E+02  0.41800000000E+01 0.  1.
        -11    1    1    2    0    0 -0.72508431145E+02 -0.27886754726E+02 -0.24944561485E+02  0.81592737569E+02  0.00000000000E+00 0. -1.
         11    1    1    2    0    0 -0.11023554496E+02 -0.15646214890E+02 -0.98456710480E+02  0.10029978381E+03  0.00000000000E+00 0.  1.
</event>
<event>
 7    1  0.2899775E-009  0.8868553E+02  0.7561462E-02  0.1306066E+00
         -1   -1    0    0    0  501 -0.00000000000E+00  0.00000000000E+00  0.55750147332E+02  0.55750147332E+02  0.00000000000E+00 0.  1.
          1   -1    0    0  501    0  0.00000000000E+00 -0.00000000000E+00 -0.23125394953E+03  0.23125394953E+03  0.00000000000E+00 0. -1.
         25    2    1    2    0    0  0.20873575709E+02  0.15730467367E+02 -0.74103297775E+02  0.14772363345E+03  0.12509124418E+03 0.  0.
          5    1    3    3  502    0 -0.84251315397E+01 -0.52530919985E+02 -0.29498325964E+02  0.60976257926E+02  0.41800000000E+01 0. -1.
         -5    1    3    3    0  502  0.29298707249E+02  0.68261387353E+02 -0.44604971811E+02  0.86747375522E+02  0.41800000000E+01 0. -1.
        -11    1    1    2    0    0 -0.80374344782E+01 -0.29620112218E+02 -0.11300018524E+03  0.11709395060E+03  0.00000000000E+00 0. -1.
         11    1    1    2    0    0 -0.12836141231E+02  0.13889644851E+02  0.11599680823E+02  0.22186512817E+02  0.00000000000E+00 0.  1.
</event>
<event>
 7    1  0.2899775E-009  0.1179562E+03  0.7561462E-02  0.1246507E+00
         -2   -1    0    0    0  501 -0.00000000000E+00  0.00000000000E+00  0.13613721764E+03  0.13613721764E+03  0.00000000000E+00 0.  1.
          2   -1    0    0  501    0  0.00000000000E+00 -0.00000000000E+00 -0.15693898713E+03  0.15693898713E+03  0.00000000000E+00 0. -1.
         25    2    1    2    0    0 -0.86503133869E+02  0.42681960170E+02 -0.28317273259E+02  0.16048197990E+03  0.12509219006E+03 0.  0.
          5    1    3    3  502    0 -0.41804638810E+02  0.61098216308E+00  0.47122223591E+02  0.63134598133E+02  0.41800000000E+01 0. -1.
         -5    1    3    3    0  502 -0.44698495059E+02  0.42070978007E+02 -0.75439496850E+02  0.97347381762E+02  0.41800000000E+01 0. -1.
        -11    1    1    2    0    0 -0.11145589122E+01 -0.44714055533E+02  0.33793526083E+01  0.44855423617E+02  0.00000000000E+00 0. -1.
         11    1    1    2    0    0  0.87617692781E+02  0.20320953632E+01  0.41361511657E+01  0.87738801259E+02  0.00000000000E+00 0.  1.
</event>
<event>
 6    1  0.2899775E-009  0.8339368E+02  0.7561462E-02  0.1319687E+00
          1   -1    0    0  501    0  0.00000000000E+00  0.00000000000E+00  0.52741043470E+03  0.52741043470E+03  0.00000000000E+00 0.  1.
         -1   -1    0    0    0  501 -0.00000000000E+00 -0.00000000000E+00 -0.29340841227E+02  0.29340841227E+02  0.00000000000E+00 0. -1.
          5    1    1    2  502    0 -0.43176364146E+02  0.51138569916E+02  0.42745777191E+02  0.79523742502E+02  0.41800000000E+01 0.  1.
         -5    1    1    2    0  502  0.11769807978E+02 -0.29066002445E+01  0.19320497568E+03  0.19363008994E+03  0.41800000000E+01 0.  1.
        -11    1    1    2    0    0 -0.19991288813E+02 -0.76023309298E+01  0.10957708930E+02  0.24031613532E+02  0.00000000000E+00 0. -1.
         11    1    1    2    0    0  0.51397844981E+02 -0.40629638741E+02  0.25116113167E+03  0.25956582995E+03  0.00000000000E+00 0.  1.
</event>
<event>
 7    1  0.2899775E-009  0.1097187E+03  0.7561462E-02  0.1261092E+00
          2   -1    0    0  501    0  0.00000000000E+00  0.00000000000E+00  0.59492007799E+03  0.59492007799E+03  0.00000000000E+00 0. -1.
         -2   -1    0    0    0  501 -0.00000000000E+00 -0.00000000000E+00 -0.23856421769E+02  0.23856421769E+02  0.00000000000E+00 0.  1.
         25    2    1    2    0    0 -0.10554314802E+02 -0.43181513270E+02  0.34750958120E+03  0.37202314730E+03  0.12514901697E+03 0.  0.
          5    1    3    3  502    0 -0.63299255055E+02 -0.24199430587E+02  0.25400287497E+03  0.26292078850E+03  0.41800000000E+01 0. -1.
         -5    1    3    3    0  502  0.52744940253E+02 -0.18982082683E+02  0.93506706230E+02  0.10910235880E+03  0.41800000000E+01 0. -1.
        -11    1    1    2    0    0  0.33698444734E+02  0.58544244527E+02  0.10398311952E+03  0.12399799551E+03  0.00000000000E+00 0.  1.
         11    1    1    2    0    0 -0.23144129932E+02 -0.15362731257E+02  0.11957095550E+03  0.12275535696E+03  0.00000000000E+00 0. -1.
</event>
<event>
 7    1  0.2899775E-009  0.3260190E+03  0.7561462E-02  0.1072912E+00
         -1   -1    0    0    0  501 -0.00000000000E+00  0.00000000000E+00  0.74757211097E+02  0.74757211097E+02  0.00000000000E+00 0.  1.
          1   -1    0    0  501    0  0.00000000000E+00 -0.00000000000E+00 -0.16730931887E+04  0.16730931887E+04  0.00000000000E+00 0. -1.
         25    2    1    2    0    0 -0.24879290061E+03  0.19473030121E+03 -0.10943334682E+04  0.11458755138E+04  0.12508859145E+03 0.  0.
          5    1    3    3  502    0 -0.49324219861E+02  0.10422327247E+03 -0.28647288225E+03  0.30883580403E+03  0.41800000000E+01 0. -1.
         -5    1    3    3    0  502 -0.19946868075E+03  0.90507028735E+02 -0.80786058600E+03  0.83703970973E+03  0.41800000000E+01 0. -1.
        -11    1    1    2    0    0  0.65232470642E+02 -0.69785118884E+02 -0.85443251085E+02  0.12816312730E+03  0.00000000000E+00 0.  1.
         11    1    1    2    0    0  0.18356042997E+03 -0.12494518233E+03 -0.41855925831E+03  0.47381175878E+03  0.00000000000E+00 0. -1.
</event>
<event>
 7    1  0.2899775E-009  0.1100149E+03  0.7561462E-02  0.1260542E+00
         -2   -1    0    0    0  501 -0.00000000000E+00  0.00000000000E+00  0.79381430501E+02  0.79381430501E+02  0.00000000000E+00 0.  1.
          2   -1    0    0  501    0  0.00000000000E+00 -0.00000000000E+00 -0.18388280223E+03  0.18388280223E+03  0.00000000000E+00 0. -1.
         25    2    1    2    0    0 -0.10979892695E+02  0.44235640311E+02 -0.88227961247E+02  0.15972022169E+03  0.12509606770E+03 0.  0.
          5    1    3    3  502    0 -0.64081226868E+02  0.24944128637E+02 -0.74416310627E+02  0.10140943190E+03  0.41800000000E+01 0. -1.
         -5    1    3    3    0  502  0.53101334173E+02  0.19291511674E+02 -0.13811650620E+02  0.58310789795E+02  0.41800000000E+01 0. -1.
        -11    1    1    2    0    0 -0.18239546295E+02  0.18066586657E+02  0.12983470067E+02  0.28768960660E+02  0.00000000000E+00 0.  1.
         11    1    1    2    0    0  0.29219438990E+02 -0.62302226968E+02 -0.29256880552E+02  0.74775050382E+02  0.00000000000E+00 0. -1.
</event>
<event>
 7    1  0.2899775E-009  0.9052963E+02  0.7561462E-02  0.1301574E+00
         -1   -1    0    0    0  501 -0.00000000000E+00  0.00000000000E+00  0.60682315409E+02  0.60682315409E+02  0.00000000000E+00 0.  1.
          1   -1    0    0  501    0  0.00000000000E+00 -0.00000000000E+00 -0.29150881797E+03  0.29150881797E+03  0.00000000000E+00 0. -1.
         25    2    1    2    0    0  0.10388643208E+02 -0.92484764700E+01 -0.21332294324E+03  0.24768459225E+03  0.12509005117E+03 0.  0.
          5    1    3    3  502    0  0.21545031269E+02 -0.52250954471E+02 -0.41715307967E+02  0.70370376824E+02  0.41800000000E+01 0.  1.
         -5    1    3    3    0  502 -0.11156388061E+02  0.43002478001E+02 -0.17160763528E+03  0.17731421543E+03  0.41800000000E+01 0.  1.
        -11    1    1    2    0    0  0.29222523145E+02  0.23673147579E+02 -0.41494990117E+02  0.56001856934E+02  0.00000000000E+00 0. -1.
         11    1    1    2    0    0 -0.39611166353E+02 -0.14424671109E+02  0.23991430800E+02  0.48504684189E+02  0.00000000000E+00 0.  1.
</event>
<event>
 7    1  0.2899775E-009  0.1412984E+03  0.7561462E-02  0.1211593E+00
          2   -1    0    0  501    0  0.00000000000E+00  0.00000000000E+00  0.18442220491E+03  0.18442220491E+03  0.00000000000E+00 0.  1.
         -2   -1    0    0    0  501 -0.00000000000E+00 -0.00000000000E+00 -0.15302880113E+03  0.15302880113E+03  0.00000000000E+00 0. -1.
         25    2    1    2    0    0  0.93902077790E+02  0.81391182596E+02 -0.13020822372E+02  0.17680571204E+03  0.12509433712E+03 0.  0.
          5    1    3    3  502    0  0.40944813175E+02  0.83029961211E+02  0.40720474671E+02  0.10122293042E+03  0.41800000000E+01 0. -1.
         -5    1    3    3    0  502  0.52957264615E+02 -0.16387786151E+01 -0.53741297042E+02  0.75582781628E+02  0.41800000000E+01 0. -1.
        -11    1    1    2    0    0 -0.72698075702E+02 -0.25566987083E+02  0.61431773833E+02  0.98552239323E+02  0.00000000000E+00 0.  1.
         11    1    1    2    0    0 -0.21204002088E+02 -0.55824195513E+02 -0.17017547678E+02  0.62093054669E+02  0.00000000000E+00 0. -1.
</event>
<event>
 7    1  0.2899775E-009  0.1601646E+03  0.7561462E-02  0.1188511E+00
         -2   -1    0    0    0  501 -0.00000000000E+00  0.00000000000E+00  0.31157601199E+02  0.31157601199E+02  0.00000000000E+00 0. -1.
          2   -1    0    0  501    0  0.00000000000E+00 -0.00000000000E+00 -0.10307083164E+04  0.10307083164E+04  0.00000000000E+00 0.  1.
         25    2    1    2    0    0 -0.96324955232E+02  0.10025255790E+03 -0.60126445976E+03  0.62967909425E+03  0.12509092210E+03 0.  0.
          5    1    3    3  502    0 -0.10755831965E+03  0.82213374808E+02 -0.31872113451E+03  0.34630689440E+03  0.41800000000E+01 0.  1.
         -5    1    3    3    0  502  0.11233364422E+02  0.18039183094E+02 -0.28254332525E+03  0.28337219985E+03  0.41800000000E+01 0.  1.
        -11    1    1    2    0    0  0.74785513159E+01 -0.68453356848E+02 -0.21917071000E+03  0.22973373917E+03  0.00000000000E+00 0.  1.
         11    1    1    2    0    0  0.88846403916E+02 -0.31799201055E+02 -0.17911554548E+03  0.20245308422E+03  0.00000000000E+00 0. -1.
</event>
<event>
 7    1  0.2899775E-009  0.9230770E+02  0.7561462E-02  0.1297358E+00
         -1   -1    0    0    0  501 -0.00000000000E+00  0.00000000000E+00  0.70228982111E+02  0.70228982111E+02  0.00000000000E+00 0.  1.
          1   -1    0    0  501    0  0.00000000000E+00 -0.00000000000E+00 -0.32281251597E+03  0.32281251597E+03  0.00000000000E+00 0. -1.
         25    2    1    2    0    0  0.25698619138E+02 -0.85989717665E+02 -0.66188304877E+02  0.16757944800E+03  0.12508928460E+03 0.  0.
          5    1    3    3  502    0  0.25891835768E+02 -0.79650041235E+02 -0.10138583843E+03  0.13157156556E+03  0.41800000000E+01 0.  1.
         -5    1    3    3    0  502 -0.19321662935E+00 -0.63396764299E+01  0.35197533556E+02  0.36007882447E+02  0.41800000000E+01 0.  1.
        -11    1    1    2    0    0 -0.12050523936E+01  0.47658087426E+02 -0.17881446617E+02  0.50916515802E+02  0.00000000000E+00 0.  1.
         11    1    1    2    0    0 -0.24493566745E+02  0.38331630239E+02 -0.16851378236E+03  0.17454553427E+03  0.00000000000E+00 0. -1.
</event>
<event>
 7    1  0.2899775E-009  0.8633506E+02  0.7561462E-02  0.1311978E+00
         -2   -1    0    0    0  501 -0.00000000000E+00  0.00000000000E+00  0.69014765732E+02  0.69014765732E+02  0.00000000000E+00 0.  1.
          2   -1    0    0  501    0  0.00000000000E+00 -0.00000000000E+00 -0.31506146156E+03  0.31506146156E+03  0.00000000000E+00 0. -1.
         25    2    1    2    0    0  0.19687823479E+02  0.17428115759E+02 -0.25534373920E+03  0.28554787314E+03  0.12508322467E+03 0.  0.
          5    1    3    3  502    0 -0.23999348313E+02 -0.56552001887E+01  0.42957741677E+00  0.25012135962E+02  0.41800000000E+01 0.  1.
         -5    1    3    3    0  502  0.43687171792E+02  0.23083315948E+02 -0.25577331661E+03  0.26053573718E+03  0.41800000000E+01 0.  1.
        -11    1    1    2    0    0  0.14848245166E+02 -0.49050190598E+02  0.40211934564E+01  0.51405851603E+02  0.00000000000E+00 0.  1.
         11    1    1    2    0    0 -0.34536068645E+02  0.31622074839E+02  0.52758499114E+01  0.47122502553E+02  0.00000000000E+00 0. -1.
</event>
<event>
 7    1  0.2899775E-009  0.2490901E+03  0.7561462E-02  0.1113881E+00
          1   -1    0    0  501    0  0.00000000000E+00  0.00000000000E+00  0.31750862114E+03  0.31750862114E+03  0.00000000000E+00 0. -1.
         -1   -1    0    0    0  501 -0.00000000000E+00 -0.00000000000E+00 -0.29476191512E+03  0.29476191512E+03  0.00000000000E+00 0.  1.
         25    2    1    2    0    0 -0.11618738824E+03  0.19434602477E+03 -0.16320064642E+03  0.30586278063E+03  0.12509077926E+03 0.  0.
          5    1    3    3  502    0 -0.53625138185E+02  0.90769218749E+00 -0.21101386910E+02  0.57785986883E+02  0.41800000000E+01 0.  1.
         -5    1    3    3    0  502 -0.62562250053E+02  0.19343833258E+03 -0.14209925951E+03  0.24807679375E+03  0.41800000000E+01 0.  1.
        -11    1    1    2    0    0  0.11058779510E+03 -0.10821809692E+03  0.97824442452E+02  0.18305856567E+03  0.00000000000E+00 0.  1.
         11    1    1    2    0    0  0.55995931421E+01 -0.86127927845E+02  0.88122909984E+02  0.12334918995E+03  0.00000000000E+00 0. -1.
</event>
<event>
 7    1  0.2899775E-009  0.9946661E+02  0.7561462E-02  0.1281422E+00
          2   -1    0    0  501    0  0.00000000000E+00  0.00000000000E+00  0.20590413870E+03  0.20590413870E+03  0.00000000000E+00 0. -1.
         -2   -1    0    0    0  501 -0.00000000000E+00 -0.00000000000E+00 -0.65145384232E+02  0.65145384232E+02  0.00000000000E+00 0.  1.
         25    2    1    2    0    0 -0.37872235473E+02 -0.15297240596E+01  0.64178495440E+02  0.14561084632E+03  0.12508794112E+03 0.  0.
          5    1    3    3  502    0 -0.56620432049E+02 -0.38641413762E+02  0.75752615534E+02  0.10224951512E+03  0.41800000000E+01 0.  1.
         -5    1    3    3    0  502  0.18748196576E+02  0.37111689702E+02 -0.11574120094E+02  0.43361331199E+02  0.41800000000E+01 0.  1.
        -11    1    1    2    0    0  0.61174447976E+02 -0.10776140365E+02  0.77190246898E+02  0.99079627081E+02  0.00000000000E+00 0.  1.
         11    1    1    2    0    0 -0.23302212503E+02  0.12305864425E+02 -0.60998787139E+00  0.26359049527E+02  0.00000000000E+00 0. -1.
</event>
<event>
 7    1  0.2899775E-009  0.1715067E+03  0.7561462E-02  0.1176286E+00
          1   -1    0    0  501    0  0.00000000000E+00  0.00000000000E+00  0.39958307969E+03  0.39958307969E+03  0.00000000000E+00 0. -1.
         -1   -1    0    0    0  501 -0.00000000000E+00 -0.00000000000E+00 -0.79514935771E+02  0.79514935771E+02  0.00000000000E+00 0.  1.
         25    2    1    2    0    0 -0.95824920763E+02 -0.10317754520E+03  0.15831186248E+03  0.24604659967E+03  0.12509301394E+03 0.  0.
          5    1    3    3  502    0 -0.13716822929E+02 -0.10470878874E+03  0.97298492982E+02  0.14365427528E+03  0.41800000000E+01 0. -1.
         -5    1    3    3    0  502 -0.82108097834E+02  0.15312435401E+01  0.61013369499E+02  0.10239232439E+03  0.41800000000E+01 0. -1.
        -11    1    1    2    0    0  0.10232381453E+03  0.76818610553E+02  0.16131763879E+03  0.20589959333E+03  0.00000000000E+00 0. -1.
         11    1    1    2    0    0 -0.64988937640E+01  0.26358934644E+02  0.43864264625E+00  0.27151822463E+02  0.00000000000E+00 0.  1.
</event>
<event>
 7    1  0.2899775E-009  0.1101566E+03  0.7561462E-02  0.1260280E+00
          1   -1    0    0  501    0  0.00000000000E+00  0.00000000000E+00  0.13994922521E+03  0.13994922521E+03  0.00000000000E+00 0. -1.
         -1   -1    0    0    0  501 -0.00000000000E+00 -0.00000000000E+00 -0.13569029945E+03  0.13569029945E+03  0.00000000000E+00 0.  1.
         25    2    1    2    0    0 -0.17095116125E+02 -0.72046717595E+02 -0.37117590654E+02  0.15002544859E+03  0.12508775791E+03 0.  0.
          5    1    3    3  502    0  0.64330066074E+01 -0.10415259374E+03 -0.19244640254E+02  0.10619310211E+03  0.41800000000E+01 0.  1.
         -5    1    3    3    0  502 -0.23528122732E+02  0.32105876145E+02 -0.17872950400E+02  0.43832346485E+02  0.41800000000E+01 0.  1.
        -11    1    1    2    0    0 -0.16336151154E+01  0.27282152262E+02 -0.29180827505E+02  0.39981310938E+02  0.00000000000E+00 0.  1.
         11    1    1    2    0    0  0.18728731240E+02  0.44764565332E+02  0.70557343914E+02  0.85632765128E+02  0.00000000000E+00 0. -1.
</event>
<event>
 7    1  0.2899775E-009  0.1160473E+03  0.7561462E-02  0.1249764E+00
         -1   -1    0    0    0  501 -0.00000000000E+00  0.00000000000E+00  0.55139552968E+02  0.55139552968E+02  0.00000000000E+00 0.  1.
          1   -1    0    0  501    0  0.00000000000E+00 -0.00000000000E+00 -0.31988919050E+03  0.31988919050E+03  0.00000000000E+00 0. -1.
         25    2    1    2    0    0 -0.75377482448E+02  0.50699227023E+02 -0.13032580130E+03  0.20219437985E+03  0.12508227804E+03 0.  0.
          5    1    3    3  502    0 -0.56667454453E+02  0.84704321057E+02 -0.51566947887E+02  0.11429192847E+03  0.41800000000E+01 0. -1.
         -5    1    3    3    0  502 -0.18710027995E+02 -0.34005094035E+02 -0.78758853408E+02  0.87902451377E+02  0.41800000000E+01 0. -1.
        -11    1    1    2    0    0  0.32191531466E+02 -0.25433454715E+02 -0.15575211715E+02  0.43883283114E+02  0.00000000000E+00 0. -1.
         11    1    1    2    0    0  0.43185950982E+02 -0.25265772307E+02 -0.11884862452E+03  0.12895108051E+03  0.00000000000E+00 0.  1.
</event>
<event>
 7    1  0.2899775E-009  0.1422003E+03  0.7561462E-02  0.1210399E+00
          1   -1    0    0  501    0  0.00000000000E+00  0.00000000000E+00  0.76796146316E+03  0.76796146316E+03  0.00000000000E+00 0. -1.
         -1   -1    0    0    0  501 -0.00000000000E+00 -0.00000000000E+00 -0.27950823525E+02  0.27950823525E+02  0.00000000000E+00 0.  1.
         25    2    1    2    0    0 -0.44897883935E+02 -0.80503340053E+02  0.30837566503E+03  0.34531096052E+03  0.12508997133E+03 0.  0.
          5    1    3    3  502    0  0.34972007411E+02 -0.64964273586E+02  0.14874895985E+03  0.16609371933E+03  0.41800000000E+01 0.  1.
         -5    1    3    3    0  502 -0.79869891346E+02 -0.15539066468E+02  0.15962670518E+03  0.17921724119E+03  0.41800000000E+01 0. -1.
        -11    1    1    2    0    0  0.72849509695E+02  0.56698630478E+02  0.32280619369E+03  0.33574636922E+03  0.00000000000E+00 0.  1.
         11    1    1    2    0    0 -0.27951625760E+02  0.23804709575E+02  0.10882878092E+03  0.11485495696E+03  0.00000000000E+00 0. -1.
</event>
<event>
 7    1  0.2899775E-009  0.1420648E+03  0.7561462E-02  0.1210577E+00
          4   -1    0    0  501    0  0.00000000000E+00  0.00000000000E+00  0.82617722531E+02  0.82617722531E+02  0.00000000000E+00 0. -1.
         -4   -1    0    0    0  501 -0.00000000000E+00 -0.00000000000E+00 -0.46348797230E+03  0.46348797230E+03  0.00000000000E+00 0.  1.
         25    2    1    2    0    0 -0.75747198312E+02 -0.68661459694E+02 -0.37600947529E+03  0.40924584600E+03  0.12508798048E+03 0.  0.
          5    1    3    3  502    0 -0.10362451488E+03 -0.79901880683E+02 -0.31435233846E+03  0.34052491204E+03  0.41800000000E+01 0. -1.
         -5    1    3    3    0  502  0.27877316567E+02  0.11240420989E+02 -0.61657136828E+02  0.68720933964E+02  0.41800000000E+01 0. -1.
        -11    1    1    2    0    0  0.87103863582E+02  0.48430499908E+02  0.21279393291E+02  0.10190882666E+03  0.00000000000E+00 0. -1.
         11    1    1    2    0    0 -0.11356665270E+02  0.20230959786E+02 -0.26140167772E+02  0.34951022175E+02  0.00000000000E+00 0.  1.
</event>
<event>
 7    1  0.2899775E-009  0.1150570E+03  0.7561462E-02  0.1251482E+00
         -2   -1    0    0    0  501 -0.00000000000E+00  0.00000000000E+00  0.12890236955E+03  0.12890236955E+03  0.00000000000E+00 0.  1.
          2   -1    0    0  501    0  0.00000000000E+00 -0.00000000000E+00 -0.21472371777E+03  0.21472371777E+03  0.00000000000E+00 0. -1.
         25    2    1    2    0    0 -0.31495758625E+02  0.53829807005E+02  0.64414451095E+02  0.15390427429E+03  0.12509065993E+03 0.  0.
          5    1    3    3  502    0  0.18943425294E+02  0.63071268653E+02 -0.64843416777E+01  0.66305032828E+02  0.41800000000E+01 0.  1.
         -5    1    3    3    0  502 -0.50439183919E+02 -0.92414616478E+01  0.70898792773E+02  0.87599241461E+02  0.41800000000E+01 0.  1.
        -11    1    1    2    0    0  0.65214053938E+02 -0.33678254963E+02 -0.11773005190E+03  0.13873522555E+03  0.00000000000E+00 0. -1.
         11    1    1    2    0    0 -0.33718295313E+02 -0.20151552042E+02 -0.32505747411E+02  0.50986587484E+02  0.00000000000E+00 0.  1.
</event>
<event>
 7    1  0.2899775E-009  0.1500103E+03  0.7561462E-02  0.1200460E+00
          1   -1    0    0  501    0  0.00000000000E+00  0.00000000000E+00  0.10863829002E+04  0.10863829002E+04  0.00000000000E+00 0.  1.
         -1   -1    0    0    0  501 -0.00000000000E+00 -0.00000000000E+00 -0.23429183844E+02  0.23429183844E+02  0.00000000000E+00 0. -1.
         25    2    1    2    0    0 -0.81292830102E+02 -0.72715895126E+02  0.42721355942E+03  0.45831701785E+03  0.12508772070E+03 0.  0.
          5    1    3    3  502    0  0.21274303659E+02  0.13136919090E+02  0.30607043343E+02  0.39742145658E+02  0.41800000000E+01 0.  1.
         -5    1    3    3    0  502 -0.10256713376E+03 -0.85852814216E+02  0.39660651608E+03  0.41857487220E+03  0.41800000000E+01 0.  1.
        -11    1    1    2    0    0  0.12534165673E+02 -0.21094876064E+02  0.78497282096E+02  0.82243069020E+02  0.00000000000E+00 0.  1.
         11    1    1    2    0    0  0.68758664428E+02  0.93810771189E+02  0.55724287481E+03  0.56925199714E+03  0.00000000000E+00 0. -1.
</event>
<event>
 7    1  0.2899775E-009  0.1260222E+03  0.7561462E-02  0.1233480E+00
         -1   -1    0    0    0  501 -0.00000000000E+00  0.00000000000E+00  0.28149834740E+02  0.28149834740E+02  0.00000000000E+00 0.  1.
          1   -1    0    0  501    0  0.00000000000E+00 -0.00000000000E+00 -0.87144909084E+03  0.87144909084E+03  0.00000000000E+00 0. -1.
         25    2    1    2    0    0  0.19525662191E+02 -0.66671639888E+02 -0.70609900615E+03  0.72045141895E+03  0.12509229202E+03 0.  0.
          5    1    3    3  502    0 -0.46625869675E+02 -0.60503860042E+02 -0.37158304832E+03  0.37937596524E+03  0.41800000000E+01 0.  1.
         -5    1    3    3    0  502  0.66151531865E+02 -0.61677798462E+01 -0.33451595784E+03  0.34107545371E+03  0.41800000000E+01 0.  1.
        -11    1    1    2    0    0  0.23555041758E+02 -0.61680356100E+01 -0.59385868925E+02  0.64183845970E+02  0.00000000000E+00 0. -1.
         11    1    1    2    0    0 -0.43080703949E+02  0.72839675498E+02 -0.77814381020E+02  0.11496366066E+03  0.00000000000E+00 0.  1.
</event>
<event>
 7    1  0.2899775E-009  0.9261395E+02  0.7561462E-02  0.1296642E+00
         -2   -1    0    0    0  501 -0.00000000000E+00  0.00000000000E+00  0.15333172483E+03  0.15333172483E+03  0.00000000000E+00 0.  1.
          2   -1    0    0  501    0  0.00000000000E+00 -0.00000000000E+00 -0.10056717730E+03  0.10056717730E+03  0.00000000000E+00 0. -1.
         25    2    1    2    0    0  0.58759162627E+02 -0.86126043611E+01  0.20978539439E+02  0.14005330529E+03  0.12509201836E+03 0.  0.
          5    1    3    3  502    0  0.14467460981E+02  0.24785800083E+02  0.63647674266E+02  0.69943849997E+02  0.41800000000E+01 0. -1.
         -5    1    3    3    0  502  0.44291701646E+02 -0.33398404445E+02 -0.42669134827E+02  0.70109455290E+02  0.41800000000E+01 0. -1.
        -11    1    1    2    0    0 -0.25687537759E+02  0.44757059279E+02  0.38516833310E+02  0.64394024565E+02  0.00000000000E+00 0.  1.
         11    1    1    2    0    0 -0.33071624868E+02 -0.36144454918E+02 -0.67308252113E+01  0.49451572278E+02  0.00000000000E+00 0. -1.
</event>
<event>
 7    1  0.2899775E-009  0.1510305E+03  0.7561462E-02  0.1199212E+00
          3   -1    0    0  501    0  0.00000000000E+00  0.00000000000E+00  0.26408915780E+03  0.26408915780E+03  0.00000000000E+00 0. -1.
         -3   -1    0    0    0  501 -0.00000000000E+00 -0.00000000000E+00 -0.12259136733E+03  0.12259136733E+03  0.00000000000E+00 0.  1.
         25    2    1    2    0    0 -0.11808761143E+03  0.32957470546E+02 -0.41465244420E+01  0.17520237268E+03  0.12509116231E+03 0.  0.
          5    1    3    3  502    0 -0.30098491597E+02  0.54961279702E+02 -0.43344138388E+02  0.76307589371E+02  0.41800000000E+01 0.  1.
         -5    1    3    3    0  502 -0.87989119835E+02 -0.22003809156E+02  0.39197613946E+02  0.98894783309E+02  0.41800000000E+01 0.  1.
        -11    1    1    2    0    0  0.61268353240E+02 -0.59807502478E+02  0.57155406187E+02  0.10294410579E+03  0.00000000000E+00 0. -1.
         11    1    1    2    0    0  0.56819258193E+02  0.26850031932E+02  0.88488908722E+02  0.10853404665E+03  0.00000000000E+00 0.  1.
</event>
<event>
 7    1  0.2899775E-009  0.1169998E+03  0.7561462E-02  0.1248130E+00
         -4   -1    0    0    0  501 -0.00000000000E+00  0.00000000000E+00  0.19431218629E+03  0.19431218629E+03  0.00000000000E+00 0.  1.
          4   -1    0    0  501    0  0.00000000000E+00 -0.00000000000E+00 -0.10479859281E+03  0.10479859281E+03  0.00000000000E+00 0. -1.
         25    2    1    2    0    0 -0.89542042782E+02  0.22599515877E+02  0.58411802552E+02  0.16609490709E+03  0.12508822462E+03 0.  0.
          5    1    3    3  502    0 -0.25021094852E+02 -0.18905242629E+02 -0.33648357044E+02  0.46186012149E+02  0.41800000000E+01 0. -1.
         -5    1    3    3    0  502 -0.64520947930E+02  0.41504758506E+02  0.92060159597E+02  0.11990889494E+03  0.41800000000E+01 0. -1.
        -11    1    1    2    0    0  0.93356304113E+02 -0.44415708754E+02  0.12582931262E+02  0.10414645871E+03  0.00000000000E+00 0. -1.
         11    1    1    2    0    0 -0.38142613312E+01  0.21816192877E+02  0.18518859663E+02  0.28869413302E+02  0.00000000000E+00 0.  1.
</event>
<event>
 7    1  0.2899775E-009  0.3295591E+03  0.7561462E-02  0.1071332E+00
         -2   -1    0    0    0  501 -0.00000000000E+00  0.00000000000E+00  0.11301803831E+03  0.11301803831E+03  0.00000000000E+00 0.  1.
          2   -1    0    0  501    0  0.00000000000E+00 -0.00000000000E+00 -0.11574755844E+04  0.11574755844E+04  0.00000000000E+00 0. -1.
         25    2    1    2    0    0 -0.28359141381E+03 -0.15424680597E+03 -0.74305117874E+03  0.81974892746E+03  0.12508829963E+03 0.  0.
          5    1    3    3  502    0 -0.97686618126E+02 -0.38815170915E+02 -0.12110189578E+03  0.16041332369E+03  0.41800000000E+01 0. -1.
         -5    1    3    3    0  502 -0.18590479568E+03 -0.11543163506E+03 -0.62194928295E+03  0.65933560377E+03  0.41800000000E+01 0. -1.
        -11    1    1    2    0    0  0.40325653784E+02  0.63883103560E+02 -0.63493138695E+02  0.98684284133E+02  0.00000000000E+00 0.  1.
         11    1    1    2    0    0  0.24326576003E+03  0.90363702411E+02 -0.23791322868E+03  0.35206041115E+03  0.00000000000E+00 0. -1.
</event>
<event>
 7    1  0.2899775E-009  0.1085926E+03  0.7561462E-02  0.1263199E+00
         -1   -1    0    0    0  501 -0.00000000000E+00  0.00000000000E+00  0.60575062750E+03  0.60575062750E+03  0.00000000000E+00 0.  1.
          1   -1    0    0  501    0  0.00000000000E+00 -0.00000000000E+00 -0.21417152779E+02  0.21417152779E+02  0.00000000000E+00 0. -1.
         25    2    1    2    0    0 -0.37252879123E+02  0.10288575746E+02  0.36687230880E+03  0.38953315416E+03  0.12508859034E+03 0.  0.
          5    1    3    3  502    0 -0.57980232392E+02 -0.37471539744E+02  0.13309381844E+03  0.14999086821E+03  0.41800000000E+01 0. -1.
         -5    1    3    3    0  502  0.20727353269E+02  0.47760115490E+02  0.23377849036E+03  0.23954228595E+03  0.41800000000E+01 0. -1.
        -11    1    1    2    0    0  0.61577282227E+02 -0.25993380552E+02  0.15417006412E+03  0.16803519331E+03  0.00000000000E+00 0. -1.
         11    1    1    2    0    0 -0.24324403104E+02  0.15704804806E+02  0.63291101805E+02  0.69599432815E+02  0.00000000000E+00 0.  1.
</event>
<event>
 7    1  0.2899775E-009  0.9979548E+02  0.7561462E-02  0.1280727E+00
         -1   -1    0    0    0  501 -0.00000000000E+00  0.00000000000E+00  0.37160397450E+02  0.37160397450E+02  0.00000000000E+00 0.  1.
          1   -1    0    0  501    0  0.00000000000E+00 -0.00000000000E+00 -0.64192302993E+03  0.64192302993E+03  0.00000000000E+00 0. -1.
         25    2    1    2    0    0 -0.28421250023E+02 -0.72354647582E+02 -0.49805409620E+03  0.51937499352E+03  0.12509811621E+03 0.  0.
          5    1    3    3  502    0  0.12316926770E+01 -0.29339230340E+02 -0.14548583973E+02  0.33036967164E+02  0.41800000000E+01 0.  1.
         -5    1    3    3    0  502 -0.29652942700E+02 -0.43015417242E+02 -0.48350551222E+03  0.48633802636E+03  0.41800000000E+01 0.  1.
        -11    1    1    2    0    0 -0.28429362501E+02  0.47745980947E+02 -0.62332639202E+02  0.83506079172E+02  0.00000000000E+00 0.  1.
         11    1    1    2    0    0  0.56850612523E+02  0.24608666634E+02 -0.44375897082E+02  0.76202354686E+02  0.00000000000E+00 0. -1.
</event>
<event>
 7    1  0.2899775E-009  0.1199607E+03  0.7561462E-02  0.1243162E+00
          1   -1    0    0  501    0  0.00000000000E+00  0.00000000000E+00  0.13184084142E+04  0.13184084142E+04  0.00000000000E+00 0. -1.
         -1   -1    0    0    0  501 -0.00000000000E+00 -0.00000000000E+00 -0.17190315452E+02  0.17190315452E+02  0.00000000000E+00 0.  1.
         25    2    1    2    0    0 -0.41472112560E+02 -0.78640573112E+02  0.95209887432E+03  0.96438818815E+03  0.12509210651E+03 0.  0.
          5    1    3    3  502    0  0.24530014979E+02  0.18478145399E+02  0.11582230909E+03  0.11989763624E+03  0.41800000000E+01 0.  1.
         -5    1    3    3    0  502 -0.66002127539E+02 -0.97118718510E+02  0.83627656522E+03  0.84449055191E+03  0.41800000000E+01 0.  1.
        -11    1    1    2    0    0  0.39148757530E+02  0.54100920854E+02  0.33734897487E+03  0.34389513765E+03  0.00000000000E+00 0. -1.
         11    1    1    2    0    0  0.23233550292E+01  0.24539652258E+02  0.11770249519E+02  0.27315403810E+02  0.00000000000E+00 0.  1.
</event>
<event>
 7    1  0.2899775E-009  0.1017496E+03  0.7561462E-02  0.1276659E+00
          2   -1    0    0  501    0  0.00000000000E+00  0.00000000000E+00  0.45765349118E+03  0.45765349118E+03  0.00000000000E+00 0.  1.
         -2   -1    0    0    0  501 -0.00000000000E+00 -0.00000000000E+00 -0.40495536705E+02  0.40495536705E+02  0.00000000000E+00 0. -1.
         25    2    1    2    0    0 -0.80994439184E+02  0.24851050813E+02  0.22591021610E+03  0.27177514718E+03  0.12509448822E+03 0.  0.
          5    1    3    3  502    0 -0.29503908537E+02  0.10348750836E+02 -0.73780707093E+01  0.32395765004E+02  0.41800000000E+01 0.  1.
         -5    1    3    3    0  502 -0.51490530647E+02  0.14502299978E+02  0.23328828681E+03  0.23937938218E+03  0.41800000000E+01 0.  1.
        -11    1    1    2    0    0  0.63046180056E+02  0.23063364619E+02  0.13200436291E+03  0.14809419784E+03  0.00000000000E+00 0.  1.
         11    1    1    2    0    0  0.17948259128E+02 -0.47914415432E+02  0.59243375469E+02  0.78279682861E+02  0.00000000000E+00 0. -1.
</event>
<event>
 7    1  0.2899775E-009  0.2061709E+03  0.7561462E-02  0.1144635E+00
          1   -1    0    0  501    0  0.00000000000E+00  0.00000000000E+00  0.11226567190E+04  0.11226567190E+04  0.00000000000E+00 0. -1.
         -1   -1    0    0    0  501 -0.00000000000E+00 -0.00000000000E+00 -0.42974341343E+02  0.42974341343E+02  0.00000000000E+00 0.  1.
         25    2    1    2    0    0 -0.38350358841E+02 -0.18993262560E+03  0.47662238563E+03  0.52949182631E+03  0.12509014091E+03 0.  0.
          5    1    3    3  502    0 -0.55914307670E+02 -0.62883941667E+02  0.29714052980E+03  0.30885395703E+03  0.41800000000E+01 0. -1.
         -5    1    3    3    0  502  0.17563948829E+02 -0.12704868394E+03  0.17948185583E+03  0.22063786928E+03  0.41800000000E+01 0. -1.
        -11    1    1    2    0    0 -0.97386705629E+01  0.12029236614E+02  0.82047087065E+02  0.83494123947E+02  0.00000000000E+00 0. -1.
         11    1    1    2    0    0  0.48089029404E+02  0.17790338899E+03  0.52101290493E+03  0.55264511005E+03  0.00000000000E+00 0.  1.
</event>
<event>
 7    1  0.2899775E-009  0.1347098E+03  0.7561462E-02  0.1220630E+00
         -2   -1    0    0    0  501 -0.00000000000E+00  0.00000000000E+00  0.26231021013E+03  0.26231021013E+03  0.00000000000E+00 0.  1.
          2   -1    0    0  501    0  0.00000000000E+00 -0.00000000000E+00 -0.87085182532E+02  0.87085182532E+02  0.00000000000E+00 0. -1.
         25    2    1    2    0    0 -0.81475089050E+02  0.55283615621E+02  0.54313537763E+02  0.16820378940E+03  0.12509231029E+03 0.  0.
          5    1    3    3  502    0 -0.29661111502E+02  0.82366388840E+02 -0.94420552067E+00  0.87649115626E+02  0.41800000000E+01 0. -1.
         -5    1    3    3    0  502 -0.51813977548E+02 -0.27082773219E+02  0.55257743284E+02  0.80554673778E+02  0.41800000000E+01 0. -1.
        -11    1    1    2    0    0 -0.10283155613E+02 -0.24178198812E+02  0.63138604597E+02  0.68387220865E+02  0.00000000000E+00 0.  1.
         11    1    1    2    0    0  0.91758244663E+02 -0.31105416809E+02  0.57772885237E+02  0.11280438239E+03  0.00000000000E+00 0. -1.
</event>
<event>
 7    1  0.2899775E-009  0.2240352E+03  0.7561462E-02  0.1130910E+00
         -2   -1    0    0    0  501 -0.00000000000E+00  0.00000000000E+00  0.95227679075E+02  0.95227679075E+02  0.00000000000E+00 0.  1.
          2   -1    0    0  501    0  0.00000000000E+00 -0.00000000000E+00 -0.68023376911E+03  0.68023376911E+03  0.00000000000E+00 0. -1.
         25    2    1    2    0    0 -0.18483775431E+03  0.78444500409E+02 -0.13019451413E+03  0.27003045181E+03  0.12508916153E+03 0.  0.
          5    1    3    3  502    0  0.75316555086E+01 -0.12220728046E+02  0.74186116981E+01  0.16690722819E+02  0.41800000000E+01 0. -1.
         -5    1    3    3    0  502 -0.19236940982E+03  0.90665228455E+02 -0.13761312583E+03  0.25333972899E+03  0.41800000000E+01 0. -1.
        -11    1    1    2    0    0  0.12475541774E+01  0.14557484162E+02 -0.33092739419E+02  0.36174661558E+02  0.00000000000E+00 0.  1.
         11    1    1    2    0    0  0.18359020013E+03 -0.93001984571E+02 -0.42171883649E+03  0.46925633482E+03  0.00000000000E+00 0. -1.
</event>
<event>
 7    1  0.2899775E-009  0.9627571E+02  0.7561462E-02  0.1288328E+00
          3   -1    0    0  501    0  0.00000000000E+00  0.00000000000E+00  0.24510331830E+02  0.24510331830E+02  0.00000000000E+00 0. -1.
         -3   -1    0    0    0  501 -0.00000000000E+00 -0.00000000000E+00 -0.55778903272E+03  0.55778903272E+03  0.00000000000E+00 0.  1.
         25    2    1    2    0    0  0.29999079587E+02 -0.28038138193E+02 -0.27599621345E+03  0.30579101674E+03  0.12509258216E+03 0.  0.
          5    1    3    3  502    0 -0.25165378121E+02  0.74028652888E+01 -0.21339217485E+03  0.21503904613E+03  0.41800000000E+01 0. -1.
         -5    1    3    3    0  502  0.55164457709E+02 -0.35441003482E+02 -0.62604038601E+02  0.90751970619E+02  0.41800000000E+01 0. -1.
        -11    1    1    2    0    0 -0.16355188820E+01  0.58582225448E+02 -0.16917966360E+03  0.17904276203E+03  0.00000000000E+00 0.  1.
         11    1    1    2    0    0 -0.28363560705E+02 -0.30544087256E+02 -0.88102823838E+02  0.97465585775E+02  0.00000000000E+00 0. -1.
</event>
<event>
 7    1  0.2899775E-009  0.1153192E+03  0.7561462E-02  0.1251025E+00
         -1   -1    0    0    0  501 -0.00000000000E+00  0.00000000000E+00  0.30099492897E+02  0.30099492897E+02  0.00000000000E+00 0.  1.
          1   -1    0    0  501    0  0.00000000000E+00 -0.00000000000E+00 -0.60220981717E+03  0.60220981717E+03  0.00000000000E+00 0. -1.
         25    2    1    2    0    0 -0.20968172260E+02  0.35365655283E+02 -0.47095837999E+03  0.48901873929E+03  0.12508852013E+03 0.  0.
          5    1    3    3  502    0  0.51815070978E+02  0.14764786205E+02 -0.15664326941E+03  0.16570270591E+03  0.41800000000E+01 0.  1.
         -5    1    3    3    0  502 -0.72783243238E+02  0.20600869078E+02 -0.31431511058E+03  0.32331603338E+03  0.41800000000E+01 0.  1.
        -11    1    1    2    0    0  0.54209091528E+02 -0.39875398153E+02 -0.59649651019E+02  0.89926380161E+02  0.00000000000E+00 0.  1.
         11    1    1    2    0    0 -0.33240919268E+02  0.45097428701E+01 -0.41502293267E+02  0.53364190624E+02  0.00000000000E+00 0. -1.
</event>
<event>
 7    1  0.2899775E-009  0.1258612E+03  0.7561462E-02  0.1233729E+00
         -2   -1    0    0    0  501 -0.00000000000E+00  0.00000000000E+00  0.72830579814E+02  0.72830579814E+02  0.00000000000E+00 0.  1.
          2   -1    0    0  501    0  0.00000000000E+00 -0.00000000000E+00 -0.23884202553E+03  0.23884202553E+03  0.00000000000E+00 0. -1.
         25    2    1    2    0    0 -0.26497564299E+02 -0.59236484579E+02 -0.50364980170E+02  0.14965273270E+03  0.12509287413E+03 0.  0.
          5    1    3    3  502    0 -0.67355901086E+02 -0.70750149786E+02 -0.40756227816E+02  0.10592895549E+03  0.41800000000E+01 0.  1.
         -5    1    3    3    0  502  0.40858336787E+02  0.11513665207E+02 -0.96087523540E+01  0.43723777207E+02  0.41800000000E+01 0.  1.
        -11    1    1    2    0    0 -0.27440980923E+02  0.49335032964E+02 -0.42824542128E+02  0.70858269242E+02  0.00000000000E+00 0.  1.
         11    1    1    2    0    0  0.53938545222E+02  0.99014516154E+01 -0.72821923421E+02  0.91161603405E+02  0.00000000000E+00 0. -1.
</event>
<event>
 7    1  0.2899775E-009  0.1530269E+03  0.7561462E-02  0.1196802E+00
          2   -1    0    0  501    0  0.00000000000E+00  0.00000000000E+00  0.10136183089E+04  0.10136183089E+04  0.00000000000E+00 0. -1.
         -2   -1    0    0    0  501 -0.00000000000E+00 -0.00000000000E+00 -0.35713551570E+02  0.35713551570E+02  0.00000000000E+00 0.  1.
         25    2    1    2    0    0 -0.92570606137E+02  0.10774925063E+03  0.68775162684E+03  0.71332251215E+03  0.12508991958E+03 0.  0.
          5    1    3    3  502    0 -0.31782916505E+02  0.20483481684E+02  0.34180827450E+02  0.51142234685E+02  0.41800000000E+01 0.  1.
         -5    1    3    3    0  502 -0.60787689632E+02  0.87265768942E+02  0.65357079939E+03  0.66218027746E+03  0.41800000000E+01 0.  1.
        -11    1    1    2    0    0  0.70200456677E+02 -0.22916350499E+02  0.18417967304E+03  0.19843239453E+03  0.00000000000E+00 0. -1.
         11    1    1    2    0    0  0.22370149460E+02 -0.84832900127E+02  0.10597345744E+03  0.13757695378E+03  0.00000000000E+00 0.  1.
</event>
<event>
 7    1  0.2899775E-009  0.4815419E+02  0.7561462E-02  0.1455559E+00
         -2   -1    0    0    0  501 -0.00000000000E+00  0.00000000000E+00  0.39009836648E+03  0.39009836648E+03  0.00000000000E+00 0.  1.
          2   -1    0    0  501    0  0.00000000000E+00 -0.00000000000E+00 -0.26842976865E+02  0.26842976865E+02  0.00000000000E+00 0. -1.
         25    2    1    2    0    0 -0.24242129318E+01 -0.42432620641E+01  0.25003250005E+03  0.27962115747E+03  0.12509140076E+03 0.  0.
          5    1    3    3  502    0 -0.61444372537E+01 -0.24662200593E+02  0.25626096210E+03  0.25755219150E+03  0.41800000000E+01 0.  1.
         -5    1    3    3    0  502  0.37202243219E+01  0.20418938529E+02 -0.62284620528E+01  0.22068965975E+02  0.41800000000E+01 0.  1.
        -11    1    1    2    0    0  0.20016036486E+02 -0.13696218657E+02  0.10921662744E+03  0.11187716403E+03  0.00000000000E+00 0.  1.
         11    1    1    2    0    0 -0.17591823554E+02  0.17939480721E+02  0.40062621300E+01  0.25443021848E+02  0.00000000000E+00 0. -1.
</event>
<event>
 7    1  0.2899775E-009  0.1242799E+03  0.7561462E-02  0.1236199E+00
         -1   -1    0    0    0  501 -0.00000000000E+00  0.00000000000E+00  0.33944674098E+02  0.33944674098E+02  0.00000000000E+00 0.  1.
          1   -1    0    0  501    0  0.00000000000E+00 -0.00000000000E+00 -0.58801387478E+03  0.58801387478E+03  0.00000000000E+00 0. -1.
         25    2    1    2    0    0 -0.29433463130E+02 -0.83958743210E+02 -0.32923485644E+03  0.36325965382E+03  0.12508631455E+03 0.  0.
          5    1    3    3  502    0  0.13665624252E+02 -0.82053842040E+02 -0.10084237975E+03  0.13079082626E+03  0.41800000000E+01 0.  1.
         -5    1    3    3    0  502 -0.43099087382E+02 -0.19049011697E+01 -0.22839247669E+03  0.23246882756E+03  0.41800000000E+01 0.  1.
        -11    1    1    2    0    0  0.15710920656E+02  0.99765714808E+02 -0.21005961764E+03  0.23307739882E+03  0.00000000000E+00 0. -1.
         11    1    1    2    0    0  0.13722542475E+02 -0.15806971598E+02 -0.14774726613E+02  0.25621496240E+02  0.00000000000E+00 0.  1.
</event>
<event>
 7    1  0.2899775E-009  0.1506693E+03  0.7561462E-02  0.1199653E+00
         -1   -1    0    0    0  501 -0.00000000000E+00  0.00000000000E+00  0.78294465201E+02  0.78294465201E+02  0.00000000000E+00 0.  1.
          1   -1    0    0  501    0  0.00000000000E+00 -0.00000000000E+00 -0.41297856253E+03  0.41297856253E+03  0.00000000000E+00 0. -1.
         25    2    1    2    0    0 -0.28758861322E+02 -0.11117724258E+03 -0.59265564004E+02  0.17985368342E+03  0.12508992361E+03 0.  0.
          5    1    3    3  502    0  0.44893050630E+02 -0.43538414417E+02 -0.48381096398E+02  0.79178168794E+02  0.41800000000E+01 0. -1.
         -5    1    3    3    0  502 -0.73651911953E+02 -0.67638828167E+02 -0.10884467606E+02  0.10067551463E+03  0.41800000000E+01 0. -1.
        -11    1    1    2    0    0 -0.13056550107E+02  0.91384840253E+02 -0.13474323362E+03  0.16333218156E+03  0.00000000000E+00 0.  1.
         11    1    1    2    0    0  0.41815411429E+02  0.19792402331E+02 -0.14067529971E+03  0.14808716275E+03  0.00000000000E+00 0. -1.
</event>
<event>
 7    1  0.3755129E-009  0.1181170E+03  0.7561462E-02  0.1246236E+00
          2   -1    0    0  501    0  0.00000000000E+00  0.00000000000E+00  0.11901632120E+04  0.11901632120E+04  0.00000000000E+00 0. -1.
         -2   -1    0    0    0  501 -0.00000000000E+00 -0.00000000000E+00 -0.17855178659E+02  0.17855178659E+02  0.00000000000E+00 0.  1.
         25    2    1    2    0    0  0.41818445698E+02 -0.54430225459E+02  0.92034400752E+03  0.93134031007E+03  0.12510095579E+03 0.  0.
          5    1    3    3  502    0  0.30703199009E+02  0.33114313902E+02  0.48543289857E+03  0.48754673174E+03  0.41800000000E+01 0. -1.
         -5    1    3    3    0  502  0.11115246689E+02 -0.87544539361E+02  0.43491110895E+03  0.44379357833E+03  0.41800000000E+01 0. -1.
        -11    1    1    2    0    0 -0.47651110903E+01 -0.19375073109E+02  0.12919318991E+02  0.23769908390E+02  0.00000000000E+00 0.  1.
         11    1    1    2    0    0 -0.37053334607E+02  0.73805298568E+02  0.23904470685E+03  0.25290817222E+03  0.00000000000E+00 0. -1.
</event>
<event>
 7    1  0.2899775E-009  0.9700769E+02  0.7561462E-02  0.1286717E+00
         -1   -1    0    0    0  501 -0.00000000000E+00  0.00000000000E+00  0.76613024374E+02  0.76613024374E+02  0.00000000000E+00 0.  1.
          1   -1    0    0  501    0  0.00000000000E+00 -0.00000000000E+00 -0.18578868733E+03  0.18578868733E+03  0.00000000000E+00 0. -1.
         25    2    1    2    0    0 -0.36881615081E+02  0.62335057235E+01 -0.25998885482E+02  0.13312574229E+03  0.12508961223E+03 0.  0.
          5    1    3    3  502    0  0.26673313960E+00  0.62493031052E+02 -0.74270354226E+01  0.63072048736E+02  0.41800000000E+01 0. -1.
         -5    1    3    3    0  502 -0.37148348220E+02 -0.56259525328E+02 -0.18571850060E+02  0.70053693552E+02  0.41800000000E+01 0. -1.
        -11    1    1    2    0    0  0.49864465581E+02 -0.87063153655E+01 -0.59970351811E+01  0.50972828899E+02  0.00000000000E+00 0.  1.
         11    1    1    2    0    0 -0.12982850501E+02  0.24728096420E+01 -0.77179742288E+02  0.78303140514E+02  0.00000000000E+00 0. -1.
</event>
<event>
 7    1  0.2899775E-009  0.1247115E+03  0.7561462E-02  0.1235521E+00
         -1   -1    0    0    0  501 -0.00000000000E+00  0.00000000000E+00  0.33605982680E+02  0.33605982680E+02  0.00000000000E+00 0.  1.
          1   -1    0    0  501    0  0.00000000000E+00 -0.00000000000E+00 -0.64900362360E+03  0.64900362360E+03  0.00000000000E+00 0. -1.
         25    2    1    2    0    0  0.60645694363E+02 -0.69584163589E+02 -0.41936923395E+03  0.44725563012E+03  0.12508872140E+03 0.  0.
          5    1    3    3  502    0  0.88415032125E+02 -0.43208049431E+02 -0.37843253340E+03  0.39104067331E+03  0.41800000000E+01 0. -1.
         -5    1    3    3    0  502 -0.27769337762E+02 -0.26376114158E+02 -0.40936700550E+02  0.56214956815E+02  0.41800000000E+01 0. -1.
        -11    1    1    2    0    0 -0.63161752124E+02  0.25294555453E+02 -0.54924015514E+02  0.87440659577E+02  0.00000000000E+00 0.  1.
         11    1    1    2    0    0  0.25160577612E+01  0.44289608136E+02 -0.14110439146E+03  0.14791331659E+03  0.00000000000E+00 0. -1.
</event>
<event>
 7    1  0.2899775E-009  0.1134014E+03  0.7561462E-02  0.1254398E+00
          2   -1    0    0  501    0  0.00000000000E+00  0.00000000000E+00  0.53399060719E+02  0.53399060719E+02  0.00000000000E+00 0. -1.
         -2   -1    0    0    0  501 -0.00000000000E+00 -0.00000000000E+00 -0.33922062132E+03  0.33922062132E+03  0.00000000000E+00 0.  1.
         25    2    1    2    0    0 -0.62170402789E+02 -0.47156121896E+02 -0.12768817713E+03  0.19503881897E+03  0.12508801506E+03 0.  0.
          5    1    3    3  502    0 -0.35247056968E+02 -0.89825765428E+02 -0.78652306284E+02  0.12455794171E+03  0.41800000000E+01 0.  1.
         -5    1    3    3    0  502 -0.26923345821E+02  0.42669643532E+02 -0.49035870843E+02  0.70480877255E+02  0.41800000000E+01 0.  1.
        -11    1    1    2    0    0  0.13601774939E+02  0.29500418816E+01  0.99592032230E+01  0.17114226755E+02  0.00000000000E+00 0. -1.
         11    1    1    2    0    0  0.48568627851E+02  0.44206080014E+02 -0.16809258670E+03  0.18046663632E+03  0.00000000000E+00 0.  1.
</event>
<event>
 7    1  0.2899775E-009  0.1171987E+03  0.7561462E-02  0.1247791E+00
          2   -1    0    0  501    0  0.00000000000E+00  0.00000000000E+00  0.95638645438E+03  0.95638645438E+03  0.00000000000E+00 0. -1.
         -2   -1    0    0    0  501 -0.00000000000E+00 -0.00000000000E+00 -0.27390614825E+02  0.27390614825E+02  0.00000000000E+00 0.  1.
         25    2    1    2    0    0  0.60655283760E+02 -0.60028860623E+02  0.75288674316E+03  0.76795499186E+03  0.12503557070E+03 0.  0.
          5    1    3    3  502    0  0.36617408618E+02  0.31194567034E+02  0.39022896705E+03  0.39320485087E+03  0.41800000000E+01 0. -1.
         -5    1    3    3    0  502  0.24037875142E+02 -0.91223427657E+02  0.36265777611E+03  0.37475014099E+03  0.41800000000E+01 0. -1.
        -11    1    1    2    0    0 -0.21482635320E+02  0.44743711189E+02  0.18938989072E+02  0.53124275226E+02  0.00000000000E+00 0.  1.
         11    1    1    2    0    0 -0.39172648440E+02  0.15285149434E+02  0.15717010732E+03  0.16269780212E+03  0.00000000000E+00 0. -1.
</event>
<event>
 7    1  0.2899775E-009  0.1121505E+03  0.7561462E-02  0.1256639E+00
         -2   -1    0    0    0  501 -0.00000000000E+00  0.00000000000E+00  0.38696475590E+02  0.38696475590E+02  0.00000000000E+00 0.  1.
          2   -1    0    0  501    0  0.00000000000E+00 -0.00000000000E+00 -0.37047376563E+03  0.37047376563E+03  0.00000000000E+00 0. -1.
         25    2    1    2    0    0  0.50838993463E+02  0.25936449729E+02 -0.18174823564E+03  0.22789709824E+03  0.12508942221E+03 0.  0.
          5    1    3    3  502    0  0.35906123649E+02  0.75785140054E+02 -0.96312227556E+02  0.12777384218E+03  0.41800000000E+01 0. -1.
         -5    1    3    3    0  502  0.14932869814E+02 -0.49848690325E+02 -0.85436008083E+02  0.10012325607E+03  0.41800000000E+01 0. -1.
        -11    1    1    2    0    0 -0.12775904788E+02  0.22894422869E+02 -0.98092418333E+01  0.27992848498E+02  0.00000000000E+00 0.  1.
         11    1    1    2    0    0 -0.38063088675E+02 -0.48830872598E+02 -0.14021981256E+03  0.15328029447E+03  0.00000000000E+00 0. -1.
</event>
<event>
 7    1  0.2899775E-009  0.2198021E+03  0.7561462E-02  0.1134031E+00
          2   -1    0    0  501    0  0.00000000000E+00  0.00000000000E+00  0.10503040398E+04  0.10503040398E+04  0.00000000000E+00 0. -1.
         -2   -1    0    0    0  501 -0.00000000000E+00 -0.00000000000E+00 -0.61185601017E+02  0.61185601017E+02  0.00000000000E+00 0.  1.
         25    2    1    2    0    0 -0.20181706473E+03  0.81295246713E+02  0.66075313551E+03  0.70681097275E+03  0.12509196760E+03 0.  0.
          5    1    3    3  502    0 -0.12065168484E+03  0.47795292947E+02  0.20501556705E+03  0.24267277189E+03  0.41800000000E+01 0. -1.
         -5    1    3    3    0  502 -0.81165379898E+02  0.33499953766E+02  0.45573756846E+03  0.46413820086E+03  0.41800000000E+01 0. -1.
        -11    1    1    2    0    0  0.13819745033E+03 -0.33270660260E+02  0.27248109965E+03  0.30732950034E+03  0.00000000000E+00 0.  1.
         11    1    1    2    0    0  0.63619614408E+02 -0.48024586453E+02  0.55884203603E+02  0.97349167709E+02  0.00000000000E+00 0. -1.
</event>
<event>
 7    1  0.2899775E-009  0.9879838E+02  0.7561462E-02  0.1282843E+00
          2   -1    0    0  501    0  0.00000000000E+00  0.00000000000E+00  0.42912955794E+02  0.42912955794E+02  0.00000000000E+00 0. -1.
         -2   -1    0    0    0  501 -0.00000000000E+00 -0.00000000000E+00 -0.29910303848E+03  0.29910303848E+03  0.00000000000E+00 0.  1.
         25    2    1    2    0    0  0.23683370446E+02  0.15955267106E+02 -0.12344657784E+03  0.17805225078E+03  0.12509226133E+03 0.  0.
          5    1    3    3  502    0  0.52290327622E+02 -0.36528289782E+02 -0.40303328582E+02  0.75567354142E+02  0.41800000000E+01 0. -1.
         -5    1    3    3    0  502 -0.28606957176E+02  0.52483556888E+02 -0.83143249254E+02  0.10248489664E+03  0.41800000000E+01 0. -1.
        -11    1    1    2    0    0 -0.45425273380E+02  0.21287533649E+01 -0.23635902200E+02  0.51250784631E+02  0.00000000000E+00 0. -1.
         11    1    1    2    0    0  0.21741902934E+02 -0.18084020471E+02 -0.10910760265E+03  0.11271295886E+03  0.00000000000E+00 0.  1.
</event>
<event>
 7    1  0.2899775E-009  0.7799661E+02  0.7561462E-02  0.1334835E+00
         -2   -1    0    0    0  501 -0.00000000000E+00  0.00000000000E+00  0.25556229262E+03  0.25556229262E+03  0.00000000000E+00 0. -1.
          2   -1    0    0  501    0  0.00000000000E+00 -0.00000000000E+00 -0.67795379885E+02  0.67795379885E+02  0.00000000000E+00 0.  1.
         25    2    1    2    0    0  0.43019687786E+02  0.49922137962E+02  0.16352571639E+03  0.21617263148E+03  0.12508810208E+03 0.  0.
          5    1    3    3  502    0  0.25275461537E+02  0.20081150616E+02 -0.13855629956E+02  0.35377287169E+02  0.41800000000E+01 0. -1.
         -5    1    3    3    0  502  0.17744226250E+02  0.29840987346E+02  0.17738134635E+03  0.18079534431E+03  0.41800000000E+01 0. -1.
        -11    1    1    2    0    0 -0.29155945382E+02 -0.62996951629E+02 -0.78530252394E+01  0.69859538154E+02  0.00000000000E+00 0.  1.
         11    1    1    2    0    0 -0.13863742404E+02  0.13074813667E+02  0.32094221580E+02  0.37325502873E+02  0.00000000000E+00 0. -1.
</event>
<event>
 7    1  0.2899775E-009  0.8027091E+02  0.7561462E-02  0.1328284E+00
         -2   -1    0    0    0  501 -0.00000000000E+00  0.00000000000E+00  0.32397736595E+02  0.32397736595E+02  0.00000000000E+00 0.  1.
          2   -1    0    0  501    0  0.00000000000E+00 -0.00000000000E+00 -0.40146775412E+03  0.40146775412E+03  0.00000000000E+00 0. -1.
         25    2    1    2    0    0  0.22639802611E+02  0.10762234720E+02 -0.26400722650E+03  0.29321614170E+03  0.12508998262E+03 0.  0.
          5    1    3    3  502    0 -0.26427210204E+02  0.37158324546E+02 -0.35392009920E+02  0.57872318844E+02  0.41800000000E+01 0. -1.
         -5    1    3    3    0  502  0.49067012815E+02 -0.26396089826E+02 -0.22861521658E+03  0.23534382285E+03  0.41800000000E+01 0. -1.
        -11    1    1    2    0    0  0.12799038437E+02  0.11351497804E+02  0.88913018008E+01  0.19280226529E+02  0.00000000000E+00 0.  1.
         11    1    1    2    0    0 -0.35438841048E+02 -0.22113732523E+02 -0.11395409283E+03  0.12136912249E+03  0.00000000000E+00 0. -1.
</event>
<event>
 7    1  0.2899775E-009  0.4634368E+03  0.7561462E-02  0.1023789E+00
          1   -1    0    0  501    0  0.00000000000E+00  0.00000000000E+00  0.14261077079E+04  0.14261077079E+04  0.00000000000E+00 0. -1.
         -1   -1    0    0    0  501 -0.00000000000E+00 -0.00000000000E+00 -0.16028258034E+03  0.16028258034E+03  0.00000000000E+00 0.  1.
         25    2    1    2    0    0 -0.42479131921E+03 -0.18273366090E+03  0.72526436827E+03  0.86919186305E+03  0.12508731037E+03 0.  0.
          5    1    3    3  502    0 -0.14636130275E+03 -0.41368722079E+02  0.14473947820E+03  0.20999997871E+03  0.41800000000E+01 0.  1.
         -5    1    3    3    0  502 -0.27843001646E+03 -0.14136493882E+03  0.58052489007E+03  0.65919188434E+03  0.41800000000E+01 0.  1.
        -11    1    1    2    0    0  0.14770330342E+03  0.62587960676E+02  0.12441092373E+03  0.20300639548E+03  0.00000000000E+00 0.  1.
         11    1    1    2    0    0  0.27708801579E+03  0.12014570022E+03  0.41614983560E+03  0.51419202973E+03  0.00000000000E+00 0. -1.
</event>
<event>
 7    1  0.2899775E-009  0.2208956E+03  0.7561462E-02  0.1133217E+00
         -1   -1    0    0    0  501 -0.00000000000E+00  0.00000000000E+00  0.58121154036E+02  0.58121154036E+02  0.00000000000E+00 0.  1.
          1   -1    0    0  501    0  0.00000000000E+00 -0.00000000000E+00 -0.10500338101E+04  0.10500338101E+04  0.00000000000E+00 0. -1.
         25    2    1    2    0    0 -0.21425344020E+03  0.39397657246E+02 -0.42164377068E+03  0.49080408845E+03  0.12509385220E+03 0.  0.
          5    1    3    3  502    0 -0.16064237075E+03  0.42317986405E+02 -0.39930282584E+03  0.43250086980E+03  0.41800000000E+01 0.  1.
         -5    1    3    3    0  502 -0.53611069445E+02 -0.29203291595E+01 -0.22340944844E+02  0.58303218659E+02  0.41800000000E+01 0.  1.
        -11    1    1    2    0    0  0.15202076944E+03 -0.46872630256E+02 -0.29631787584E+03  0.33632074178E+03  0.00000000000E+00 0.  1.
         11    1    1    2    0    0  0.62232670757E+02  0.74749730098E+01 -0.27395100952E+03  0.28103013388E+03  0.00000000000E+00 0. -1.
</event>
<event>
 7    1  0.2899775E-009  0.1314017E+03  0.7561462E-02  0.1225391E+00
         -2   -1    0    0    0  501 -0.00000000000E+00  0.00000000000E+00  0.21331801994E+03  0.21331801994E+03  0.00000000000E+00 0.  1.
          2   -1    0    0  501    0  0.00000000000E+00 -0.00000000000E+00 -0.10356718231E+03  0.10356718231E+03  0.00000000000E+00 0. -1.
         25    2    1    2    0    0  0.45610092845E+02  0.84237858679E+02  0.93864265268E+02  0.18339768593E+03  0.12509162045E+03 0.  0.
          5    1    3    3  502    0  0.50968492542E+02 -0.18552822204E+02  0.36152701124E+02  0.65318333126E+02  0.41800000000E+01 0.  1.
         -5    1    3    3    0  502 -0.53583996972E+01  0.10279068088E+03  0.57711564144E+02  0.11807935281E+03  0.41800000000E+01 0.  1.
        -11    1    1    2    0    0 -0.14704825308E+01 -0.48692933591E+02  0.47965894543E+02  0.68365862387E+02  0.00000000000E+00 0.  1.
         11    1    1    2    0    0 -0.44139610314E+02 -0.35544925088E+02 -0.32079322189E+02  0.65121653928E+02  0.00000000000E+00 0. -1.
</event>
<event>
 7    1  0.2899775E-009  0.1862078E+03  0.7561462E-02  0.1161927E+00
         -1   -1    0    0    0  501 -0.00000000000E+00  0.00000000000E+00  0.20096641446E+03  0.20096641446E+03  0.00000000000E+00 0.  1.
          1   -1    0    0  501    0  0.00000000000E+00 -0.00000000000E+00 -0.26365817130E+03  0.26365817130E+03  0.00000000000E+00 0. -1.
         25    2    1    2    0    0 -0.14773011807E+03  0.77530411525E+02  0.83360315433E+02  0.22456992271E+03  0.12509018946E+03 0.  0.
          5    1    3    3  502    0 -0.15168158618E+03  0.28215842632E+02  0.42006581017E+02  0.15995456420E+03  0.41800000000E+01 0.  1.
         -5    1    3    3    0  502  0.39514681012E+01  0.49314568893E+02  0.41353734416E+02  0.64615358510E+02  0.41800000000E+01 0.  1.
        -11    1    1    2    0    0  0.36450801802E+02 -0.30847325960E+02  0.35091251436E+01  0.47880397139E+02  0.00000000000E+00 0.  1.
         11    1    1    2    0    0  0.11127931627E+03 -0.46683085565E+02 -0.14956119741E+03  0.19217426591E+03  0.00000000000E+00 0. -1.
</event>
<event>
 7    1  0.2899775E-009  0.2620798E+03  0.7561462E-02  0.1105900E+00
         -2   -1    0    0    0  501 -0.00000000000E+00  0.00000000000E+00  0.14467715224E+03  0.14467715224E+03  0.00000000000E+00 0.  1.
          2   -1    0    0  501    0  0.00000000000E+00 -0.00000000000E+00 -0.50773340925E+03  0.50773340925E+03  0.00000000000E+00 0. -1.
         25    2    1    2    0    0  0.11689936802E+03  0.21453473504E+03 -0.13636688818E+03  0.30648154871E+03  0.12507756284E+03 0.  0.
          5    1    3    3  502    0  0.12146176391E+02  0.13493666244E+03 -0.34038422596E+02  0.13975521130E+03  0.41800000000E+01 0. -1.
         -5    1    3    3    0  502  0.10475319163E+03  0.79598072594E+02 -0.10232846559E+03  0.16672633741E+03  0.41800000000E+01 0. -1.
        -11    1    1    2    0    0  0.10855270060E+02 -0.59385405731E+01 -0.28629320090E+02  0.31188798005E+02  0.00000000000E+00 0. -1.
         11    1    1    2    0    0 -0.12775463808E+03 -0.20859619446E+03 -0.19806004874E+03  0.31474021478E+03  0.00000000000E+00 0.  1.
</event>
<event>
 7    1  0.2899775E-009  0.2126205E+03  0.7561462E-02  0.1139507E+00
          2   -1    0    0  501    0  0.00000000000E+00  0.00000000000E+00  0.13039805342E+03  0.13039805342E+03  0.00000000000E+00 0. -1.
         -2   -1    0    0    0  501 -0.00000000000E+00 -0.00000000000E+00 -0.36356734593E+03  0.36356734593E+03  0.00000000000E+00 0.  1.
         25    2    1    2    0    0 -0.14997133516E+03 -0.12170788654E+03 -0.12695436656E+03  0.26281059764E+03  0.12509111890E+03 0.  0.
          5    1    3    3  502    0 -0.15024970288E+03 -0.14236801886E+03 -0.12451670071E+03  0.24158954274E+03  0.41800000000E+01 0.  1.
         -5    1    3    3    0  502  0.27836772306E+00  0.20660132319E+02 -0.24376658542E+01  0.21221054895E+02  0.41800000000E+01 0.  1.
        -11    1    1    2    0    0  0.81100721096E+02  0.40497085132E+02 -0.81369935869E+02  0.12181300148E+03  0.00000000000E+00 0.  1.
         11    1    1    2    0    0  0.68870614060E+02  0.81210801408E+02 -0.24844990084E+02  0.10934180023E+03  0.00000000000E+00 0. -1.
</event>
<event>
 7    1  0.2899775E-009  0.1284765E+03  0.7561462E-02  0.1229734E+00
         -4   -1    0    0    0  501 -0.00000000000E+00  0.00000000000E+00  0.23560128079E+03  0.23560128079E+03  0.00000000000E+00 0. -1.
          4   -1    0    0  501    0  0.00000000000E+00 -0.00000000000E+00 -0.71341508730E+02  0.71341508730E+02  0.00000000000E+00 0.  1.
         25    2    1    2    0    0  0.49479817639E+02 -0.50021304093E+02  0.89517057422E+02  0.16914551325E+03  0.12508604186E+03 0.  0.
          5    1    3    3  502    0  0.51680295901E+02  0.32213318284E+02  0.41307927378E+02  0.73704600423E+02  0.41800000000E+01 0.  1.
         -5    1    3    3    0  502 -0.22004782617E+01 -0.82234622377E+02  0.48209130044E+02  0.95440912829E+02  0.41800000000E+01 0.  1.
        -11    1    1    2    0    0  0.85826127776E+01  0.54626729373E+02  0.23002929537E+02  0.59890529897E+02  0.00000000000E+00 0.  1.
         11    1    1    2    0    0 -0.58062430417E+02 -0.46054252804E+01  0.51739785101E+02  0.77906746372E+02  0.00000000000E+00 0. -1.
</event>
<event>
 7    1  0.2899775E-009  0.1353081E+03  0.7561462E-02  0.1219785E+00
          1   -1    0    0  501    0  0.00000000000E+00  0.00000000000E+00  0.85510489045E+02  0.85510489045E+02  0.00000000000E+00 0. -1.
         -1   -1    0    0    0  501 -0.00000000000E+00 -0.00000000000E+00 -0.42997742561E+03  0.42997742561E+03  0.00000000000E+00 0.  1.
         25    2    1    2    0    0 -0.12234717837E+03  0.30821038504E+01 -0.46563738002E+02  0.18109170303E+03  0.12509073422E+03 0.  0.
          5    1    3    3  502    0 -0.12282455139E+03 -0.27608633945E+01  0.10686672298E+02  0.12339031630E+03  0.41800000000E+01 0.  1.
         -5    1    3    3    0  502  0.47737301581E+00  0.58429672449E+01 -0.57250410300E+02  0.57701386731E+02  0.41800000000E+01 0.  1.
        -11    1    1    2    0    0  0.93392830293E+02 -0.32812693393E+02 -0.25994390750E+03  0.27815414547E+03  0.00000000000E+00 0.  1.
         11    1    1    2    0    0  0.28954348080E+02  0.29730589543E+02 -0.37959291064E+02  0.56242066155E+02  0.00000000000E+00 0. -1.
</event>
<event>
 7    1  0.2899775E-009  0.1951836E+03  0.7561462E-02  0.1153867E+00
          1   -1    0    0  501    0  0.00000000000E+00  0.00000000000E+00  0.11125681495E+04  0.11125681495E+04  0.00000000000E+00 0. -1.
         -1   -1    0    0    0  501 -0.00000000000E+00 -0.00000000000E+00 -0.45570913304E+02  0.45570913304E+02  0.00000000000E+00 0.  1.
         25    2    1    2    0    0  0.34933915435E+02  0.17395326407E+03  0.32048561202E+03  0.38709083501E+03  0.12509264769E+03 0.  0.
          5    1    3    3  502    0  0.78307365919E+02  0.10597341583E+03  0.15901847250E+03  0.20655932662E+03  0.41800000000E+01 0. -1.
         -5    1    3    3    0  502 -0.43373450483E+02  0.67979848246E+02  0.16146713952E+03  0.18053150839E+03  0.41800000000E+01 0. -1.
        -11    1    1    2    0    0 -0.75528334879E+01 -0.65398590850E+02  0.14553238112E+03  0.15973006897E+03  0.00000000000E+00 0. -1.
         11    1    1    2    0    0 -0.27381081948E+02 -0.10855467322E+03  0.60097924307E+03  0.61131815884E+03  0.00000000000E+00 0.  1.
</event>
<event>
 7    1  0.2899775E-009  0.1646155E+03  0.7561462E-02  0.1183582E+00
         -2   -1    0    0    0  501 -0.00000000000E+00  0.00000000000E+00  0.59419377892E+02  0.59419377892E+02  0.00000000000E+00 0. -1.
          2   -1    0    0  501    0  0.00000000000E+00 -0.00000000000E+00 -0.57824891624E+03  0.57824891624E+03  0.00000000000E+00 0.  1.
         25    2    1    2    0    0 -0.35933593189E+02 -0.13410103907E+03 -0.17594034512E+03  0.25666364175E+03  0.12508760192E+03 0.  0.
          5    1    3    3  502    0 -0.35271413529E+02 -0.15276375219E+03 -0.11982080424E+03  0.19737105696E+03  0.41800000000E+01 0.  1.
         -5    1    3    3    0  502 -0.66217966009E+00  0.18662713115E+02 -0.56119540877E+02  0.59292584789E+02  0.41800000000E+01 0.  1.
        -11    1    1    2    0    0  0.15399403249E+02  0.13168242436E+03 -0.33230590125E+03  0.35777732531E+03  0.00000000000E+00 0.  1.
         11    1    1    2    0    0  0.20534189940E+02  0.24186147138E+01 -0.10583291978E+02  0.23227327068E+02  0.00000000000E+00 0. -1.
</event>
<event>
 7    1  0.2899775E-009  0.7707847E+02  0.7561462E-02  0.1337553E+00
          2   -1    0    0  501    0  0.00000000000E+00  0.00000000000E+00  0.29592953942E+03  0.29592953942E+03  0.00000000000E+00 0. -1.
         -2   -1    0    0    0  501 -0.00000000000E+00 -0.00000000000E+00 -0.42826383426E+02  0.42826383426E+02  0.00000000000E+00 0.  1.
         25    2    1    2    0    0 -0.10529742928E+02 -0.19881033972E+02  0.18380071581E+03  0.22346437502E+03  0.12508993873E+03 0.  0.
          5    1    3    3  502    0 -0.30810031812E+01 -0.43082210855E+02  0.58292109636E+01  0.43783804919E+02  0.41800000000E+01 0.  1.
         -5    1    3    3    0  502 -0.74487397469E+01  0.23201176882E+02  0.17797150485E+03  0.17968057010E+03  0.41800000000E+01 0.  1.
        -11    1    1    2    0    0 -0.22625089680E+02 -0.22715471852E+02  0.69228014214E+01  0.32799581156E+02  0.00000000000E+00 0. -1.
         11    1    1    2    0    0  0.33154832608E+02  0.42596505824E+02  0.62379638760E+02  0.82491966673E+02  0.00000000000E+00 0.  1.
</event>
<event>
 7    1  0.2899775E-009  0.9615424E+02  0.7561462E-02  0.1288597E+00
          2   -1    0    0  501    0  0.00000000000E+00  0.00000000000E+00  0.78450833065E+03  0.78450833065E+03  0.00000000000E+00 0. -1.
         -2   -1    0    0    0  501 -0.00000000000E+00 -0.00000000000E+00 -0.23712038956E+02  0.23712038956E+02  0.00000000000E+00 0.  1.
         25    2    1    2    0    0  0.16007584379E+02 -0.79454970997E+02  0.41931188149E+03  0.44501560745E+03  0.12508837573E+03 0.  0.
          5    1    3    3  502    0  0.22433004382E+02 -0.31090279039E+02  0.38071893885E+03  0.38266725485E+03  0.41800000000E+01 0.  1.
         -5    1    3    3    0  502 -0.64254200029E+01 -0.48364691958E+02  0.38592942642E+02  0.62348352602E+02  0.41800000000E+01 0.  1.
        -11    1    1    2    0    0  0.17265414277E+02 -0.14186434886E+01  0.92193533682E+01  0.19624055545E+02  0.00000000000E+00 0.  1.
         11    1    1    2    0    0 -0.33272998656E+02  0.80873614486E+02  0.33226505684E+03  0.34358070661E+03  0.00000000000E+00 0. -1.
</event>
<event>
 7    1  0.3586281E-009  0.8827292E+02  0.7561462E-02  0.1307089E+00
          1   -1    0    0  501    0  0.00000000000E+00  0.00000000000E+00  0.11784963815E+03  0.11784963815E+03  0.00000000000E+00 0.  1.
         -1   -1    0    0    0  501 -0.00000000000E+00 -0.00000000000E+00 -0.12539468190E+03  0.12539468190E+03  0.00000000000E+00 0. -1.
         25    2    1    2    0    0 -0.12917084465E+02  0.22316167091E+01 -0.57281772171E+02  0.13820713905E+03  0.12509268834E+03 0.  0.
          5    1    3    3  502    0 -0.57646703817E+02  0.18208712251E+02 -0.66147630219E+02  0.89708868271E+02  0.41800000000E+01 0. -1.
         -5    1    3    3    0  502  0.44729619351E+02 -0.15977095542E+02  0.88658580485E+01  0.48498270775E+02  0.41800000000E+01 0. -1.
        -11    1    1    2    0    0  0.38702522298E+02  0.96314006116E+01 -0.80215447214E+01  0.40681621031E+02  0.00000000000E+00 0. -1.
         11    1    1    2    0    0 -0.25785437832E+02 -0.11863017321E+02  0.57758273139E+02  0.64355559979E+02  0.00000000000E+00 0.  1.
</event>
<event>
 7    1  0.2899775E-009  0.1178012E+03  0.7561462E-02  0.1246769E+00
         -2   -1    0    0    0  501 -0.00000000000E+00  0.00000000000E+00  0.38577247775E+02  0.38577247775E+02  0.00000000000E+00 0.  1.
          2   -1    0    0  501    0  0.00000000000E+00 -0.00000000000E+00 -0.55392772825E+03  0.55392772825E+03  0.00000000000E+00 0. -1.
         25    2    1    2    0    0  0.10398700799E+02  0.63310478503E+02 -0.43012137349E+03  0.45251167203E+03  0.12508424249E+03 0.  0.
          5    1    3    3  502    0 -0.45386779361E+02  0.70381748292E+02 -0.24153579491E+03  0.25567667640E+03  0.41800000000E+01 0. -1.
         -5    1    3    3    0  502  0.55785480160E+02 -0.70712697895E+01 -0.18858557858E+03  0.19683499562E+03  0.41800000000E+01 0. -1.
        -11    1    1    2    0    0 -0.17275076194E+02  0.11166931556E+02 -0.56056094201E+02  0.59711090385E+02  0.00000000000E+00 0.  1.
         11    1    1    2    0    0  0.68763753951E+01 -0.74477410058E+02 -0.29173012779E+02  0.80282213610E+02  0.00000000000E+00 0. -1.
</event>
<event>
 7    1  0.2899775E-009  0.1354410E+03  0.7561462E-02  0.1219598E+00
         -1   -1    0    0    0  501 -0.00000000000E+00  0.00000000000E+00  0.26442199488E+02  0.26442199488E+02  0.00000000000E+00 0.  1.
          1   -1    0    0  501    0  0.00000000000E+00 -0.00000000000E+00 -0.80419556908E+03  0.80419556908E+03  0.00000000000E+00 0. -1.
         25    2    1    2    0    0  0.55542232465E+02 -0.10415091674E+02 -0.24124372316E+03  0.27755894472E+03  0.12508804942E+03 0.  0.
          5    1    3    3  502    0  0.95294928044E+02 -0.76435015542E-01 -0.17973949421E+03  0.20348190910E+03  0.41800000000E+01 0. -1.
         -5    1    3    3    0  502 -0.39752695579E+02 -0.10338656658E+02 -0.61504228951E+02  0.74077035619E+02  0.41800000000E+01 0. -1.
        -11    1    1    2    0    0 -0.51707161526E+02 -0.51027570098E+02 -0.30360802489E+03  0.31217827638E+03  0.00000000000E+00 0.  1.
         11    1    1    2    0    0 -0.38350709393E+01  0.61442661772E+02 -0.23290162154E+03  0.24090054747E+03  0.00000000000E+00 0. -1.
</event>
<event>
 7    1  0.2899775E-009  0.1602348E+03  0.7561462E-02  0.1188432E+00
         -1   -1    0    0    0  501 -0.00000000000E+00  0.00000000000E+00  0.80990447521E+03  0.80990447521E+03  0.00000000000E+00 0.  1.
          1   -1    0    0  501    0  0.00000000000E+00 -0.00000000000E+00 -0.37266397258E+02  0.37266397258E+02  0.00000000000E+00 0. -1.
         25    2    1    2    0    0 -0.11066460909E+03 -0.77821216738E+02  0.48470494102E+03  0.51854565367E+03  0.12509163685E+03 0.  0.
          5    1    3    3  502    0 -0.36529613346E+02 -0.79729639386E+02  0.38099400743E+03  0.39097971066E+03  0.41800000000E+01 0. -1.
         -5    1    3    3    0  502 -0.74134995740E+02  0.19084226475E+01  0.10371093359E+03  0.12756594301E+03  0.41800000000E+01 0. -1.
        -11    1    1    2    0    0  0.52706695400E+02 -0.95316215321E+01  0.96564613977E+02  0.11042450915E+03  0.00000000000E+00 0. -1.
         11    1    1    2    0    0  0.57957913686E+02  0.87352838271E+02  0.19136852295E+03  0.21820070964E+03  0.00000000000E+00 0.  1.
</event>
<event>
 7    1  0.2899775E-009  0.1052965E+03  0.7561462E-02  0.1269537E+00
         -4   -1    0    0    0  501 -0.00000000000E+00  0.00000000000E+00  0.17138210405E+03  0.17138210405E+03  0.00000000000E+00 0. -1.
          4   -1    0    0  501    0  0.00000000000E+00 -0.00000000000E+00 -0.93390525614E+02  0.93390525614E+02  0.00000000000E+00 0.  1.
         25    2    1    2    0    0 -0.25330036382E+02 -0.52021532022E+02  0.68652045007E+02  0.15400352457E+03  0.12512446507E+03 0.  0.
          5    1    3    3  502    0 -0.62711936944E+02 -0.70852349893E+02  0.56215041822E+02  0.11013830327E+03  0.41800000000E+01 0.  1.
         -5    1    3    3    0  502  0.37381900562E+02  0.18830817871E+02  0.12437003185E+02  0.43865221298E+02  0.41800000000E+01 0.  1.
        -11    1    1    2    0    0  0.29095812216E+02  0.87528942065E+01 -0.36587044865E+02  0.47558293677E+02  0.00000000000E+00 0.  1.
         11    1    1    2    0    0 -0.37657758345E+01  0.43268637816E+02  0.45926578292E+02  0.63210811415E+02  0.00000000000E+00 0. -1.
</event>
<event>
 6    1  0.2899775E-009  0.1133031E+03  0.7561462E-02  0.1254572E+00
         -2   -1    0    0    0  501 -0.00000000000E+00  0.00000000000E+00  0.10920211119E+03  0.10920211119E+03  0.00000000000E+00 0.  1.
          2   -1    0    0  501    0  0.00000000000E+00 -0.00000000000E+00 -0.23945342446E+03  0.23945342446E+03  0.00000000000E+00 0. -1.
          5    1    1    2  502    0 -0.92235121334E+02 -0.36698745778E+02  0.51780061014E+02  0.11203911222E+03  0.41800000000E+01 0.  1.
         -5    1    1    2    0  502 -0.26668968024E+01  0.84955171098E+01 -0.46602152804E+02  0.47628974328E+02  0.41800000000E+01 0.  1.
        -11    1    1    2    0    0  0.92773454738E+02  0.37302126746E+01 -0.62224220967E+02  0.11177066729E+03  0.00000000000E+00 0.  1.
         11    1    1    2    0    0  0.21285633979E+01  0.24473015994E+02 -0.73205000509E+02  0.77216781813E+02  0.00000000000E+00 0. -1.
</event>
<event>
 7    1  0.2899775E-009  0.1108834E+03  0.7561462E-02  0.1258943E+00
          1   -1    0    0  501    0  0.00000000000E+00  0.00000000000E+00  0.13172079378E+03  0.13172079378E+03  0.00000000000E+00 0. -1.
         -1   -1    0    0    0  501 -0.00000000000E+00 -0.00000000000E+00 -0.10733878220E+03  0.10733878220E+03  0.00000000000E+00 0.  1.
         25    2    1    2    0    0  0.21848843082E+02 -0.24636687687E+02 -0.23184647743E+02  0.13141039470E+03  0.12508727201E+03 0.  0.
          5    1    3    3  502    0  0.58007498457E+02 -0.54971602723E+02 -0.35043246982E+01  0.80103056588E+02  0.41800000000E+01 0.  1.
         -5    1    3    3    0  502 -0.36158655374E+02  0.30334915036E+02 -0.19680323045E+02  0.51307338109E+02  0.41800000000E+01 0.  1.
        -11    1    1    2    0    0  0.34578387481E+02  0.11273589064E+02  0.74169849238E+01  0.37118329118E+02  0.00000000000E+00 0.  1.
         11    1    1    2    0    0 -0.56427230563E+02  0.13363098623E+02  0.40149674397E+02  0.70530852171E+02  0.00000000000E+00 0. -1.
</event>
<event>
 7    1  0.2899775E-009  0.1729076E+03  0.7561462E-02  0.1174849E+00
         -2   -1    0    0    0  501 -0.00000000000E+00  0.00000000000E+00  0.20868234813E+03  0.20868234813E+03  0.00000000000E+00 0.  1.
          2   -1    0    0  501    0  0.00000000000E+00 -0.00000000000E+00 -0.20334782135E+03  0.20334782135E+03  0.00000000000E+00 0. -1.
         25    2    1    2    0    0  0.11208567490E+03  0.91094841290E+02  0.97748820011E+02  0.21462484686E+03  0.12509006534E+03 0.  0.
          5    1    3    3  502    0  0.85314919347E+02  0.35639903230E+01  0.87653853178E+02  0.12244185505E+03  0.41800000000E+01 0. -1.
         -5    1    3    3    0  502  0.26770755551E+02  0.87530850967E+02  0.10094966833E+02  0.92182991811E+02  0.41800000000E+01 0. -1.
        -11    1    1    2    0    0  0.12267849031E+02 -0.25046592429E+02 -0.36426146681E+02  0.45876966706E+02  0.00000000000E+00 0. -1.
         11    1    1    2    0    0 -0.12435352393E+03 -0.66048248861E+02 -0.55988146554E+02  0.15152835591E+03  0.00000000000E+00 0.  1.
</event>
<event>
 6    1  0.2899775E-009  0.1109294E+03  0.7561462E-02  0.1258858E+00
          1   -1    0    0  501    0  0.00000000000E+00  0.00000000000E+00  0.27917349617E+03  0.27917349617E+03  0.00000000000E+00 0. -1.
         -1   -1    0    0    0  501 -0.00000000000E+00 -0.00000000000E+00 -0.65709089541E+02  0.65709089541E+02  0.00000000000E+00 0.  1.
          5    1    1    2  502    0 -0.12039150074E+02  0.30441500196E+02  0.59904546420E+02  0.68393370662E+02  0.41800000000E+01 0.  1.
         -5    1    1    2    0  502  0.45005671264E+02 -0.99203650916E+02  0.91199414602E+02  0.14213261563E+03  0.41800000000E+01 0.  1.
        -11    1    1    2    0    0 -0.27750495289E+02  0.30537248082E+02  0.81455441787E+02  0.91310473144E+02  0.00000000000E+00 0. -1.
         11    1    1    2    0    0 -0.52160259004E+01  0.38224902639E+02 -0.19094996184E+02  0.43046126274E+02  0.00000000000E+00 0.  1.
</event>
<event>
 7    1  0.2899775E-009  0.2833067E+03  0.7561462E-02  0.1093896E+00
         -2   -1    0    0    0  501 -0.00000000000E+00  0.00000000000E+00  0.93701555863E+02  0.93701555863E+02  0.00000000000E+00 0.  1.
          2   -1    0    0  501    0  0.00000000000E+00 -0.00000000000E+00 -0.10827201978E+04  0.10827201978E+04  0.00000000000E+00 0. -1.
         25    2    1    2    0    0  0.95858026349E+02 -0.26010897930E+03 -0.29559846373E+03  0.42411126570E+03  0.12508585694E+03 0.  0.
          5    1    3    3  502    0  0.80336883485E+01 -0.12783205852E+02 -0.88184000880E+02  0.89564730288E+02  0.41800000000E+01 0. -1.
         -5    1    3    3    0  502  0.87824338000E+02 -0.24732577345E+03 -0.20741446285E+03  0.33454653541E+03  0.41800000000E+01 0. -1.
        -11    1    1    2    0    0 -0.59234930265E+02  0.23890625763E+03 -0.62667685272E+03  0.67328215083E+03  0.00000000000E+00 0. -1.
         11    1    1    2    0    0 -0.36623096084E+02  0.21202721667E+02 -0.66743325533E+02  0.79028337171E+02  0.00000000000E+00 0.  1.
</event>
<event>
 7    1  0.2899775E-009  0.9698024E+02  0.7561462E-02  0.1286777E+00
         -1   -1    0    0    0  501 -0.00000000000E+00  0.00000000000E+00  0.43514915378E+02  0.43514915378E+02  0.00000000000E+00 0.  1.
          1   -1    0    0  501    0  0.00000000000E+00 -0.00000000000E+00 -0.34083307388E+03  0.34083307388E+03  0.00000000000E+00 0. -1.
         25    2    1    2    0    0  0.27288893812E+02  0.22256507085E+02 -0.22811689961E+03  0.26254008163E+03  0.12509971519E+03 0.  0.
          5    1    3    3  502    0  0.76100818651E+02  0.26606198827E+02 -0.14533522028E+03  0.16624988141E+03  0.41800000000E+01 0. -1.
         -5    1    3    3    0  502 -0.48811924839E+02 -0.43496917420E+01 -0.82781679335E+02  0.96290200220E+02  0.41800000000E+01 0. -1.
        -11    1    1    2    0    0  0.12979836563E+02 -0.19841629622E+02 -0.77132629413E+02  0.80694540977E+02  0.00000000000E+00 0. -1.
         11    1    1    2    0    0 -0.40268730374E+02 -0.24148774630E+01  0.79313705246E+01  0.41113366653E+02  0.00000000000E+00 0.  1.
</event>
<event>
 7    1  0.2899775E-009  0.1235172E+03  0.7561462E-02  0.1237405E+00
         -1   -1    0    0    0  501 -0.00000000000E+00  0.00000000000E+00  0.25116275745E+03  0.25116275745E+03  0.00000000000E+00 0.  1.
          1   -1    0    0  501    0  0.00000000000E+00 -0.00000000000E+00 -0.10151095896E+03  0.10151095896E+03  0.00000000000E+00 0. -1.
         25    2    1    2    0    0 -0.25606967362E+02 -0.11024188632E+03  0.11327444704E+03  0.20318758081E+03  0.12508038362E+03 0.  0.
          5    1    3    3  502    0  0.19143658544E+02 -0.59146766016E+02  0.11958679357E+03  0.13484544186E+03  0.41800000000E+01 0. -1.
         -5    1    3    3    0  502 -0.44750625906E+02 -0.51095120308E+02 -0.63123465364E+01  0.68342138956E+02  0.41800000000E+01 0. -1.
        -11    1    1    2    0    0  0.31155142101E+02  0.78557097671E+02  0.64853085187E+02  0.10652597398E+03  0.00000000000E+00 0.  1.
         11    1    1    2    0    0 -0.55481747392E+01  0.31684788653E+02 -0.28475733729E+02  0.42960161619E+02  0.00000000000E+00 0. -1.
</event>
<event>
 7    1  0.2899775E-009  0.6866032E+02  0.7561462E-02  0.1364709E+00
         -2   -1    0    0    0  501 -0.00000000000E+00  0.00000000000E+00  0.81738879938E+02  0.81738879938E+02  0.00000000000E+00 0.  1.
          2   -1    0    0  501    0  0.00000000000E+00 -0.00000000000E+00 -0.15942752932E+03  0.15942752932E+03  0.00000000000E+00 0. -1.
         25    2    1    2    0    0 -0.36717673397E+02  0.21002062957E+01 -0.40675290619E+02  0.13658262858E+03  0.12509091396E+03 0.  0.
          5    1    3    3  502    0 -0.39484142138E+02 -0.38110781054E+02 -0.68170069814E+02  0.87613126479E+02  0.41800000000E+01 0. -1.
         -5    1    3    3    0  502  0.27664687417E+01  0.40210987350E+02  0.27494779195E+02  0.48969502100E+02  0.41800000000E+01 0. -1.
        -11    1    1    2    0    0  0.20244318731E+02  0.87320622475E+01 -0.65967636034E+02  0.69554369783E+02  0.00000000000E+00 0. -1.
         11    1    1    2    0    0  0.16473354665E+02 -0.10832268543E+02  0.28954277269E+02  0.35029410898E+02  0.00000000000E+00 0.  1.
</event>
<event>
 7    1  0.2899775E-009  0.1625847E+03  0.7561462E-02  0.1185809E+00
         -2   -1    0    0    0  501 -0.00000000000E+00  0.00000000000E+00  0.49043948937E+02  0.49043948937E+02  0.00000000000E+00 0.  1.
          2   -1    0    0  501    0  0.00000000000E+00 -0.00000000000E+00 -0.55412799557E+03  0.55412799557E+03  0.00000000000E+00 0. -1.
         25    2    1    2    0    0  0.10318861308E+03  0.67803900475E+02 -0.26025247785E+03  0.31404439236E+03  0.12508904572E+03 0.  0.
          5    1    3    3  502    0 -0.13936373975E+02 -0.20481368745E+02 -0.65870467047E+02  0.70498934845E+02  0.41800000000E+01 0.  1.
         -5    1    3    3    0  502  0.11712498705E+03  0.88285269220E+02 -0.19438201080E+03  0.24354545751E+03  0.41800000000E+01 0.  1.
        -11    1    1    2    0    0 -0.16563849522E+02 -0.64536972681E+02 -0.11778956072E+03  0.13532835094E+03  0.00000000000E+00 0. -1.
         11    1    1    2    0    0 -0.86624763555E+02 -0.32669277936E+01 -0.12704200807E+03  0.15379920121E+03  0.00000000000E+00 0.  1.
</event>
<event>
 7    1  0.2899775E-009  0.9609444E+02  0.7561462E-02  0.1288730E+00
         -3   -1    0    0    0  501 -0.00000000000E+00  0.00000000000E+00  0.16824652851E+03  0.16824652851E+03  0.00000000000E+00 0.  1.
          3   -1    0    0  501    0  0.00000000000E+00 -0.00000000000E+00 -0.12673053022E+03  0.12673053022E+03  0.00000000000E+00 0. -1.
         25    2    1    2    0    0  0.42943468997E+02  0.53082374305E+02  0.93093036615E+02  0.17022943156E+03  0.12509942410E+03 0.  0.
          5    1    3    3  502    0 -0.33739756641E+01 -0.41167862828E+01 -0.27811336754E+02  0.28622971424E+02  0.41800000000E+01 0.  1.
         -5    1    3    3    0  502  0.46317444661E+02  0.57199160588E+02  0.12090437337E+03  0.14160646013E+03  0.41800000000E+01 0.  1.
        -11    1    1    2    0    0 -0.50038518156E+02 -0.74159692150E+02 -0.49917309363E+02  0.10244633236E+03  0.00000000000E+00 0. -1.
         11    1    1    2    0    0  0.70950491590E+01  0.21077317845E+02 -0.16597289571E+01  0.22301294813E+02  0.00000000000E+00 0.  1.
</event>
<event>
 7    1  0.2899775E-009  0.1059312E+03  0.7561462E-02  0.1268296E+00
          1   -1    0    0  501    0  0.00000000000E+00  0.00000000000E+00  0.20482454595E+03  0.20482454595E+03  0.00000000000E+00 0. -1.
         -1   -1    0    0    0  501 -0.00000000000E+00 -0.00000000000E+00 -0.83268049384E+02  0.83268049384E+02  0.00000000000E+00 0.  1.
         25    2    1    2    0    0 -0.22525762142E+02  0.18890148373E+02 -0.73601745981E+01  0.12870650507E+03  0.12508774765E+03 0.  0.
          5    1    3    3  502    0 -0.72890705041E+02  0.25799154382E+02 -0.62463597841E+01  0.77686167744E+02  0.41800000000E+01 0.  1.
         -5    1    3    3    0  502  0.50364942899E+02 -0.69090060092E+01 -0.11138148140E+01  0.51020337324E+02  0.41800000000E+01 0.  1.
        -11    1    1    2    0    0  0.32632139905E+02 -0.44905547186E+02  0.11607217538E+03  0.12866279424E+03  0.00000000000E+00 0. -1.
         11    1    1    2    0    0 -0.10106377763E+02  0.26015398813E+02  0.12844495779E+02  0.30723296026E+02  0.00000000000E+00 0.  1.
</event>
<event>
 7    1  0.2899775E-009  0.1249451E+03  0.7561462E-02  0.1235155E+00
          2   -1    0    0  501    0  0.00000000000E+00  0.00000000000E+00  0.19696043170E+03  0.19696043170E+03  0.00000000000E+00 0. -1.
         -2   -1    0    0    0  501 -0.00000000000E+00 -0.00000000000E+00 -0.10223405563E+03  0.10223405563E+03  0.00000000000E+00 0.  1.
         25    2    1    2    0    0  0.68758262755E+02  0.59813846442E+01  0.11070442444E+03  0.18074041660E+03  0.12509257749E+03 0.  0.
          5    1    3    3  502    0  0.51527803842E+02 -0.52791310608E+02  0.30982156853E+02  0.80121180020E+02  0.41800000000E+01 0. -1.
         -5    1    3    3    0  502  0.17230458913E+02  0.58772695252E+02  0.79722267583E+02  0.10061923658E+03  0.41800000000E+01 0. -1.
        -11    1    1    2    0    0  0.48438109175E+01  0.31601573274E+02 -0.16135450150E+02  0.35811655772E+02  0.00000000000E+00 0.  1.
         11    1    1    2    0    0 -0.73602073672E+02 -0.37582957918E+02  0.15740178410E+00  0.82642414958E+02  0.00000000000E+00 0. -1.
</event>
<event>
 7    1  0.2899775E-009  0.4651184E+02  0.7561462E-02  0.1465118E+00
         -1   -1    0    0    0  501 -0.00000000000E+00  0.00000000000E+00  0.27914408655E+03  0.27914408655E+03  0.00000000000E+00 0.  1.
          1   -1    0    0  501    0  0.00000000000E+00 -0.00000000000E+00 -0.48502677216E+02  0.48502677216E+02  0.00000000000E+00 0. -1.
         25    2    1    2    0    0 -0.57041988535E+01  0.38006470849E+02  0.13868466310E+03  0.19067840131E+03  0.12509111574E+03 0.  0.
          5    1    3    3  502    0 -0.60479317413E+01  0.13361994386E+02  0.15821911941E+03  0.15895245364E+03  0.41800000000E+01 0. -1.
         -5    1    3    3    0  502  0.34373288784E+00  0.24644476463E+02 -0.19534456305E+02  0.31725947670E+02  0.41800000000E+01 0. -1.
        -11    1    1    2    0    0 -0.11628512957E+02 -0.32608760269E+02  0.10758260152E+03  0.11301579408E+03  0.00000000000E+00 0.  1.
         11    1    1    2    0    0  0.17332711810E+02 -0.53977105796E+01 -0.15625855295E+02  0.23952568378E+02  0.00000000000E+00 0. -1.
</event>
<event>
 7    1  0.2899775E-009  0.9900302E+02  0.7561462E-02  0.1282407E+00
         -2   -1    0    0    0  501 -0.00000000000E+00  0.00000000000E+00  0.49804174970E+02  0.49804174970E+02  0.00000000000E+00 0.  1.
          2   -1    0    0  501    0  0.00000000000E+00 -0.00000000000E+00 -0.25187063910E+03  0.25187063910E+03  0.00000000000E+00 0. -1.
         25    2    1    2    0    0 -0.33315816475E+02  0.35535237560E+01 -0.94855313790E+02  0.16052315092E+03  0.12509028847E+03 0.  0.
          5    1    3    3  502    0  0.46382243239E+02 -0.61326783375E+01 -0.49408786565E+02  0.68173475937E+02  0.41800000000E+01 0. -1.
         -5    1    3    3    0  502 -0.79698059714E+02  0.96862020935E+01 -0.45446527225E+02  0.92349674986E+02  0.41800000000E+01 0. -1.
        -11    1    1    2    0    0  0.18688962705E+01 -0.29690823864E+02 -0.38521595293E+01  0.29997948731E+02  0.00000000000E+00 0.  1.
         11    1    1    2    0    0  0.31446920205E+02  0.26137300108E+02 -0.10335899081E+03  0.11115371442E+03  0.00000000000E+00 0. -1.
</event>
<event>
 7    1  0.2899775E-009  0.1246064E+03  0.7561462E-02  0.1235686E+00
          2   -1    0    0  501    0  0.00000000000E+00  0.00000000000E+00  0.92202792847E+03  0.92202792847E+03  0.00000000000E+00 0. -1.
         -2   -1    0    0    0  501 -0.00000000000E+00 -0.00000000000E+00 -0.25095447757E+02  0.25095447757E+02  0.00000000000E+00 0.  1.
         25    2    1    2    0    0  0.15418800765E+01 -0.79329571173E+02  0.58706456361E+03  0.60546508279E+03  0.12509039278E+03 0.  0.
          5    1    3    3  502    0  0.57930843065E+02 -0.61896752378E+02  0.41258174731E+03  0.42122246040E+03  0.41800000000E+01 0.  1.
         -5    1    3    3    0  502 -0.56388962989E+02 -0.17432818795E+02  0.17448281630E+03  0.18424262238E+03  0.41800000000E+01 0.  1.
        -11    1    1    2    0    0  0.70612394293E+01  0.90660807261E+02  0.31395216280E+03  0.32685654896E+03  0.00000000000E+00 0. -1.
         11    1    1    2    0    0 -0.86031195058E+01 -0.11331236088E+02 -0.40842457011E+01  0.14801744474E+02  0.00000000000E+00 0.  1.
</event>
<event>
 7    1  0.2899775E-009  0.1207615E+03  0.7561462E-02  0.1241846E+00
          2   -1    0    0  501    0  0.00000000000E+00  0.00000000000E+00  0.72696965127E+02  0.72696965127E+02  0.00000000000E+00 0. -1.
         -2   -1    0    0    0  501 -0.00000000000E+00 -0.00000000000E+00 -0.34396592098E+03  0.34396592098E+03  0.00000000000E+00 0.  1.
         25    2    1    2    0    0  0.19654966509E+02  0.83608009190E+02 -0.24748558716E+03  0.29029711701E+03  0.12508670348E+03 0.  0.
          5    1    3    3  502    0 -0.37919261237E+02 -0.11822071339E+02 -0.57905629335E+02  0.70343201890E+02  0.41800000000E+01 0. -1.
         -5    1    3    3    0  502  0.57574227746E+02  0.95430080530E+02 -0.18957995782E+03  0.21995391512E+03  0.41800000000E+01 0. -1.
        -11    1    1    2    0    0  0.48413827933E+01 -0.37780972473E+02  0.32277111441E+02  0.49926473853E+02  0.00000000000E+00 0. -1.
         11    1    1    2    0    0 -0.24496349303E+02 -0.45827036717E+02 -0.56060480134E+02  0.76439295237E+02  0.00000000000E+00 0.  1.
</event>
<event>
 7    1  0.2899775E-009  0.1001830E+03  0.7561462E-02  0.1279912E+00
         -2   -1    0    0    0  501 -0.00000000000E+00  0.00000000000E+00  0.16237319257E+03  0.16237319257E+03  0.00000000000E+00 0.  1.
          2   -1    0    0  501    0  0.00000000000E+00 -0.00000000000E+00 -0.81342873932E+02  0.81342873932E+02  0.00000000000E+00 0. -1.
         25    2    1    2    0    0 -0.23727332490E+02 -0.18811957162E+02  0.17077471975E+02  0.12983301073E+03  0.12509234424E+03 0.  0.
          5    1    3    3  502    0  0.46600191889E+02 -0.49581104336E+01 -0.17425318714E+02  0.50172451360E+02  0.41800000000E+01 0. -1.
         -5    1    3    3    0  502 -0.70327524379E+02 -0.13853846729E+02  0.34502790690E+02  0.79660559374E+02  0.41800000000E+01 0. -1.
        -11    1    1    2    0    0  0.51520781174E+02  0.12434099422E+02  0.66747696618E+02  0.85230585619E+02  0.00000000000E+00 0.  1.
         11    1    1    2    0    0 -0.27793448684E+02  0.63778577397E+01 -0.27948499599E+01  0.28652470144E+02  0.00000000000E+00 0. -1.
</event>
<event>
 7    1  0.2899775E-009  0.1269800E+03  0.7561462E-02  0.1232007E+00
          2   -1    0    0  501    0  0.00000000000E+00  0.00000000000E+00  0.46935089487E+03  0.46935089487E+03  0.00000000000E+00 0. -1.
         -2   -1    0    0    0  501 -0.00000000000E+00 -0.00000000000E+00 -0.43239562396E+02  0.43239562396E+02  0.00000000000E+00 0.  1.
         25    2    1    2    0    0  0.83301867887E+02  0.40723101972E+02  0.23302897208E+03  0.28026292668E+03  0.12508890443E+03 0.  0.
          5    1    3    3  502    0 -0.13613251510E+02 -0.30839272379E+02  0.66620578382E+02  0.74780714102E+02  0.41800000000E+01 0.  1.
         -5    1    3    3    0  502  0.96915119397E+02  0.71562374351E+02  0.16640839370E+03  0.20548221258E+03  0.41800000000E+01 0.  1.
        -11    1    1    2    0    0 -0.67130500405E+02 -0.47160761052E+02  0.19793034803E+03  0.21425933851E+03  0.00000000000E+00 0. -1.
         11    1    1    2    0    0 -0.16171367482E+02  0.64376590807E+01 -0.48479876432E+01  0.18068192075E+02  0.00000000000E+00 0.  1.
</event>
<event>
 7    1  0.2899775E-009  0.1962064E+03  0.7561462E-02  0.1152980E+00
         -2   -1    0    0    0  501 -0.00000000000E+00  0.00000000000E+00  0.15931553213E+03  0.15931553213E+03  0.00000000000E+00 0. -1.
          2   -1    0    0  501    0  0.00000000000E+00 -0.00000000000E+00 -0.26073093750E+03  0.26073093750E+03  0.00000000000E+00 0.  1.
         25    2    1    2    0    0  0.70032962247E+02 -0.15670192980E+03 -0.88154557944E+02  0.22995374269E+03  0.12508951630E+03 0.  0.
          5    1    3    3  502    0  0.10187671646E+03 -0.14637776756E+03 -0.69894381951E+02  0.19159335380E+03  0.41800000000E+01 0. -1.
         -5    1    3    3    0  502 -0.31843754217E+02 -0.10324162245E+02 -0.18260175993E+02  0.38360388893E+02  0.41800000000E+01 0. -1.
        -11    1    1    2    0    0 -0.60491919700E+02  0.67750522821E+02 -0.36139307334E+02  0.97752008808E+02  0.00000000000E+00 0.  1.
         11    1    1    2    0    0 -0.95410425473E+01  0.88951406981E+02  0.22878459909E+02  0.92340718129E+02  0.00000000000E+00 0. -1.
</event>
<event>
 7    1  0.2899775E-009  0.1359303E+03  0.7561462E-02  0.1218912E+00
         -3   -1    0    0    0  501 -0.00000000000E+00  0.00000000000E+00  0.63078687891E+02  0.63078687891E+02  0.00000000000E+00 0.  1.
          3   -1    0    0  501    0  0.00000000000E+00 -0.00000000000E+00 -0.32915015812E+03  0.32915015812E+03  0.00000000000E+00 0. -1.
         25    2    1    2    0    0  0.60508904934E+02  0.76574958059E+02 -0.14730940876E+03  0.21649820884E+03  0.12508541380E+03 0.  0.
          5    1    3    3  502    0  0.80630871416E+02  0.99103026475E+02 -0.12427634962E+03  0.17828300748E+03  0.41800000000E+01 0. -1.
         -5    1    3    3    0  502 -0.20121966481E+02 -0.22528068416E+02 -0.23033059140E+02  0.38215201360E+02  0.41800000000E+01 0. -1.
        -11    1    1    2    0    0  0.81031815939E+01 -0.28833054671E+02  0.66537211534E+00  0.29957458398E+02  0.00000000000E+00 0.  1.
         11    1    1    2    0    0 -0.68612086528E+02 -0.47741903388E+02 -0.11942743359E+03  0.14577317877E+03  0.00000000000E+00 0. -1.
</event>
<event>
 7    1  0.2899775E-009  0.8982954E+02  0.7561462E-02  0.1303265E+00
          1   -1    0    0  501    0  0.00000000000E+00  0.00000000000E+00  0.28628240465E+02  0.28628240465E+02  0.00000000000E+00 0.  1.
         -1   -1    0    0    0  501 -0.00000000000E+00 -0.00000000000E+00 -0.41708508439E+03  0.41708508439E+03  0.00000000000E+00 0. -1.
         25    2    1    2    0    0 -0.24989314537E+02 -0.88787494060E+01 -0.22845388338E+03  0.26180500993E+03  0.12508952140E+03 0.  0.
          5    1    3    3  502    0  0.34095888409E+02  0.24898198059E+02 -0.29991962580E+02  0.51956136234E+02  0.41800000000E+01 0. -1.
         -5    1    3    3    0  502 -0.59085202946E+02 -0.33776947464E+02 -0.19846192080E+03  0.20984887370E+03  0.41800000000E+01 0. -1.
        -11    1    1    2    0    0  0.40087713497E+02  0.24773034903E+02 -0.15418689468E+03  0.16122756130E+03  0.00000000000E+00 0. -1.
         11    1    1    2    0    0 -0.15098398960E+02 -0.15894285497E+02 -0.58160658699E+01  0.22680753621E+02  0.00000000000E+00 0.  1.
</event>
<event>
 7    1  0.2899775E-009  0.1050934E+03  0.7561462E-02  0.1269936E+00
         -1   -1    0    0    0  501 -0.00000000000E+00  0.00000000000E+00  0.28252442160E+03  0.28252442160E+03  0.00000000000E+00 0.  1.
          1   -1    0    0  501    0  0.00000000000E+00 -0.00000000000E+00 -0.60158052885E+02  0.60158052885E+02  0.00000000000E+00 0. -1.
         25    2    1    2    0    0 -0.31639712792E+02 -0.41255193661E+02  0.19296382885E+03  0.23576567766E+03  0.12508938040E+03 0.  0.
          5    1    3    3  502    0 -0.22070479293E+02 -0.86257863895E+02  0.12212323058E+03  0.15119219883E+03  0.41800000000E+01 0.  1.
         -5    1    3    3    0  502 -0.95692334989E+01  0.45002670235E+02  0.70840598271E+02  0.84573478830E+02  0.41800000000E+01 0.  1.
        -11    1    1    2    0    0 -0.90941862711E+01  0.31748440180E+02 -0.22720016051E+02  0.40085743191E+02  0.00000000000E+00 0. -1.
         11    1    1    2    0    0  0.40733899063E+02  0.95067534801E+01  0.52122555917E+02  0.66831053635E+02  0.00000000000E+00 0.  1.
</event>
<event>
 6    1  0.2899775E-009  0.1287215E+03  0.7561462E-02  0.1229365E+00
          2   -1    0    0  501    0  0.00000000000E+00  0.00000000000E+00  0.30308309700E+03  0.30308309700E+03  0.00000000000E+00 0. -1.
         -2   -1    0    0    0  501 -0.00000000000E+00 -0.00000000000E+00 -0.67602870417E+02  0.67602870417E+02  0.00000000000E+00 0.  1.
          5    1    1    2  502    0  0.43558192793E+02  0.45992225567E+01  0.11765054474E+03  0.12560888537E+03  0.41800000000E+01 0. -1.
         -5    1    1    2    0  502 -0.18404079154E+02 -0.86711605495E+02  0.55543783788E+02  0.10469095937E+03  0.41800000000E+01 0. -1.
        -11    1    1    2    0    0 -0.15809754608E+02  0.10174128113E+03  0.43964800629E+02  0.11195597492E+03  0.00000000000E+00 0.  1.
         11    1    1    2    0    0 -0.93443590303E+01 -0.19628898192E+02  0.18321097432E+02  0.28430147749E+02  0.00000000000E+00 0. -1.
</event>
<event>
 7    1  0.2899775E-009  0.1638790E+03  0.7561462E-02  0.1184386E+00
          1   -1    0    0  501    0  0.00000000000E+00  0.00000000000E+00  0.36473998065E+02  0.36473998065E+02  0.00000000000E+00 0. -1.
         -1   -1    0    0    0  501 -0.00000000000E+00 -0.00000000000E+00 -0.11574510409E+04  0.11574510409E+04  0.00000000000E+00 0.  1.
         25    2    1    2    0    0 -0.10690514762E+03 -0.79219623142E+02 -0.91189488252E+03  0.93000215370E+03  0.12508904763E+03 0.  0.
          5    1    3    3  502    0 -0.12633253733E+03 -0.93968544270E+02 -0.76630495349E+03  0.78232394278E+03  0.41800000000E+01 0.  1.
         -5    1    3    3    0  502  0.19427389709E+02  0.14748921129E+02 -0.14558992903E+03  0.14767821092E+03  0.41800000000E+01 0.  1.
        -11    1    1    2    0    0  0.78246246076E+02  0.21630697908E+02 -0.17068836996E+03  0.18901026891E+03  0.00000000000E+00 0.  1.
         11    1    1    2    0    0  0.28658901542E+02  0.57588925234E+02 -0.38393790308E+02  0.74912616303E+02  0.00000000000E+00 0. -1.
</event>
<event>
 7    1  0.2899775E-009  0.3470876E+03  0.7561462E-02  0.1063817E+00
         -2   -1    0    0    0  501 -0.00000000000E+00  0.00000000000E+00  0.24555355622E+03  0.24555355622E+03  0.00000000000E+00 0.  1.
          2   -1    0    0  501    0  0.00000000000E+00 -0.00000000000E+00 -0.50331490509E+03  0.50331490509E+03  0.00000000000E+00 0. -1.
         25    2    1    2    0    0  0.31846263659E+03  0.95845855949E+02 -0.16756019022E+03  0.39284997756E+03  0.12509919470E+03 0.  0.
          5    1    3    3  502    0  0.10432660232E+03  0.94875895095E+02 -0.62827662470E+02  0.15443530359E+03  0.41800000000E+01 0.  1.
         -5    1    3    3    0  502  0.21413603427E+03  0.96996085317E+00 -0.10473252775E+03  0.23841467398E+03  0.41800000000E+01 0.  1.
        -11    1    1    2    0    0 -0.17699779017E+03 -0.86876630234E+02 -0.21014855768E+02  0.19828613358E+03  0.00000000000E+00 0.  1.
         11    1    1    2    0    0 -0.14146484642E+03 -0.89692257140E+01 -0.69186302885E+02  0.15773235017E+03  0.00000000000E+00 0. -1.
</event>
<event>
 7    1  0.2899775E-009  0.1093128E+03  0.7561462E-02  0.1261848E+00
         -1   -1    0    0    0  501 -0.00000000000E+00  0.00000000000E+00  0.21344057725E+02  0.21344057725E+02  0.00000000000E+00 0.  1.
          1   -1    0    0  501    0  0.00000000000E+00 -0.00000000000E+00 -0.82673037993E+03  0.82673037993E+03  0.00000000000E+00 0. -1.
         25    2    1    2    0    0  0.45690213389E+02 -0.38103239556E+02 -0.59907781267E+03  0.61488334252E+03  0.12509135384E+03 0.  0.
          5    1    3    3  502    0  0.62165440291E+02 -0.65269913615E+02 -0.54169253856E+03  0.54915661001E+03  0.41800000000E+01 0.  1.
         -5    1    3    3    0  502 -0.16475226902E+02  0.27166674059E+02 -0.57385274113E+02  0.65726732506E+02  0.41800000000E+01 0.  1.
        -11    1    1    2    0    0 -0.59799887180E+02  0.45808643560E+01 -0.70318300817E+02  0.92421178605E+02  0.00000000000E+00 0.  1.
         11    1    1    2    0    0  0.14109673791E+02  0.33522375200E+02 -0.13599020871E+03  0.14076991653E+03  0.00000000000E+00 0. -1.
</event>
<event>
 7    1  0.2899775E-009  0.9453119E+02  0.7561462E-02  0.1292235E+00
          2   -1    0    0  501    0  0.00000000000E+00  0.00000000000E+00  0.71048117023E+02  0.71048117023E+02  0.00000000000E+00 0. -1.
         -2   -1    0    0    0  501 -0.00000000000E+00 -0.00000000000E+00 -0.16346008925E+03  0.16346008925E+03  0.00000000000E+00 0.  1.
         25    2    1    2    0    0 -0.12403856567E+02  0.30744623613E+01 -0.68297135612E+02  0.14309226931E+03  0.12509033067E+03 0.  0.
          5    1    3    3  502    0  0.25112156023E+02 -0.52594217534E+02 -0.33758830327E+02  0.67482613488E+02  0.41800000000E+01 0. -1.
         -5    1    3    3    0  502 -0.37516012590E+02  0.55668679895E+02 -0.34538305285E+02  0.75609655824E+02  0.41800000000E+01 0. -1.
        -11    1    1    2    0    0  0.75024993849E+01  0.29495140138E+02 -0.43581917270E+02  0.53156695737E+02  0.00000000000E+00 0.  1.
         11    1    1    2    0    0  0.49013571816E+01 -0.32569602500E+02  0.19467080660E+02  0.38259241218E+02  0.00000000000E+00 0. -1.
</event>
<event>
 7    1  0.2899775E-009  0.1697655E+03  0.7561462E-02  0.1178093E+00
         -1   -1    0    0    0  501 -0.00000000000E+00  0.00000000000E+00  0.61412193107E+02  0.61412193107E+02  0.00000000000E+00 0.  1.
          1   -1    0    0  501    0  0.00000000000E+00 -0.00000000000E+00 -0.63166537467E+03  0.63166537467E+03  0.00000000000E+00 0. -1.
         25    2    1    2    0    0  0.33965430927E+02  0.15107593850E+03 -0.39352113765E+03  0.44100291436E+03  0.12508834880E+03 0.  0.
          5    1    3    3  502    0  0.32216854104E+02 -0.96693919950E+00 -0.15303800293E+03  0.15645115340E+03  0.41800000000E+01 0. -1.
         -5    1    3    3    0  502  0.17485768232E+01  0.15204287770E+03 -0.24048313472E+03  0.28455176096E+03  0.41800000000E+01 0. -1.
        -11    1    1    2    0    0 -0.27667006304E+02 -0.13052029698E+03 -0.85780834234E+02  0.15861703150E+03  0.00000000000E+00 0.  1.
         11    1    1    2    0    0 -0.62984246227E+01 -0.20555641526E+02 -0.90951209685E+02  0.93457621917E+02  0.00000000000E+00 0. -1.
</event>
<event>
 7    1  0.2899775E-009  0.9819969E+02  0.7561462E-02  0.1284128E+00
         -4   -1    0    0    0  501 -0.00000000000E+00  0.00000000000E+00  0.22316204081E+02  0.22316204081E+02  0.00000000000E+00 0.  1.
          4   -1    0    0  501    0  0.00000000000E+00 -0.00000000000E+00 -0.73778919274E+03  0.73778919274E+03  0.00000000000E+00 0. -1.
         25    2    1    2    0    0  0.54764359774E+02  0.37430331233E+02 -0.36987927893E+03  0.39605309237E+03  0.12508879324E+03 0.  0.
          5    1    3    3  502    0  0.46538537518E+02 -0.98735677452E+00 -0.33845263423E+02  0.57704285836E+02  0.41800000000E+01 0. -1.
         -5    1    3    3    0  502  0.82258222560E+01  0.38417688007E+02 -0.33603401551E+03  0.33834880653E+03  0.41800000000E+01 0. -1.
        -11    1    1    2    0    0 -0.64178762910E+02  0.71624112617E+01 -0.24913809081E+03  0.25737133103E+03  0.00000000000E+00 0.  1.
         11    1    1    2    0    0  0.94144031361E+01 -0.44592742494E+02 -0.96455618920E+02  0.10668097342E+03  0.00000000000E+00 0. -1.
</event>
<event>
 7    1  0.2899775E-009  0.1031339E+03  0.7561462E-02  0.1273840E+00
          1   -1    0    0  501    0  0.00000000000E+00  0.00000000000E+00  0.36993050915E+02  0.36993050915E+02  0.00000000000E+00 0. -1.
         -1   -1    0    0    0  501 -0.00000000000E+00 -0.00000000000E+00 -0.34833439355E+03  0.34833439355E+03  0.00000000000E+00 0.  1.
         25    2    1    2    0    0 -0.16114469098E+01 -0.26913423059E+02 -0.13966735012E+03  0.18942497529E+03  0.12509166028E+03 0.  0.
          5    1    3    3  502    0  0.17701112052E+02  0.40154118461E+02 -0.15134153184E+02  0.46606840590E+02  0.41800000000E+01 0. -1.
         -5    1    3    3    0  502 -0.19312558962E+02 -0.67067541520E+02 -0.12453319694E+03  0.14281813470E+03  0.41800000000E+01 0. -1.
        -11    1    1    2    0    0  0.58652698897E+01 -0.32337651161E+02 -0.81964015224E+02  0.88307558369E+02  0.00000000000E+00 0.  1.
         11    1    1    2    0    0 -0.42538229798E+01  0.59251074221E+02 -0.89709977290E+02  0.10759491081E+03  0.00000000000E+00 0. -1.
</event>
<event>
 7    1  0.2899775E-009  0.2313926E+03  0.7561462E-02  0.1125663E+00
         -2   -1    0    0    0  501 -0.00000000000E+00  0.00000000000E+00  0.28062313124E+03  0.28062313124E+03  0.00000000000E+00 0.  1.
          2   -1    0    0  501    0  0.00000000000E+00 -0.00000000000E+00 -0.22291302144E+03  0.22291302144E+03  0.00000000000E+00 0. -1.
         25    2    1    2    0    0  0.77910355405E+00 -0.22264481215E+03  0.62766482395E+02  0.26297954362E+03  0.12508912690E+03 0.  0.
          5    1    3    3  502    0  0.43952731856E+02 -0.12320644173E+03 -0.11690848592E+02  0.13139946066E+03  0.41800000000E+01 0.  1.
         -5    1    3    3    0  502 -0.43173628302E+02 -0.99438370416E+02  0.74457330987E+02  0.13158008295E+03  0.41800000000E+01 0.  1.
        -11    1    1    2    0    0  0.66092943784E+01  0.18127806395E+03  0.32394548179E+02  0.18426835321E+03  0.00000000000E+00 0.  1.
         11    1    1    2    0    0 -0.73883979325E+01  0.41366748199E+02 -0.37450920773E+02  0.56288255856E+02  0.00000000000E+00 0. -1.
</event>
<event>
 7    1  0.4399223E-009  0.1252293E+03  0.7561462E-02  0.1234711E+00
         -1   -1    0    0    0  501 -0.00000000000E+00  0.00000000000E+00  0.17509375333E+03  0.17509375333E+03  0.00000000000E+00 0.  1.
          1   -1    0    0  501    0  0.00000000000E+00 -0.00000000000E+00 -0.11473916059E+03  0.11473916059E+03  0.00000000000E+00 0. -1.
         25    2    1    2    0    0 -0.19568816793E+02 -0.86038457058E+02  0.55953605477E+02  0.16298247293E+03  0.12508767259E+03 0.  0.
          5    1    3    3  502    0  0.33101923466E+02  0.16445658902E+02  0.76791361687E+01  0.37982082173E+02  0.41800000000E+01 0. -1.
         -5    1    3    3    0  502 -0.52670740259E+02 -0.10248411596E+03  0.48274469309E+02  0.12500039076E+03  0.41800000000E+01 0. -1.
        -11    1    1    2    0    0 -0.55977351954E+01  0.64761352838E+02  0.41583167747E+02  0.77165583653E+02  0.00000000000E+00 0.  1.
         11    1    1    2    0    0  0.25166551988E+02  0.21277104220E+02 -0.37182180480E+02  0.49684857333E+02  0.00000000000E+00 0. -1.
</event>
<event>
 7    1  0.3969153E-009  0.2530514E+03  0.7561462E-02  0.1111391E+00
         -1   -1    0    0    0  501 -0.00000000000E+00  0.00000000000E+00  0.53158809297E+02  0.53158809297E+02  0.00000000000E+00 0.  1.
          1   -1    0    0  501    0  0.00000000000E+00 -0.00000000000E+00 -0.13178506861E+04  0.13178506861E+04  0.00000000000E+00 0. -1.
         25    2    1    2    0    0  0.20022289538E+03  0.13101812295E+03 -0.73517286238E+03  0.78318648257E+03  0.12508785921E+03 0.  0.
          5    1    3    3  502    0  0.20731349496E+03  0.91846084320E+02 -0.57549667348E+03  0.61856970665E+03  0.41800000000E+01 0.  1.
         -5    1    3    3    0  502 -0.70905995762E+01  0.39172038632E+02 -0.15967618890E+03  0.16461677592E+03  0.41800000000E+01 0.  1.
        -11    1    1    2    0    0 -0.94771077386E+02 -0.60786155872E+02 -0.35314354812E+03  0.37065736123E+03  0.00000000000E+00 0. -1.
         11    1    1    2    0    0 -0.10545181799E+03 -0.70231967080E+02 -0.17637546627E+03  0.21716565157E+03  0.00000000000E+00 0.  1.
</event>
<event>
 7    1  0.2899775E-009  0.1052722E+03  0.7561462E-02  0.1269584E+00
         -1   -1    0    0    0  501 -0.00000000000E+00  0.00000000000E+00  0.13022094876E+03  0.13022094876E+03  0.00000000000E+00 0.  1.
          1   -1    0    0  501    0  0.00000000000E+00 -0.00000000000E+00 -0.14378516825E+03  0.14378516825E+03  0.00000000000E+00 0. -1.
         25    2    1    2    0    0  0.80295649875E+02  0.58005119480E+01  0.11654037082E+02  0.14922902740E+03  0.12510974666E+03 0.  0.
          5    1    3    3  502    0  0.98855230478E+02 -0.13141594274E+02 -0.25850908905E+02  0.10310577086E+03  0.41800000000E+01 0.  1.
         -5    1    3    3    0  502 -0.18559580602E+02  0.18942106222E+02  0.37504945987E+02  0.46123256539E+02  0.41800000000E+01 0.  1.
        -11    1    1    2    0    0 -0.20363307638E+02 -0.11995338957E+02  0.33267465599E+02  0.40807802220E+02  0.00000000000E+00 0.  1.
         11    1    1    2    0    0 -0.59932342237E+02  0.61948270092E+01 -0.58485722173E+02  0.83969287396E+02  0.00000000000E+00 0. -1.
</event>
<event>
 7    1  0.2899775E-009  0.2315362E+03  0.7561462E-02  0.1125563E+00
          2   -1    0    0  501    0  0.00000000000E+00  0.00000000000E+00  0.19108800566E+03  0.19108800566E+03  0.00000000000E+00 0. -1.
         -2   -1    0    0    0  501 -0.00000000000E+00 -0.00000000000E+00 -0.32560568655E+03  0.32560568655E+03  0.00000000000E+00 0.  1.
         25    2    1    2    0    0 -0.18929832415E+03 -0.11797111213E+03 -0.45271375882E+02  0.25970604809E+03  0.12508675038E+03 0.  0.
          5    1    3    3  502    0  0.33758763475E+01 -0.47202976458E+01 -0.35229980657E+02  0.35948597860E+02  0.41800000000E+01 0.  1.
         -5    1    3    3    0  502 -0.19267420049E+03 -0.11325081448E+03 -0.10041395225E+02  0.22375745023E+03  0.41800000000E+01 0.  1.
        -11    1    1    2    0    0  0.13120561816E+03  0.11458496045E+03 -0.95163704556E+02  0.19849624194E+03  0.00000000000E+00 0.  1.
         11    1    1    2    0    0  0.58092705986E+02  0.33861516793E+01  0.59173995417E+01  0.58491402182E+02  0.00000000000E+00 0. -1.
</event>
<event>
 7    1  0.2899775E-009  0.9859908E+02  0.7561462E-02  0.1283270E+00
         -2   -1    0    0    0  501 -0.00000000000E+00  0.00000000000E+00  0.31844424512E+02  0.31844424512E+02  0.00000000000E+00 0.  1.
          2   -1    0    0  501    0  0.00000000000E+00 -0.00000000000E+00 -0.53032527579E+03  0.53032527579E+03  0.00000000000E+00 0. -1.
         25    2    1    2    0    0  0.58548047393E+02 -0.15277910212E+02 -0.16824716046E+03  0.21821008656E+03  0.12508895427E+03 0.  0.
          5    1    3    3  502    0 -0.26084608127E+02 -0.12969868136E+02 -0.11361081310E+03  0.11736061313E+03  0.41800000000E+01 0.  1.
         -5    1    3    3    0  502  0.84632655520E+02 -0.23080420762E+01 -0.54636347354E+02  0.10084947343E+03  0.41800000000E+01 0.  1.
        -11    1    1    2    0    0 -0.17704877616E+02 -0.21630417844E+02 -0.41570891522E+02  0.50094677256E+02  0.00000000000E+00 0.  1.
         11    1    1    2    0    0 -0.40843169777E+02  0.36908328056E+02 -0.28866279930E+03  0.29386493648E+03  0.00000000000E+00 0. -1.
</event>
<event>
 7    1  0.2899775E-009  0.1289803E+03  0.7561462E-02  0.1228977E+00
         -2   -1    0    0    0  501 -0.00000000000E+00  0.00000000000E+00  0.50243474220E+02  0.50243474220E+02  0.00000000000E+00 0.  1.
          2   -1    0    0  501    0  0.00000000000E+00 -0.00000000000E+00 -0.47675377582E+03  0.47675377582E+03  0.00000000000E+00 0. -1.
         25    2    1    2    0    0  0.56644728272E+02  0.70923128031E+02 -0.12539129972E+03  0.19902445287E+03  0.12509612090E+03 0.  0.
          5    1    3    3  502    0  0.21441150417E+02 -0.23540154820E+02  0.67013075591E+01  0.32806123562E+02  0.41800000000E+01 0.  1.
         -5    1    3    3    0  502  0.35203577855E+02  0.94463282851E+02 -0.13209260728E+03  0.16621832931E+03  0.41800000000E+01 0.  1.
        -11    1    1    2    0    0 -0.76535662957E+02 -0.35597258702E+02 -0.24191789066E+03  0.25622087806E+03  0.00000000000E+00 0. -1.
         11    1    1    2    0    0  0.19890934686E+02 -0.35325869329E+02 -0.59201111219E+02  0.71751919111E+02  0.00000000000E+00 0.  1.
</event>
<event>
 7    1  0.2899775E-009  0.1317056E+03  0.7561462E-02  0.1224947E+00
          3   -1    0    0  501    0  0.00000000000E+00  0.00000000000E+00  0.72451948991E+03  0.72451948991E+03  0.00000000000E+00 0. -1.
         -3   -1    0    0    0  501 -0.00000000000E+00 -0.00000000000E+00 -0.27690458502E+02  0.27690458502E+02  0.00000000000E+00 0.  1.
         25    2    1    2    0    0  0.59346859569E+02  0.68852584231E+02  0.40218130973E+03  0.43088435159E+03  0.12509512560E+03 0.  0.
          5    1    3    3  502    0  0.56569619748E+02  0.96811243745E+02  0.22484266337E+03  0.25128516563E+03  0.41800000000E+01 0.  1.
         -5    1    3    3    0  502  0.27772398206E+01 -0.27958659515E+02  0.17733864636E+03  0.17959918596E+03  0.41800000000E+01 0.  1.
        -11    1    1    2    0    0 -0.70624946689E+02 -0.80157294087E+02  0.27987636978E+03  0.29957279124E+03  0.00000000000E+00 0. -1.
         11    1    1    2    0    0  0.11278087120E+02  0.11304709856E+02  0.14771351895E+02  0.21752805585E+02  0.00000000000E+00 0.  1.
</event>
<event>
 7    1  0.2899775E-009  0.1081265E+03  0.7561462E-02  0.1264079E+00
         -2   -1    0    0    0  501 -0.00000000000E+00  0.00000000000E+00  0.43742954187E+02  0.43742954187E+02  0.00000000000E+00 0.  1.
          2   -1    0    0  501    0  0.00000000000E+00 -0.00000000000E+00 -0.46642179858E+03  0.46642179858E+03  0.00000000000E+00 0. -1.
         25    2    1    2    0    0 -0.33199421790E+02 -0.11946348463E+02 -0.37712750138E+03  0.39889326969E+03  0.12508305825E+03 0.  0.
          5    1    3    3  502    0  0.30556357821E+02  0.37215804279E+02 -0.11801924128E+03  0.12753321451E+03  0.41800000000E+01 0. -1.
         -5    1    3    3    0  502 -0.63755779611E+02 -0.49162152741E+02 -0.25910826010E+03  0.27136005518E+03  0.41800000000E+01 0. -1.
        -11    1    1    2    0    0  0.10039924265E+02  0.45464802088E+02 -0.52247952880E+02  0.69983547268E+02  0.00000000000E+00 0. -1.
         11    1    1    2    0    0  0.23159497526E+02 -0.33518453626E+02  0.66966098685E+01  0.41287935803E+02  0.00000000000E+00 0.  1.
</event>
<event>
 7    1  0.2899775E-009  0.3921508E+03  0.7561462E-02  0.1046532E+00
          4   -1    0    0  501    0  0.00000000000E+00  0.00000000000E+00  0.29931423942E+03  0.29931423942E+03  0.00000000000E+00 0. -1.
         -4   -1    0    0    0  501 -0.00000000000E+00 -0.00000000000E+00 -0.70740469096E+03  0.70740469096E+03  0.00000000000E+00 0.  1.
         25    2    1    2    0    0  0.19241990669E+03 -0.32634031876E+03  0.53669597579E+02  0.40255027593E+03  0.12507147877E+03 0.  0.
          5    1    3    3  502    0  0.15226878308E+02 -0.13667237855E+03  0.57490713697E+00  0.13758270167E+03  0.41800000000E+01 0. -1.
         -5    1    3    3    0  502  0.17719302838E+03 -0.18966794021E+03  0.53094690442E+02  0.26496757425E+03  0.41800000000E+01 0. -1.
        -11    1    1    2    0    0 -0.19993225302E+03  0.30683758617E+03 -0.44998623577E+03  0.58018085324E+03  0.00000000000E+00 0.  1.
         11    1    1    2    0    0  0.75123463294E+01  0.19502732597E+02 -0.11773813354E+02  0.23987801213E+02  0.00000000000E+00 0. -1.
</event>
<event>
 7    1  0.2899775E-009  0.7027980E+02  0.7561462E-02  0.1359144E+00
          3   -1    0    0  501    0  0.00000000000E+00  0.00000000000E+00  0.11840748009E+03  0.11840748009E+03  0.00000000000E+00 0. -1.
         -3   -1    0    0    0  501 -0.00000000000E+00 -0.00000000000E+00 -0.12411337019E+03  0.12411337019E+03  0.00000000000E+00 0.  1.
         25    2    1    2    0    0  0.19682814343E+02  0.45331016770E+02 -0.55233512631E+02  0.14539510612E+03  0.12508669675E+03 0.  0.
          5    1    3    3  502    0  0.33707668502E+02  0.37739201713E+02  0.29736574553E+02  0.58840381779E+02  0.41800000000E+01 0. -1.
         -5    1    3    3    0  502 -0.14024854159E+02  0.75918150576E+01 -0.84970087184E+02  0.86554724343E+02  0.41800000000E+01 0. -1.
        -11    1    1    2    0    0 -0.29607528540E+02 -0.53032430332E+02  0.56331791336E+02  0.82839091788E+02  0.00000000000E+00 0. -1.
         11    1    1    2    0    0  0.99247141975E+01  0.77014135615E+01 -0.68041688082E+01  0.14286652369E+02  0.00000000000E+00 0.  1.
</event>
<event>
 7    1  0.2899775E-009  0.9816052E+02  0.7561462E-02  0.1284212E+00
         -1   -1    0    0    0  501 -0.00000000000E+00  0.00000000000E+00  0.36701363217E+02  0.36701363217E+02  0.00000000000E+00 0.  1.
          1   -1    0    0  501    0  0.00000000000E+00 -0.00000000000E+00 -0.37537401847E+03  0.37537401847E+03  0.00000000000E+00 0. -1.
         25    2    1    2    0    0  0.26877638023E+02  0.23598429924E+02 -0.14755841247E+03  0.19672514458E+03  0.12509198255E+03 0.  0.
          5    1    3    3  502    0  0.49888461475E+02 -0.22511795970E+02 -0.18879385456E+02  0.58047766032E+02  0.41800000000E+01 0.  1.
         -5    1    3    3    0  502 -0.23010823452E+02  0.46110225894E+02 -0.12867902701E+03  0.13867737855E+03  0.41800000000E+01 0.  1.
        -11    1    1    2    0    0  0.71868113634E+01 -0.47546681237E+02 -0.14709936473E+03  0.15475968550E+03  0.00000000000E+00 0. -1.
         11    1    1    2    0    0 -0.34064449387E+02  0.23948251313E+02 -0.44014878056E+02  0.60590551601E+02  0.00000000000E+00 0.  1.
</event>
<event>
 7    1  0.2899775E-009  0.1329597E+03  0.7561462E-02  0.1223129E+00
          1   -1    0    0  501    0  0.00000000000E+00  0.00000000000E+00  0.66678598395E+03  0.66678598395E+03  0.00000000000E+00 0. -1.
         -1   -1    0    0    0  501 -0.00000000000E+00 -0.00000000000E+00 -0.50240542034E+02  0.50240542034E+02  0.00000000000E+00 0.  1.
         25    2    1    2    0    0 -0.12051447304E+03  0.93107994656E-01  0.49029932671E+03  0.52016183937E+03  0.12510460613E+03 0.  0.
          5    1    3    3  502    0 -0.42512246790E+02 -0.88262908854E+01  0.29394648806E+02  0.52599546731E+02  0.41800000000E+01 0. -1.
         -5    1    3    3    0  502 -0.78002226255E+02  0.89193988801E+01  0.46090467791E+03  0.46756229264E+03  0.41800000000E+01 0. -1.
        -11    1    1    2    0    0  0.11238639663E+03 -0.26988428686E+02  0.12266592487E+03  0.16854081569E+03  0.00000000000E+00 0.  1.
         11    1    1    2    0    0  0.81280764156E+01  0.26895320691E+02  0.35801903319E+01  0.28323870924E+02  0.00000000000E+00 0. -1.
</event>
<event>
 7    1  0.2899775E-009  0.1003663E+03  0.7561462E-02  0.1279528E+00
         -1   -1    0    0    0  501 -0.00000000000E+00  0.00000000000E+00  0.32935584592E+03  0.32935584592E+03  0.00000000000E+00 0.  1.
          1   -1    0    0  501    0  0.00000000000E+00 -0.00000000000E+00 -0.42407958461E+02  0.42407958461E+02  0.00000000000E+00 0. -1.
         25    2    1    2    0    0 -0.24502704754E+02  0.32837618093E+02  0.19461012467E+03  0.23494658848E+03  0.12509239429E+03 0.  0.
          5    1    3    3  502    0  0.13137026037E+02 -0.43364227518E+02  0.54248873448E+02  0.70805722592E+02  0.41800000000E+01 0.  1.
         -5    1    3    3    0  502 -0.37639730791E+02  0.76201845611E+02  0.14036125122E+03  0.16414086588E+03  0.41800000000E+01 0.  1.
        -11    1    1    2    0    0 -0.16081017772E+02 -0.23527305414E+02  0.90782311489E+02  0.95150203951E+02  0.00000000000E+00 0.  1.
         11    1    1    2    0    0  0.40583722527E+02 -0.93103126787E+01  0.15554512971E+01  0.41667011952E+02  0.00000000000E+00 0. -1.
</event>
<event>
 7    1  0.2899775E-009  0.1463030E+03  0.7561462E-02  0.1205091E+00
          4   -1    0    0  501    0  0.00000000000E+00  0.00000000000E+00  0.19076196517E+03  0.19076196517E+03  0.00000000000E+00 0. -1.
         -4   -1    0    0    0  501 -0.00000000000E+00 -0.00000000000E+00 -0.14048118498E+03  0.14048118498E+03  0.00000000000E+00 0.  1.
         25    2    1    2    0    0 -0.11058730418E+03 -0.47262345027E+02  0.48350343223E+02  0.18013313823E+03  0.12508761207E+03 0.  0.
          5    1    3    3  502    0 -0.83185451718E+02  0.27163120363E+02  0.49657911022E+02  0.10070270608E+03  0.41800000000E+01 0. -1.
         -5    1    3    3    0  502 -0.27401852462E+02 -0.74425465390E+02 -0.13075677987E+01  0.79430432143E+02  0.41800000000E+01 0. -1.
        -11    1    1    2    0    0  0.24430205683E+02  0.28250491119E+02 -0.38867956421E+02  0.53904018723E+02  0.00000000000E+00 0.  1.
         11    1    1    2    0    0  0.86157098497E+02  0.19011853908E+02  0.40798393388E+02  0.97205993198E+02  0.00000000000E+00 0. -1.
</event>
<event>
 7    1  0.2899775E-009  0.1274791E+03  0.7561462E-02  0.1231245E+00
         -1   -1    0    0    0  501 -0.00000000000E+00  0.00000000000E+00  0.35671772292E+02  0.35671772292E+02  0.00000000000E+00 0.  1.
          1   -1    0    0  501    0  0.00000000000E+00 -0.00000000000E+00 -0.50056910925E+03  0.50056910925E+03  0.00000000000E+00 0. -1.
         25    2    1    2    0    0  0.17416189570E+02 -0.66946049411E+02 -0.29974266970E+03  0.33208303347E+03  0.12509346861E+03 0.  0.
          5    1    3    3  502    0 -0.82419407343E+01  0.35594726641E+02 -0.67033089240E+02  0.76457972801E+02  0.41800000000E+01 0. -1.
         -5    1    3    3    0  502  0.25658130305E+02 -0.10254077605E+03 -0.23270958046E+03  0.25562506067E+03  0.41800000000E+01 0. -1.
        -11    1    1    2    0    0  0.17822655910E+02 -0.14937420448E+02 -0.70036577768E+02  0.73796313043E+02  0.00000000000E+00 0. -1.
         11    1    1    2    0    0 -0.35238845480E+02  0.81883469859E+02 -0.95118089485E+02  0.13036153503E+03  0.00000000000E+00 0.  1.
</event>
<event>
 7    1  0.2899775E-009  0.1045919E+03  0.7561462E-02  0.1270926E+00
         -2   -1    0    0    0  501 -0.00000000000E+00  0.00000000000E+00  0.15485313639E+03  0.15485313639E+03  0.00000000000E+00 0.  1.
          2   -1    0    0  501    0  0.00000000000E+00 -0.00000000000E+00 -0.10605910608E+03  0.10605910608E+03  0.00000000000E+00 0. -1.
         25    2    1    2    0    0  0.16705161397E+00  0.70846484797E+02  0.28360576139E+02  0.14653086414E+03  0.12509084519E+03 0.  0.
          5    1    3    3  502    0 -0.21126689509E+02  0.85296549590E+02  0.59283596407E+02  0.10608419102E+03  0.41800000000E+01 0.  1.
         -5    1    3    3    0  502  0.21293741123E+02 -0.14450064793E+02 -0.30923020268E+02  0.40446673114E+02  0.41800000000E+01 0.  1.
        -11    1    1    2    0    0 -0.22722661035E+02 -0.68841688123E+02  0.41431978017E+02  0.83499138622E+02  0.00000000000E+00 0.  1.
         11    1    1    2    0    0  0.22555609421E+02 -0.20047966741E+01 -0.20998523842E+02  0.30882239711E+02  0.00000000000E+00 0. -1.
</event>
<event>
 7    1  0.2899775E-009  0.1386093E+03  0.7561462E-02  0.1215213E+00
          2   -1    0    0  501    0  0.00000000000E+00  0.00000000000E+00  0.88522338898E+02  0.88522338898E+02  0.00000000000E+00 0. -1.
         -2   -1    0    0    0  501 -0.00000000000E+00 -0.00000000000E+00 -0.35225400686E+03  0.35225400686E+03  0.00000000000E+00 0.  1.
         25    2    1    2    0    0  0.95662807494E+02 -0.24816736912E+02 -0.13144498125E+02  0.15996641664E+03  0.12509689625E+03 0.  0.
          5    1    3    3  502    0  0.49745636486E+02  0.45346504932E+02  0.18998840442E+02  0.70066840924E+02  0.41800000000E+01 0.  1.
         -5    1    3    3    0  502  0.45917171009E+02 -0.70163241844E+02 -0.32143338566E+02  0.89899575715E+02  0.41800000000E+01 0.  1.
        -11    1    1    2    0    0 -0.93365377345E+01 -0.24626502307E+02 -0.67205194157E+02  0.72181532779E+02  0.00000000000E+00 0.  1.
         11    1    1    2    0    0 -0.86326269760E+02  0.49443239218E+02 -0.18338197568E+03  0.20862839634E+03  0.00000000000E+00 0. -1.
</event>
<event>
 7    1  0.2899775E-009  0.9359443E+02  0.7561462E-02  0.1294374E+00
          2   -1    0    0  501    0  0.00000000000E+00  0.00000000000E+00  0.43328249310E+03  0.43328249310E+03  0.00000000000E+00 0. -1.
         -2   -1    0    0    0  501 -0.00000000000E+00 -0.00000000000E+00 -0.29122949125E+02  0.29122949125E+02  0.00000000000E+00 0.  1.
         25    2    1    2    0    0  0.61963989071E+01 -0.48779331582E+01  0.16550038812E+03  0.20760468094E+03  0.12508851062E+03 0.  0.
          5    1    3    3  502    0 -0.34938767683E+02  0.29868039101E+02  0.14088310396E+03  0.14825093129E+03  0.41800000000E+01 0.  1.
         -5    1    3    3    0  502  0.41135166590E+02 -0.34745972259E+02  0.24617284163E+02  0.59353749656E+02  0.41800000000E+01 0.  1.
        -11    1    1    2    0    0  0.79766656620E+01  0.44362865663E+02  0.95164996594E+02  0.10529989374E+03  0.00000000000E+00 0.  1.
         11    1    1    2    0    0 -0.14173064569E+02 -0.39484932505E+02  0.14349415926E+03  0.14950086755E+03  0.00000000000E+00 0. -1.
</event>
<event>
 7    1  0.2899775E-009  0.1872652E+03  0.7561462E-02  0.1160951E+00
         -1   -1    0    0    0  501 -0.00000000000E+00  0.00000000000E+00  0.43752458194E+02  0.43752458194E+02  0.00000000000E+00 0.  1.
          1   -1    0    0  501    0  0.00000000000E+00 -0.00000000000E+00 -0.90236243409E+03  0.90236243409E+03  0.00000000000E+00 0. -1.
         25    2    1    2    0    0 -0.53663234135E+02 -0.31968494826E+02 -0.19576815387E+03  0.24056943916E+03  0.12508700024E+03 0.  0.
          5    1    3    3  502    0 -0.65074695058E+01  0.44585279732E+02 -0.38717966717E+02  0.59554577279E+02  0.41800000000E+01 0. -1.
         -5    1    3    3    0  502 -0.47155764629E+02 -0.76553774558E+02 -0.15705018715E+03  0.18101486188E+03  0.41800000000E+01 0. -1.
        -11    1    1    2    0    0 -0.78618307844E+02  0.66036080111E+02 -0.33511786471E+03  0.35049334580E+03  0.00000000000E+00 0.  1.
         11    1    1    2    0    0  0.13228154198E+03 -0.34067585285E+02 -0.32772395732E+03  0.35505210732E+03  0.00000000000E+00 0. -1.
</event>
<event>
 7    1  0.2899775E-009  0.1508740E+03  0.7561462E-02  0.1199403E+00
          1   -1    0    0  501    0  0.00000000000E+00  0.00000000000E+00  0.12439718632E+03  0.12439718632E+03  0.00000000000E+00 0. -1.
         -1   -1    0    0    0  501 -0.00000000000E+00 -0.00000000000E+00 -0.29885160854E+03  0.29885160854E+03  0.00000000000E+00 0.  1.
         25    2    1    2    0    0  0.10253378607E+03 -0.10719574355E+03 -0.27259161990E+02  0.19594347455E+03  0.12508668429E+03 0.  0.
          5    1    3    3  502    0  0.30289101939E+02 -0.11669942963E+02  0.45271738151E+02  0.55862509255E+02  0.41800000000E+01 0. -1.
         -5    1    3    3    0  502  0.72244684133E+02 -0.95525800588E+02 -0.72530900141E+02  0.14008096530E+03  0.41800000000E+01 0. -1.
        -11    1    1    2    0    0 -0.64776123284E+02  0.56410095027E+02 -0.13913103245E+03  0.16350990539E+03  0.00000000000E+00 0.  1.
         11    1    1    2    0    0 -0.37757662788E+02  0.50785648524E+02 -0.80642277753E+01  0.63795414920E+02  0.00000000000E+00 0. -1.
</event>
<event>
 7    1  0.2899775E-009  0.9139465E+02  0.7561462E-02  0.1299509E+00
          1   -1    0    0  501    0  0.00000000000E+00  0.00000000000E+00  0.51389845731E+03  0.51389845731E+03  0.00000000000E+00 0. -1.
         -1   -1    0    0    0  501 -0.00000000000E+00 -0.00000000000E+00 -0.23584284057E+02  0.23584284057E+02  0.00000000000E+00 0.  1.
         25    2    1    2    0    0  0.11248663099E+01  0.16057055834E+02  0.31449566698E+03  0.33885113227E+03  0.12511383186E+03 0.  0.
          5    1    3    3  502    0 -0.30529381519E+02 -0.31262484143E+02  0.24507144500E+03  0.24897162811E+03  0.41800000000E+01 0.  1.
         -5    1    3    3    0  502  0.31654247829E+02  0.47319539977E+02  0.69424221980E+02  0.89879504153E+02  0.41800000000E+01 0.  1.
        -11    1    1    2    0    0  0.34409981349E+02 -0.27956089789E+02  0.47598979868E+02  0.65048079581E+02  0.00000000000E+00 0.  1.
         11    1    1    2    0    0 -0.35534847659E+02  0.11899033955E+02  0.12821952640E+03  0.13358352952E+03  0.00000000000E+00 0. -1.
</event>
<event>
 7    1  0.2899775E-009  0.8724964E+02  0.7561462E-02  0.1309652E+00
          2   -1    0    0  501    0  0.00000000000E+00  0.00000000000E+00  0.38644336917E+03  0.38644336917E+03  0.00000000000E+00 0. -1.
         -2   -1    0    0    0  501 -0.00000000000E+00 -0.00000000000E+00 -0.51181049999E+02  0.51181049999E+02  0.00000000000E+00 0.  1.
         25    2    1    2    0    0  0.62492853952E+01  0.57613481530E+02  0.77368695242E+02  0.15808967154E+03  0.12509221568E+03 0.  0.
          5    1    3    3  502    0  0.22078132902E+02  0.29173292110E+02  0.10744260367E+03  0.11357777251E+03  0.41800000000E+01 0.  1.
         -5    1    3    3    0  502 -0.15828847507E+02  0.28440189420E+02 -0.30073908426E+02  0.44511899034E+02  0.41800000000E+01 0.  1.
        -11    1    1    2    0    0  0.34080087381E+02 -0.54670717657E+02  0.12499284375E+03  0.14061845794E+03  0.00000000000E+00 0. -1.
         11    1    1    2    0    0 -0.40329372776E+02 -0.29427638728E+01  0.13290078018E+03  0.13891628968E+03  0.00000000000E+00 0.  1.
</event>
<event>
 7    1  0.2899775E-009  0.1138317E+03  0.7561462E-02  0.1253634E+00
          3   -1    0    0  501    0  0.00000000000E+00  0.00000000000E+00  0.46365395998E+03  0.46365395998E+03  0.00000000000E+00 0. -1.
         -3   -1    0    0    0  501 -0.00000000000E+00 -0.00000000000E+00 -0.36850361821E+02  0.36850361821E+02  0.00000000000E+00 0.  1.
         25    2    1    2    0    0 -0.48848571071E+02 -0.52392971049E+02  0.26932233241E+03  0.30547975484E+03  0.12510857515E+03 0.  0.
          5    1    3    3  502    0 -0.63554369962E+02  0.22569677414E+02  0.13159439839E+03  0.14792939656E+03  0.41800000000E+01 0.  1.
         -5    1    3    3    0  502  0.14705798891E+02 -0.74962648463E+02  0.13772793402E+03  0.15755035828E+03  0.41800000000E+01 0.  1.
        -11    1    1    2    0    0  0.19177874310E+02  0.50310279936E+02  0.15623783759E+03  0.16525488503E+03  0.00000000000E+00 0. -1.
         11    1    1    2    0    0  0.29670696761E+02  0.20826911126E+01  0.12434281593E+01  0.29769681929E+02  0.00000000000E+00 0.  1.
</event>
<event>
 7    1  0.2957917E-009  0.1417521E+03  0.7561462E-02  0.1210991E+00
         -1   -1    0    0    0  501 -0.00000000000E+00  0.00000000000E+00  0.62735428262E+03  0.62735428262E+03  0.00000000000E+00 0.  1.
          1   -1    0    0  501    0  0.00000000000E+00 -0.00000000000E+00 -0.40384114820E+02  0.40384114820E+02  0.00000000000E+00 0. -1.
         25    2    1    2    0    0 -0.11568677942E+03  0.61070614819E+01  0.30708256633E+03  0.35123572142E+03  0.12508438082E+03 0.  0.
          5    1    3    3  502    0 -0.62448142026E+02 -0.51065387470E+02  0.21902175466E+03  0.23344259606E+03  0.41800000000E+01 0. -1.
         -5    1    3    3    0  502 -0.53238637399E+02  0.57172448952E+02  0.88060811669E+02  0.11779312536E+03  0.41800000000E+01 0. -1.
        -11    1    1    2    0    0  0.60149562592E+02  0.19644956474E+02  0.22683652407E+03  0.23549671516E+03  0.00000000000E+00 0.  1.
         11    1    1    2    0    0  0.55537216833E+02 -0.25752017956E+02  0.53051077396E+02  0.81005960862E+02  0.00000000000E+00 0. -1.
</event>
<event>
 7    1  0.2899775E-009  0.8976849E+02  0.7561462E-02  0.1303413E+00
         -1   -1    0    0    0  501 -0.00000000000E+00  0.00000000000E+00  0.65048740563E+02  0.65048740563E+02  0.00000000000E+00 0.  1.
          1   -1    0    0  501    0  0.00000000000E+00 -0.00000000000E+00 -0.14740649681E+03  0.14740649681E+03  0.00000000000E+00 0. -1.
         25    2    1    2    0    0 -0.65612070544E+01  0.31923492039E+02 -0.34834039985E+02  0.13387671666E+03  0.12508959245E+03 0.  0.
          5    1    3    3  502    0 -0.63844213978E+02  0.31761469923E+02 -0.14070975772E+02  0.72803429791E+02  0.41800000000E+01 0. -1.
         -5    1    3    3    0  502  0.57283006924E+02  0.16202211664E+00 -0.20763064213E+02  0.61073286868E+02  0.41800000000E+01 0. -1.
        -11    1    1    2    0    0  0.20955988336E+02 -0.73802562362E+01 -0.44785898496E+02  0.49993982971E+02  0.00000000000E+00 0. -1.
         11    1    1    2    0    0 -0.14394781282E+02 -0.24543235803E+02 -0.27378177652E+01  0.28584537742E+02  0.00000000000E+00 0.  1.
</event>
<event>
 7    1  0.2899775E-009  0.2202400E+03  0.7561462E-02  0.1133704E+00
         -2   -1    0    0    0  501 -0.00000000000E+00  0.00000000000E+00  0.82265736773E+02  0.82265736773E+02  0.00000000000E+00 0.  1.
          2   -1    0    0  501    0  0.00000000000E+00 -0.00000000000E+00 -0.76549807166E+03  0.76549807166E+03  0.00000000000E+00 0. -1.
         25    2    1    2    0    0  0.15350895304E+03  0.11781968511E+03 -0.15415131122E+03  0.27723086402E+03  0.12509136003E+03 0.  0.
          5    1    3    3  502    0 -0.11788170387E+02  0.50173487086E+02 -0.37284374137E+02  0.63749013500E+02  0.41800000000E+01 0.  1.
         -5    1    3    3    0  502  0.16529712343E+03  0.67646198024E+02 -0.11686693708E+03  0.21348185053E+03  0.41800000000E+01 0.  1.
        -11    1    1    2    0    0 -0.14527076312E+03 -0.69388000347E+02 -0.44400955484E+03  0.47229521912E+03  0.00000000000E+00 0.  1.
         11    1    1    2    0    0 -0.82381899190E+01 -0.48431684762E+02 -0.85071468831E+02  0.98237725295E+02  0.00000000000E+00 0. -1.
</event>
<event>
 7    1  0.2899775E-009  0.1613506E+03  0.7561462E-02  0.1187180E+00
          2   -1    0    0  501    0  0.00000000000E+00  0.00000000000E+00  0.34439032021E+03  0.34439032021E+03  0.00000000000E+00 0. -1.
         -2   -1    0    0    0  501 -0.00000000000E+00 -0.00000000000E+00 -0.88356051831E+02  0.88356051831E+02  0.00000000000E+00 0.  1.
         25    2    1    2    0    0 -0.65287862450E+02 -0.10171810778E+03  0.57596263214E+02  0.18323176005E+03  0.12508984739E+03 0.  0.
          5    1    3    3  502    0 -0.59954325871E+02 -0.13010602826E+03  0.56421635317E+02  0.15402263831E+03  0.41800000000E+01 0.  1.
         -5    1    3    3    0  502 -0.53335365793E+01  0.28387920485E+02  0.11746278973E+01  0.29209121736E+02  0.41800000000E+01 0.  1.
        -11    1    1    2    0    0  0.31826362403E+02  0.11100143249E+03  0.16429095464E+03  0.20081273151E+03  0.00000000000E+00 0. -1.
         11    1    1    2    0    0  0.33461500047E+02 -0.92833247146E+01  0.34147050518E+02  0.48701880479E+02  0.00000000000E+00 0.  1.
</event>
<event>
 7    1  0.2899775E-009  0.7535079E+02  0.7561462E-02  0.1342788E+00
          1   -1    0    0  501    0  0.00000000000E+00  0.00000000000E+00  0.63758642703E+02  0.63758642703E+02  0.00000000000E+00 0. -1.
         -1   -1    0    0    0  501 -0.00000000000E+00 -0.00000000000E+00 -0.34338386609E+03  0.34338386609E+03  0.00000000000E+00 0.  1.
         25    2    1    2    0    0  0.64818935164E+02 -0.22201541668E+02 -0.24765401927E+03  0.28578495978E+03  0.12508448013E+03 0.  0.
          5    1    3    3  502    0 -0.39846103464E+01 -0.10285623494E+02 -0.20179671106E+03  0.20214117880E+03  0.41800000000E+01 0. -1.
         -5    1    3    3    0  502  0.68803545511E+02 -0.11915918174E+02 -0.45857308201E+02  0.83643780978E+02  0.41800000000E+01 0. -1.
        -11    1    1    2    0    0 -0.27418206575E+02  0.13461391476E+02 -0.64279529287E+02  0.71167583896E+02  0.00000000000E+00 0.  1.
         11    1    1    2    0    0 -0.37400728589E+02  0.87401501912E+01  0.32308325161E+02  0.50189965123E+02  0.00000000000E+00 0. -1.
</event>
<event>
 7    1  0.2899775E-009  0.1112329E+03  0.7561462E-02  0.1258304E+00
          1   -1    0    0  501    0  0.00000000000E+00  0.00000000000E+00  0.30117226808E+03  0.30117226808E+03  0.00000000000E+00 0. -1.
         -1   -1    0    0    0  501 -0.00000000000E+00 -0.00000000000E+00 -0.70866310123E+02  0.70866310123E+02  0.00000000000E+00 0.  1.
         25    2    1    2    0    0 -0.65930262580E+02  0.61290843229E+02  0.72707237500E+02  0.17041195727E+03  0.12510206157E+03 0.  0.
          5    1    3    3  502    0 -0.40137457896E+02 -0.48078279699E+01  0.88693088478E+02  0.97560581589E+02  0.41800000000E+01 0. -1.
         -5    1    3    3    0  502 -0.25792804684E+02  0.66098671199E+02 -0.15985850978E+02  0.72851375685E+02  0.41800000000E+01 0. -1.
        -11    1    1    2    0    0  0.62868600286E+00 -0.42904753143E+02  0.18225786135E+02  0.46619656461E+02  0.00000000000E+00 0.  1.
         11    1    1    2    0    0  0.65301576577E+02 -0.18386090086E+02  0.13937293432E+03  0.15500696446E+03  0.00000000000E+00 0. -1.
</event>
<event>
 7    1  0.2899775E-009  0.1297172E+03  0.7561462E-02  0.1227876E+00
         -1   -1    0    0    0  501 -0.00000000000E+00  0.00000000000E+00  0.21727392441E+03  0.21727392441E+03  0.00000000000E+00 0.  1.
          1   -1    0    0  501    0  0.00000000000E+00 -0.00000000000E+00 -0.10755285371E+03  0.10755285371E+03  0.00000000000E+00 0. -1.
         25    2    1    2    0    0 -0.78611100847E+00  0.99208060282E+02  0.10099483023E+03  0.18891476717E+03  0.12508387717E+03 0.  0.
          5    1    3    3  502    0  0.20983127865E+02  0.10346857611E+03  0.23553829344E+02  0.10825106546E+03  0.41800000000E+01 0. -1.
         -5    1    3    3    0  502 -0.21769238873E+02 -0.42605158260E+01  0.77441000884E+02  0.80663701713E+02  0.41800000000E+01 0. -1.
        -11    1    1    2    0    0  0.34766275463E+02 -0.89269313624E+02 -0.91770280145E+01  0.96238880437E+02  0.00000000000E+00 0. -1.
         11    1    1    2    0    0 -0.33980164455E+02 -0.99387466575E+01  0.17903268490E+02  0.39673130506E+02  0.00000000000E+00 0.  1.
</event>
<event>
 7    1  0.3712630E-009  0.1102285E+03  0.7561462E-02  0.1260147E+00
          2   -1    0    0  501    0  0.00000000000E+00  0.00000000000E+00  0.98042394522E+02  0.98042394522E+02  0.00000000000E+00 0. -1.
         -2   -1    0    0    0  501 -0.00000000000E+00 -0.00000000000E+00 -0.20835664368E+03  0.20835664368E+03  0.00000000000E+00 0.  1.
         25    2    1    2    0    0  0.46990065640E+02  0.50875711992E+02 -0.12587668031E+03  0.19049594749E+03  0.12508942011E+03 0.  0.
          5    1    3    3  502    0 -0.29157931687E+01 -0.35685718524E+02 -0.62347691371E+02  0.72018604371E+02  0.41800000000E+01 0.  1.
         -5    1    3    3    0  502  0.49905858809E+02  0.86561430516E+02 -0.63528988935E+02  0.11847734311E+03  0.41800000000E+01 0.  1.
        -11    1    1    2    0    0 -0.66338837203E+01 -0.42720602054E+02 -0.31411912102E+02  0.53439371955E+02  0.00000000000E+00 0.  1.
         11    1    1    2    0    0 -0.40356181920E+02 -0.81551099381E+01  0.46974343252E+02  0.62463718759E+02  0.00000000000E+00 0. -1.
</event>
<event>
 7    1  0.2899775E-009  0.9841973E+02  0.7561462E-02  0.1283655E+00
         -2   -1    0    0    0  501 -0.00000000000E+00  0.00000000000E+00  0.57599979266E+02  0.57599979266E+02  0.00000000000E+00 0.  1.
          2   -1    0    0  501    0  0.00000000000E+00 -0.00000000000E+00 -0.23925541774E+03  0.23925541774E+03  0.00000000000E+00 0. -1.
         25    2    1    2    0    0 -0.38299866981E+01  0.26332834627E+02 -0.13612274646E+03  0.18675810777E+03  0.12506439036E+03 0.  0.
          5    1    3    3  502    0  0.79042359271E+01 -0.47303977328E+02 -0.79882103288E+02  0.93267175589E+02  0.41800000000E+01 0. -1.
         -5    1    3    3    0  502 -0.11734222625E+02  0.73636811955E+02 -0.56240643176E+02  0.93490932182E+02  0.41800000000E+01 0. -1.
        -11    1    1    2    0    0 -0.31906832678E+02 -0.20178329461E+02 -0.60136426395E+02  0.71004230374E+02  0.00000000000E+00 0. -1.
         11    1    1    2    0    0  0.35736819376E+02 -0.61545051660E+01  0.14603734386E+02  0.39093058859E+02  0.00000000000E+00 0.  1.
</event>
<event>
 7    1  0.2899775E-009  0.6250430E+02  0.7561462E-02  0.1387613E+00
          1   -1    0    0  501    0  0.00000000000E+00  0.00000000000E+00  0.96424450164E+02  0.96424450164E+02  0.00000000000E+00 0. -1.
         -1   -1    0    0    0  501 -0.00000000000E+00 -0.00000000000E+00 -0.13104017685E+03  0.13104017685E+03  0.00000000000E+00 0.  1.
         25    2    1    2    0    0  0.78169980577E+01  0.36521723730E+02 -0.41155666551E+02  0.13688340668E+03  0.12509331067E+03 0.  0.
          5    1    3    3  502    0  0.78268949941E+01  0.15459725068E+02  0.44837020655E+02  0.48250328555E+02  0.41800000000E+01 0. -1.
         -5    1    3    3    0  502 -0.98969363842E-02  0.21061998662E+02 -0.85992687206E+02  0.88633078129E+02  0.41800000000E+01 0. -1.
        -11    1    1    2    0    0 -0.13153676328E+02 -0.60106868867E+02 -0.84858352886E+01  0.62111708127E+02  0.00000000000E+00 0. -1.
         11    1    1    2    0    0  0.53366782702E+01  0.23585145137E+02  0.15025775153E+02  0.28469512203E+02  0.00000000000E+00 0.  1.
</event>
<event>
 7    1  0.2899775E-009  0.1178457E+03  0.7561462E-02  0.1246694E+00
         -2   -1    0    0    0  501 -0.00000000000E+00  0.00000000000E+00  0.12986723008E+02  0.12986723008E+02  0.00000000000E+00 0.  1.
          2   -1    0    0  501    0  0.00000000000E+00 -0.00000000000E+00 -0.17378897783E+04  0.17378897783E+04  0.00000000000E+00 0. -1.
         25    2    1    2    0    0 -0.17123907145E+02 -0.47085471822E+02 -0.14599955245E+04  0.14662007522E+04  0.12508974505E+03 0.  0.
          5    1    3    3  502    0  0.20424396027E+02 -0.80913640289E+02 -0.96740324428E+03  0.97100498587E+03  0.41800000000E+01 0. -1.
         -5    1    3    3    0  502 -0.37548303172E+02  0.33828168468E+02 -0.49259228020E+03  0.49519576631E+03  0.41800000000E+01 0. -1.
        -11    1    1    2    0    0  0.28727944603E+02 -0.18924557336E+02 -0.12328794456E+03  0.12799746460E+03  0.00000000000E+00 0. -1.
         11    1    1    2    0    0 -0.11604037459E+02  0.66010029158E+02 -0.14161958630E+03  0.15667828458E+03  0.00000000000E+00 0.  1.
</event>
<event>
 7    1  0.2899775E-009  0.1081753E+03  0.7561462E-02  0.1263987E+00
         -1   -1    0    0    0  501 -0.00000000000E+00  0.00000000000E+00  0.11808009592E+02  0.11808009592E+02  0.00000000000E+00 0.  1.
          1   -1    0    0  501    0  0.00000000000E+00 -0.00000000000E+00 -0.10934726815E+04  0.10934726815E+04  0.00000000000E+00 0. -1.
         25    2    1    2    0    0  0.13793522028E+02 -0.19830332783E+02 -0.70408864245E+03  0.71552208669E+03  0.12509011458E+03 0.  0.
          5    1    3    3  502    0  0.24377273915E+02 -0.70274019200E+02 -0.46243205032E+03  0.46839466566E+03  0.41800000000E+01 0. -1.
         -5    1    3    3    0  502 -0.10583751887E+02  0.50443686417E+02 -0.24165659213E+03  0.24712742102E+03  0.41800000000E+01 0. -1.
        -11    1    1    2    0    0  0.77968823235E+01 -0.32557223333E+02 -0.78154289019E+02  0.85022685544E+02  0.00000000000E+00 0.  1.
         11    1    1    2    0    0 -0.21590404351E+02  0.52387556116E+02 -0.29942174049E+03  0.30473591891E+03  0.00000000000E+00 0. -1.
</event>
<event>
 7    1  0.2899775E-009  0.2677656E+03  0.7561462E-02  0.1102565E+00
         -1   -1    0    0    0  501 -0.00000000000E+00  0.00000000000E+00  0.17662068534E+03  0.17662068534E+03  0.00000000000E+00 0.  1.
          1   -1    0    0  501    0  0.00000000000E+00 -0.00000000000E+00 -0.48079104764E+03  0.48079104764E+03  0.00000000000E+00 0. -1.
         25    2    1    2    0    0  0.23531558642E+03  0.11120734020E+03 -0.23672211351E+03  0.37339809741E+03  0.12509309493E+03 0.  0.
          5    1    3    3  502    0  0.86381108083E+02  0.10977982538E+01 -0.20926085230E+02  0.88984686535E+02  0.41800000000E+01 0.  1.
         -5    1    3    3    0  502  0.14893447834E+03  0.11010954195E+03 -0.21579602828E+03  0.28441341088E+03  0.41800000000E+01 0.  1.
        -11    1    1    2    0    0 -0.47985411237E+01 -0.11802294753E+02  0.15096491740E+02  0.19754093783E+02  0.00000000000E+00 0.  1.
         11    1    1    2    0    0 -0.23051704530E+03 -0.99405045449E+02 -0.82544740523E+02  0.26425954178E+03  0.00000000000E+00 0. -1.
</event>
<event>
 7    1  0.2899775E-009  0.7472533E+02  0.7561462E-02  0.1344724E+00
         -1   -1    0    0    0  501 -0.00000000000E+00  0.00000000000E+00  0.39276768121E+02  0.39276768121E+02  0.00000000000E+00 0.  1.
          1   -1    0    0  501    0  0.00000000000E+00 -0.00000000000E+00 -0.29977732120E+03  0.29977732120E+03  0.00000000000E+00 0. -1.
         25    2    1    2    0    0 -0.18767961644E+02 -0.26654035504E+02 -0.14363339841E+03  0.19323811707E+03  0.12509093795E+03 0.  0.
          5    1    3    3  502    0 -0.15916838353E+02 -0.44645528792E+02 -0.16090326314E+03  0.16779124374E+03  0.41800000000E+01 0.  1.
         -5    1    3    3    0  502 -0.28511232909E+01  0.17991493288E+02  0.17269864731E+02  0.25446873336E+02  0.41800000000E+01 0.  1.
        -11    1    1    2    0    0 -0.29724034554E+02  0.52961632329E+01 -0.22733693945E+02  0.37794026189E+02  0.00000000000E+00 0. -1.
         11    1    1    2    0    0  0.48491996198E+02  0.21357872271E+02 -0.94133460726E+02  0.10802194606E+03  0.00000000000E+00 0.  1.
</event>
<event>
 7    1  0.2899775E-009  0.1204109E+03  0.7561462E-02  0.1242421E+00
         -2   -1    0    0    0  501 -0.00000000000E+00  0.00000000000E+00  0.19874466758E+02  0.19874466758E+02  0.00000000000E+00 0.  1.
          2   -1    0    0  501    0  0.00000000000E+00 -0.00000000000E+00 -0.78695067763E+03  0.78695067763E+03  0.00000000000E+00 0. -1.
         25    2    1    2    0    0 -0.44011038084E+02 -0.44419549954E+02 -0.43569869206E+03  0.45759218151E+03  0.12508871424E+03 0.  0.
          5    1    3    3  502    0  0.30161320358E+02 -0.47411823327E+02 -0.27236000087E+03  0.27812772015E+03  0.41800000000E+01 0. -1.
         -5    1    3    3    0  502 -0.74172358442E+02  0.29922733729E+01 -0.16333869118E+03  0.17946446137E+03  0.41800000000E+01 0. -1.
        -11    1    1    2    0    0  0.31827182471E+02  0.72683119033E+02 -0.24576545783E+03  0.25825658868E+03  0.00000000000E+00 0.  1.
         11    1    1    2    0    0  0.12183855613E+02 -0.28263569079E+02 -0.85612060990E+02  0.90976374195E+02  0.00000000000E+00 0. -1.
</event>
<event>
 7    1  0.3503326E-009  0.1593222E+03  0.7561462E-02  0.1189464E+00
         -2   -1    0    0    0  501 -0.00000000000E+00  0.00000000000E+00  0.91929212797E+02  0.91929212797E+02  0.00000000000E+00 0. -1.
          2   -1    0    0  501    0  0.00000000000E+00 -0.00000000000E+00 -0.45337239764E+03  0.45337239764E+03  0.00000000000E+00 0.  1.
         25    2    1    2    0    0 -0.12754635791E+03 -0.82782531444E+02 -0.80034767144E+02  0.21253888893E+03  0.12508474898E+03 0.  0.
          5    1    3    3  502    0 -0.11560971590E+03 -0.54005779228E+02 -0.12080477309E+01  0.12767600550E+03  0.41800000000E+01 0.  1.
         -5    1    3    3    0  502 -0.11936642011E+02 -0.28776752217E+02 -0.78826719413E+02  0.84862883430E+02  0.41800000000E+01 0.  1.
        -11    1    1    2    0    0  0.10971323922E+03  0.46595062545E+02 -0.26232016883E+03  0.28813185470E+03  0.00000000000E+00 0.  1.
         11    1    1    2    0    0  0.17833118689E+02  0.36187468900E+02 -0.19088248869E+02  0.44630866812E+02  0.00000000000E+00 0. -1.
</event>
<event>
 7    1  0.2899775E-009  0.1145104E+03  0.7561462E-02  0.1252438E+00
          2   -1    0    0  501    0  0.00000000000E+00  0.00000000000E+00  0.48131833056E+03  0.48131833056E+03  0.00000000000E+00 0. -1.
         -2   -1    0    0    0  501 -0.00000000000E+00 -0.00000000000E+00 -0.91349362718E+02  0.91349362718E+02  0.00000000000E+00 0.  1.
         25    2    1    2    0    0  0.20749215438E+01  0.43580159586E+02  0.44058735244E+03  0.46007372415E+03  0.12508829246E+03 0.  0.
          5    1    3    3  502    0 -0.54399709401E+02  0.49050812155E+02  0.28882715114E+03  0.29799984260E+03  0.41800000000E+01 0. -1.
         -5    1    3    3    0  502  0.56474630944E+02 -0.54706525697E+01  0.15176020130E+03  0.16207388154E+03  0.41800000000E+01 0. -1.
        -11    1    1    2    0    0 -0.45078496938E+02 -0.16840593460E+02 -0.14047077131E+02  0.50129800021E+02  0.00000000000E+00 0.  1.
         11    1    1    2    0    0  0.43003575394E+02 -0.26739566126E+02 -0.36571307464E+02  0.62464169113E+02  0.00000000000E+00 0. -1.
</event>
<event>
 7    1  0.2899775E-009  0.1185889E+03  0.7561462E-02  0.1245443E+00
         -1   -1    0    0    0  501 -0.00000000000E+00  0.00000000000E+00  0.58021104657E+02  0.58021104657E+02  0.00000000000E+00 0.  1.
          1   -1    0    0  501    0  0.00000000000E+00 -0.00000000000E+00 -0.35282550543E+03  0.35282550543E+03  0.00000000000E+00 0. -1.
         25    2    1    2    0    0 -0.64167911510E+02  0.45621025671E+02 -0.88199326059E+02  0.17212018912E+03  0.12508972594E+03 0.  0.
          5    1    3    3  502    0  0.30866451527E+02 -0.15080142356E+02 -0.25867734551E+02  0.43206025206E+02  0.41800000000E+01 0. -1.
         -5    1    3    3    0  502 -0.95034363037E+02  0.60701168027E+02 -0.62331591508E+02  0.12891416391E+03  0.41800000000E+01 0. -1.
        -11    1    1    2    0    0  0.20103152346E+02  0.68226442460E+01 -0.17684282565E+00  0.21230084365E+02  0.00000000000E+00 0.  1.
         11    1    1    2    0    0  0.44064759164E+02 -0.52443669917E+02 -0.20642823189E+03  0.21749633660E+03  0.00000000000E+00 0. -1.
</event>
<event>
 7    1  0.2899775E-009  0.6214982E+02  0.7561462E-02  0.1389025E+00
          4   -1    0    0  501    0  0.00000000000E+00  0.00000000000E+00  0.28769325069E+03  0.28769325069E+03  0.00000000000E+00 0. -1.
         -4   -1    0    0    0  501 -0.00000000000E+00 -0.00000000000E+00 -0.51379025755E+02  0.51379025755E+02  0.00000000000E+00 0.  1.
         25    2    1    2    0    0 -0.25721013142E+02 -0.13407481541E+02  0.19502801905E+03  0.23350558520E+03  0.12509036344E+03 0.  0.
          5    1    3    3  502    0 -0.32077409574E+02 -0.33835853221E+02  0.20446240383E+03  0.20975264515E+03  0.41800000000E+01 0. -1.
         -5    1    3    3    0  502  0.63563964321E+01  0.20428371680E+02 -0.94343847718E+01  0.23752940052E+02  0.41800000000E+01 0. -1.
        -11    1    1    2    0    0  0.39691780481E+02  0.12802916462E+02  0.65473379185E+02  0.77628058649E+02  0.00000000000E+00 0. -1.
         11    1    1    2    0    0 -0.13970767339E+02  0.60456507970E+00 -0.24187173303E+02  0.27938632597E+02  0.00000000000E+00 0.  1.
</event>
<event>
 7    1  0.2899775E-009  0.1237948E+03  0.7561462E-02  0.1236965E+00
          1   -1    0    0  501    0  0.00000000000E+00  0.00000000000E+00  0.38639681785E+03  0.38639681785E+03  0.00000000000E+00 0. -1.
         -1   -1    0    0    0  501 -0.00000000000E+00 -0.00000000000E+00 -0.49947157875E+02  0.49947157875E+02  0.00000000000E+00 0.  1.
         25    2    1    2    0    0 -0.60819370118E+02  0.58854021110E+02  0.20506938338E+03  0.25467826604E+03  0.12507907743E+03 0.  0.
          5    1    3    3  502    0 -0.98990286460E+02  0.50100992474E+02  0.14089468092E+03  0.17938218912E+03  0.41800000000E+01 0. -1.
         -5    1    3    3    0  502  0.38170916342E+02  0.87530286361E+01  0.64174702455E+02  0.75296076922E+02  0.41800000000E+01 0. -1.
        -11    1    1    2    0    0  0.14134544769E+02 -0.46907597664E+02  0.85639856111E+01  0.49733790565E+02  0.00000000000E+00 0.  1.
         11    1    1    2    0    0  0.46684825349E+02 -0.11946423446E+02  0.12281629098E+03  0.13193191912E+03  0.00000000000E+00 0. -1.
</event>
<event>
 7    1  0.2899775E-009  0.1442182E+03  0.7561462E-02  0.1207763E+00
         -2   -1    0    0    0  501 -0.00000000000E+00  0.00000000000E+00  0.18498943857E+02  0.18498943857E+02  0.00000000000E+00 0. -1.
          2   -1    0    0  501    0  0.00000000000E+00 -0.00000000000E+00 -0.16387962895E+04  0.16387962895E+04  0.00000000000E+00 0.  1.
         25    2    1    2    0    0  0.12155526130E+03 -0.46612703156E+02 -0.10418398561E+04  0.10573677690E+04  0.12509151588E+03 0.  0.
          5    1    3    3  502    0  0.47284734857E+02 -0.15365377792E+02 -0.96913201856E+02  0.10900267006E+03  0.41800000000E+01 0.  1.
         -5    1    3    3    0  502  0.74270526439E+02 -0.31247325363E+02 -0.94492665429E+03  0.94836509891E+03  0.41800000000E+01 0.  1.
        -11    1    1    2    0    0 -0.10636338550E+02  0.45714251802E+02 -0.14006424041E+03  0.14771904399E+03  0.00000000000E+00 0. -1.
         11    1    1    2    0    0 -0.11091892275E+03  0.89845135398E+00 -0.43839324905E+03  0.45220842036E+03  0.00000000000E+00 0.  1.
</event>
<event>
 7    1  0.2899775E-009  0.1087947E+03  0.7561462E-02  0.1262818E+00
         -2   -1    0    0    0  501 -0.00000000000E+00  0.00000000000E+00  0.68487191233E+02  0.68487191233E+02  0.00000000000E+00 0.  1.
          2   -1    0    0  501    0  0.00000000000E+00 -0.00000000000E+00 -0.21836388296E+03  0.21836388296E+03  0.00000000000E+00 0. -1.
         25    2    1    2    0    0 -0.37956871577E+02  0.80312423613E+01 -0.12868271215E+03  0.18360845934E+03  0.12509037126E+03 0.  0.
          5    1    3    3  502    0 -0.24086163881E+02  0.66180167060E+02 -0.77461528384E+02  0.10477460848E+03  0.41800000000E+01 0. -1.
         -5    1    3    3    0  502 -0.13870707695E+02 -0.58148924698E+02 -0.51221183765E+02  0.78833850863E+02  0.41800000000E+01 0. -1.
        -11    1    1    2    0    0 -0.23190617940E+02  0.68476008827E+01 -0.31249813978E+02  0.39512596370E+02  0.00000000000E+00 0.  1.
         11    1    1    2    0    0  0.61147489516E+02 -0.14878843244E+02  0.10055834397E+02  0.63730018483E+02  0.00000000000E+00 0. -1.
</event>
<event>
 7    1  0.2899775E-009  0.1089873E+03  0.7561462E-02  0.1262457E+00
          3   -1    0    0  501    0  0.00000000000E+00  0.00000000000E+00  0.10164752476E+02  0.10164752476E+02  0.00000000000E+00 0. -1.
         -3   -1    0    0    0  501 -0.00000000000E+00 -0.00000000000E+00 -0.12965570427E+04  0.12965570427E+04  0.00000000000E+00 0.  1.
         25    2    1    2    0    0 -0.95251597336E+01 -0.34829019630E+02 -0.76028114447E+03  0.77134884425E+03  0.12509129313E+03 0.  0.
          5    1    3    3  502    0 -0.43971368727E+01  0.41653011859E+02 -0.43944309305E+03  0.44145442872E+03  0.41800000000E+01 0.  1.
         -5    1    3    3    0  502 -0.51280228609E+01 -0.76482031488E+02 -0.32083805143E+03  0.32989441554E+03  0.41800000000E+01 0.  1.
        -11    1    1    2    0    0  0.45910791047E+02  0.41774462080E+02 -0.32223156773E+03  0.32815558758E+03  0.00000000000E+00 0. -1.
         11    1    1    2    0    0 -0.36385631313E+02 -0.69454424504E+01 -0.20387957802E+03  0.20721736334E+03  0.00000000000E+00 0.  1.
</event>
<event>
 7    1  0.2899775E-009  0.1865940E+03  0.7561462E-02  0.1161570E+00
          2   -1    0    0  501    0  0.00000000000E+00  0.00000000000E+00  0.90047922281E+02  0.90047922281E+02  0.00000000000E+00 0. -1.
         -2   -1    0    0    0  501 -0.00000000000E+00 -0.00000000000E+00 -0.46516474452E+03  0.46516474452E+03  0.00000000000E+00 0.  1.
         25    2    1    2    0    0  0.12245419997E+02 -0.16361995838E+03 -0.11859238969E+03  0.23797850124E+03  0.12509264993E+03 0.  0.
          5    1    3    3  502    0  0.24252064550E+02  0.69243383671E+01 -0.45092547764E+02  0.51835502897E+02  0.41800000000E+01 0.  1.
         -5    1    3    3    0  502 -0.12006644553E+02 -0.17054429675E+03 -0.73499841930E+02  0.18614299834E+03  0.41800000000E+01 0.  1.
        -11    1    1    2    0    0  0.24998907363E+02  0.98143401309E+02 -0.19593714295E+03  0.22056390588E+03  0.00000000000E+00 0.  1.
         11    1    1    2    0    0 -0.37244327360E+02  0.65476557075E+02 -0.60587289596E+02  0.96670259684E+02  0.00000000000E+00 0. -1.
</event>
<event>
 7    1  0.2899775E-009  0.1234427E+03  0.7561462E-02  0.1237523E+00
         -1   -1    0    0    0  501 -0.00000000000E+00  0.00000000000E+00  0.63663852706E+02  0.63663852706E+02  0.00000000000E+00 0.  1.
          1   -1    0    0  501    0  0.00000000000E+00 -0.00000000000E+00 -0.29682088468E+03  0.29682088468E+03  0.00000000000E+00 0. -1.
         25    2    1    2    0    0  0.52399788893E+02  0.49773693896E+02 -0.18448487768E+03  0.23431819916E+03  0.12508872804E+03 0.  0.
          5    1    3    3  502    0 -0.26054639998E+02  0.44525113915E+02 -0.27304659177E+02  0.58517919028E+02  0.41800000000E+01 0. -1.
         -5    1    3    3    0  502  0.78454428892E+02  0.52485799816E+01 -0.15718021851E+03  0.17580028013E+03  0.41800000000E+01 0. -1.
        -11    1    1    2    0    0 -0.77663081463E+02 -0.47464356064E+02 -0.38833801319E+02  0.98956977742E+02  0.00000000000E+00 0.  1.
         11    1    1    2    0    0  0.25263292570E+02 -0.23093378325E+01 -0.98383529767E+01  0.27209560489E+02  0.00000000000E+00 0. -1.
</event>
<event>
 7    1  0.2899775E-009  0.1733439E+03  0.7561462E-02  0.1174405E+00
          2   -1    0    0  501    0  0.00000000000E+00  0.00000000000E+00  0.24458776176E+03  0.24458776176E+03  0.00000000000E+00 0. -1.
         -2   -1    0    0    0  501 -0.00000000000E+00 -0.00000000000E+00 -0.14520302233E+03  0.14520302233E+03  0.00000000000E+00 0.  1.
         25    2    1    2    0    0  0.48550876917E+02 -0.13974333849E+03  0.99962252301E+01  0.19399615466E+03  0.12509674337E+03 0.  0.
          5    1    3    3  502    0  0.67666932135E+02 -0.23973482865E+02 -0.16166612327E+02  0.73704635807E+02  0.41800000000E+01 0. -1.
         -5    1    3    3    0  502 -0.19116055219E+02 -0.11576985563E+03  0.26162837557E+02  0.12029151885E+03  0.41800000000E+01 0. -1.
        -11    1    1    2    0    0 -0.22666154171E+02  0.12607119258E+03  0.33023188217E+02  0.13228087958E+03  0.00000000000E+00 0.  1.
         11    1    1    2    0    0 -0.25884722746E+02  0.13672145912E+02  0.56365325991E+02  0.63513749847E+02  0.00000000000E+00 0. -1.
</event>
<event>
 7    1  0.2899775E-009  0.2301104E+03  0.7561462E-02  0.1126562E+00
         -1   -1    0    0    0  501 -0.00000000000E+00  0.00000000000E+00  0.59810046656E+02  0.59810046656E+02  0.00000000000E+00 0.  1.
          1   -1    0    0  501    0  0.00000000000E+00 -0.00000000000E+00 -0.97005018407E+03  0.97005018407E+03  0.00000000000E+00 0. -1.
         25    2    1    2    0    0 -0.15864781340E+03 -0.14094248682E+03 -0.53043218918E+03  0.58484146624E+03  0.12508924827E+03 0.  0.
          5    1    3    3  502    0  0.59485697833E+01 -0.48401609109E+02 -0.18250832023E+03  0.18895729835E+03  0.41800000000E+01 0.  1.
         -5    1    3    3    0  502 -0.16459638318E+03 -0.92540877706E+02 -0.34792386895E+03  0.39588416790E+03  0.41800000000E+01 0.  1.
        -11    1    1    2    0    0  0.23542028469E+02  0.61075549052E+02 -0.17604027571E+03  0.18781541062E+03  0.00000000000E+00 0. -1.
         11    1    1    2    0    0  0.13510578493E+03  0.79866937764E+02 -0.20376767252E+03  0.25720335386E+03  0.00000000000E+00 0.  1.
</event>
<event>
 7    1  0.2899775E-009  0.9204800E+02  0.7561462E-02  0.1297967E+00
          2   -1    0    0  501    0  0.00000000000E+00  0.00000000000E+00  0.71258145852E+02  0.71258145852E+02  0.00000000000E+00 0. -1.
         -2   -1    0    0    0  501 -0.00000000000E+00 -0.00000000000E+00 -0.22691951290E+03  0.22691951290E+03  0.00000000000E+00 0.  1.
         25    2    1    2    0    0 -0.69990180164E+02  0.96983669729E+01 -0.68358407854E+02  0.15909814263E+03  0.12508662368E+03 0.  0.
          5    1    3    3  502    0 -0.64548406161E+02 -0.19826849977E+00 -0.10344430894E+03  0.12200300611E+03  0.41800000000E+01 0.  1.
         -5    1    3    3    0  502 -0.54417740027E+01  0.98966354727E+01  0.35085901089E+02  0.37095136517E+02  0.41800000000E+01 0.  1.
        -11    1    1    2    0    0 -0.18093815126E+02 -0.65044331039E+01 -0.22980147025E+02  0.29962993060E+02  0.00000000000E+00 0. -1.
         11    1    1    2    0    0  0.88083995290E+02 -0.31939338690E+01 -0.64322812172E+02  0.10911652306E+03  0.00000000000E+00 0.  1.
</event>
<event>
 7    1  0.2899775E-009  0.2069186E+03  0.7561462E-02  0.1144030E+00
         -2   -1    0    0    0  501 -0.00000000000E+00  0.00000000000E+00  0.31333387703E+02  0.31333387703E+02  0.00000000000E+00 0.  1.
          2   -1    0    0  501    0  0.00000000000E+00 -0.00000000000E+00 -0.25295466734E+04  0.25295466734E+04  0.00000000000E+00 0. -1.
         25    2    1    2    0    0  0.19211280356E+03 -0.49552925450E+02 -0.20386354974E+04  0.20520831078E+04  0.12509024012E+03 0.  0.
          5    1    3    3  502    0  0.11043541139E+03 -0.68135052412E+02 -0.16159687755E+04  0.16211757836E+04  0.41800000000E+01 0.  1.
         -5    1    3    3    0  502  0.81677392167E+02  0.18582126962E+02 -0.42266672191E+03  0.43090732419E+03  0.41800000000E+01 0.  1.
        -11    1    1    2    0    0 -0.52273329888E+02  0.15734427576E+01 -0.22898197818E+03  0.23487810258E+03  0.00000000000E+00 0. -1.
         11    1    1    2    0    0 -0.13983947367E+03  0.47979482693E+02 -0.23059581006E+03  0.27391885071E+03  0.00000000000E+00 0.  1.
</event>
<event>
 7    1  0.2899775E-009  0.1371194E+03  0.7561462E-02  0.1217258E+00
          2   -1    0    0  501    0  0.00000000000E+00  0.00000000000E+00  0.34003348495E+03  0.34003348495E+03  0.00000000000E+00 0.  1.
         -2   -1    0    0    0  501 -0.00000000000E+00 -0.00000000000E+00 -0.85846972191E+02  0.85846972191E+02  0.00000000000E+00 0. -1.
         25    2    1    2    0    0 -0.30083845690E+02  0.94976051513E+02  0.28054616326E+02  0.16235379365E+03  0.12508478998E+03 0.  0.
          5    1    3    3  502    0 -0.14120551643E+02  0.12441642274E+03  0.15051035578E+02  0.12618574523E+03  0.41800000000E+01 0. -1.
         -5    1    3    3    0  502 -0.15963294047E+02 -0.29440371228E+02  0.13003580748E+02  0.36168048428E+02  0.41800000000E+01 0. -1.
        -11    1    1    2    0    0  0.27845247450E+02 -0.90933150576E+01  0.13556618618E+03  0.13869476205E+03  0.00000000000E+00 0.  1.
         11    1    1    2    0    0  0.22385982400E+01 -0.85882736455E+02  0.90565710254E+02  0.12483190144E+03  0.00000000000E+00 0. -1.
</event>
<event>
 7    1  0.2899775E-009  0.2873783E+03  0.7561462E-02  0.1091726E+00
         -1   -1    0    0    0  501 -0.00000000000E+00  0.00000000000E+00  0.11283549576E+03  0.11283549576E+03  0.00000000000E+00 0.  1.
          1   -1    0    0  501    0  0.00000000000E+00 -0.00000000000E+00 -0.74255333586E+03  0.74255333586E+03  0.00000000000E+00 0. -1.
         25    2    1    2    0    0 -0.91857024798E+02 -0.25110597062E+03 -0.32141526668E+03  0.43640389114E+03  0.12509460842E+03 0.  0.
          5    1    3    3  502    0 -0.25215240532E+02 -0.21237508532E+03 -0.26620727944E+03  0.34150076610E+03  0.41800000000E+01 0. -1.
         -5    1    3    3    0  502 -0.66641784266E+02 -0.38730885302E+02 -0.55207987246E+02  0.94903125039E+02  0.41800000000E+01 0. -1.
        -11    1    1    2    0    0  0.11178166031E+03  0.20682413982E+03 -0.25210116788E+03  0.34471200043E+03  0.00000000000E+00 0.  1.
         11    1    1    2    0    0 -0.19924635511E+02  0.44281830799E+02 -0.56201405537E+02  0.74272940049E+02  0.00000000000E+00 0. -1.
</event>
<event>
 7    1  0.2899775E-009  0.1357830E+03  0.7561462E-02  0.1219119E+00
         -1   -1    0    0    0  501 -0.00000000000E+00  0.00000000000E+00  0.41347962751E+03  0.41347962751E+03  0.00000000000E+00 0.  1.
          1   -1    0    0  501    0  0.00000000000E+00 -0.00000000000E+00 -0.72524416079E+02  0.72524416079E+02  0.00000000000E+00 0. -1.
         25    2    1    2    0    0 -0.77098058072E+02  0.10682585899E+03  0.13640932453E+03  0.22718237986E+03  0.12509378559E+03 0.  0.
          5    1    3    3  502    0 -0.29589853054E+02  0.76359266058E+02  0.14820207383E+03  0.16937421292E+03  0.41800000000E+01 0.  1.
         -5    1    3    3    0  502 -0.47508205018E+02  0.30466592928E+02 -0.11792749294E+02  0.57808166937E+02  0.41800000000E+01 0.  1.
        -11    1    1    2    0    0  0.43225212592E+02 -0.74618931013E+02  0.55335422208E+02  0.10246176272E+03  0.00000000000E+00 0.  1.
         11    1    1    2    0    0  0.33872845480E+02 -0.32206927973E+02  0.14921046469E+03  0.15635990101E+03  0.00000000000E+00 0. -1.
</event>
<event>
 7    1  0.2899775E-009  0.1154945E+03  0.7561462E-02  0.1250720E+00
         -4   -1    0    0    0  501 -0.00000000000E+00  0.00000000000E+00  0.96644484107E+02  0.96644484107E+02  0.00000000000E+00 0.  1.
          4   -1    0    0  501    0  0.00000000000E+00 -0.00000000000E+00 -0.20064024299E+03  0.20064024299E+03  0.00000000000E+00 0. -1.
         25    2    1    2    0    0  0.76571130251E+02  0.18504832317E+02 -0.24072791778E+02  0.14976282265E+03  0.12507532506E+03 0.  0.
          5    1    3    3  502    0 -0.30677022407E+02  0.20890888771E+02 -0.19912868392E+02  0.42326158165E+02  0.41800000000E+01 0.  1.
         -5    1    3    3    0  502  0.10724815266E+03 -0.23860564535E+01 -0.41599233859E+01  0.10743666449E+03  0.41800000000E+01 0.  1.
        -11    1    1    2    0    0 -0.26565467006E+02  0.10395619289E+02  0.18074380678E+02  0.33770936833E+02  0.00000000000E+00 0.  1.
         11    1    1    2    0    0 -0.50005663245E+02 -0.28900451607E+02 -0.97997347785E+02  0.11375096761E+03  0.00000000000E+00 0. -1.
</event>
<event>
 7    1  0.2899775E-009  0.1023052E+03  0.7561462E-02  0.1275522E+00
         -1   -1    0    0    0  501 -0.00000000000E+00  0.00000000000E+00  0.97138689575E+02  0.97138689575E+02  0.00000000000E+00 0.  1.
          1   -1    0    0  501    0  0.00000000000E+00 -0.00000000000E+00 -0.18335352399E+03  0.18335352399E+03  0.00000000000E+00 0. -1.
         25    2    1    2    0    0  0.14968261358E+02 -0.16725252489E+02  0.30587533487E+02  0.13071644276E+03  0.12508960103E+03 0.  0.
          5    1    3    3  502    0  0.54139642372E+02 -0.39180650603E+02  0.47740061348E+02  0.82236306552E+02  0.41800000000E+01 0.  1.
         -5    1    3    3    0  502 -0.39171381014E+02  0.22455398114E+02 -0.17152527861E+02  0.48480136211E+02  0.41800000000E+01 0.  1.
        -11    1    1    2    0    0  0.34973616089E+02  0.23165853004E+02 -0.66310529053E+02  0.78465895974E+02  0.00000000000E+00 0. -1.
         11    1    1    2    0    0 -0.49941877446E+02 -0.64406005157E+01 -0.50491838853E+02  0.71309874832E+02  0.00000000000E+00 0.  1.
</event>
<event>
 7    1  0.2899775E-009  0.1051657E+03  0.7561462E-02  0.1269794E+00
         -4   -1    0    0    0  501 -0.00000000000E+00  0.00000000000E+00  0.23784286262E+02  0.23784286262E+02  0.00000000000E+00 0. -1.
          4   -1    0    0  501    0  0.00000000000E+00 -0.00000000000E+00 -0.58952238739E+03  0.58952238739E+03  0.00000000000E+00 0.  1.
         25    2    1    2    0    0 -0.46800548424E+02  0.18617170875E+02 -0.29460423903E+03  0.32400046398E+03  0.12509097737E+03 0.  0.
          5    1    3    3  502    0  0.13683230430E+02 -0.31060103159E+02 -0.19126758050E+03  0.19430059329E+03  0.41800000000E+01 0.  1.
         -5    1    3    3    0  502 -0.60483778855E+02  0.49677274034E+02 -0.10333665853E+03  0.12969987069E+03  0.41800000000E+01 0.  1.
        -11    1    1    2    0    0 -0.19652444061E+02  0.13603072677E+02 -0.39338908199E+02  0.46030553354E+02  0.00000000000E+00 0. -1.
         11    1    1    2    0    0  0.66452992485E+02 -0.32220243552E+02 -0.23179495390E+03  0.24327565632E+03  0.00000000000E+00 0.  1.
</event>
<event>
 7    1  0.2899775E-009  0.1340143E+03  0.7561462E-02  0.1221618E+00
          2   -1    0    0  501    0  0.00000000000E+00  0.00000000000E+00  0.28814524268E+04  0.28814524268E+04  0.00000000000E+00 0. -1.
         -2   -1    0    0    0  501 -0.00000000000E+00 -0.00000000000E+00 -0.12069512187E+02  0.12069512187E+02  0.00000000000E+00 0.  1.
         25    2    1    2    0    0 -0.18341152639E+02 -0.89047235258E+02  0.24455335780E+04  0.24504177088E+04  0.12508660539E+03 0.  0.
          5    1    3    3  502    0  0.37894487137E+02 -0.62233502002E+01  0.12807401588E+04  0.12813225780E+04  0.41800000000E+01 0. -1.
         -5    1    3    3    0  502 -0.56235639776E+02 -0.82823885057E+02  0.11647934192E+04  0.11690951308E+04  0.41800000000E+01 0. -1.
        -11    1    1    2    0    0  0.40334572243E+02  0.30651007480E+01  0.13213883287E+03  0.13819169191E+03  0.00000000000E+00 0.  1.
         11    1    1    2    0    0 -0.21993419604E+02  0.85982134510E+02  0.29171050380E+03  0.30491253826E+03  0.00000000000E+00 0. -1.
</event>
<event>
 7    1  0.2899775E-009  0.1441612E+03  0.7561462E-02  0.1207837E+00
         -2   -1    0    0    0  501 -0.00000000000E+00  0.00000000000E+00  0.31970710407E+03  0.31970710407E+03  0.00000000000E+00 0.  1.
          2   -1    0    0  501    0  0.00000000000E+00 -0.00000000000E+00 -0.10644833523E+03  0.10644833523E+03  0.00000000000E+00 0. -1.
         25    2    1    2    0    0 -0.74148827135E+02 -0.12270338049E+03  0.15961278693E+03  0.24835271542E+03  0.12509460962E+03 0.  0.
          5    1    3    3  502    0 -0.16133702772E+02 -0.41251497936E+02 -0.15115242260E+02  0.46988566648E+02  0.41800000000E+01 0. -1.
         -5    1    3    3    0  502 -0.58015124364E+02 -0.81451882554E+02  0.17472802919E+03  0.20136414877E+03  0.41800000000E+01 0. -1.
        -11    1    1    2    0    0  0.33652468623E+02  0.65728511437E+02 -0.19758630500E+02  0.76440364595E+02  0.00000000000E+00 0. -1.
         11    1    1    2    0    0  0.40496358512E+02  0.56974869053E+02  0.73404612414E+02  0.10136235929E+03  0.00000000000E+00 0.  1.
</event>
<event>
 7    1  0.2899775E-009  0.1006911E+03  0.7561462E-02  0.1278849E+00
          1   -1    0    0  501    0  0.00000000000E+00  0.00000000000E+00  0.13620385822E+03  0.13620385822E+03  0.00000000000E+00 0. -1.
         -1   -1    0    0    0  501 -0.00000000000E+00 -0.00000000000E+00 -0.10315116277E+03  0.10315116277E+03  0.00000000000E+00 0.  1.
         25    2    1    2    0    0  0.71845939289E+00 -0.45776325996E+02  0.36293314232E+02  0.13805705669E+03  0.12508620243E+03 0.  0.
          5    1    3    3  502    0 -0.49096607952E+02 -0.29144137274E+02  0.57615833954E+02  0.81221391099E+02  0.41800000000E+01 0.  1.
         -5    1    3    3    0  502  0.49815067345E+02 -0.16632188722E+02 -0.21322519722E+02  0.56835665594E+02  0.41800000000E+01 0.  1.
        -11    1    1    2    0    0  0.32093913694E+02 -0.34618669899E+01 -0.22186096583E+02  0.39169206027E+02  0.00000000000E+00 0.  1.
         11    1    1    2    0    0 -0.32812373087E+02  0.49238192986E+02  0.18945477800E+02  0.62128758278E+02  0.00000000000E+00 0. -1.
</event>
<event>
 7    1  0.2899775E-009  0.8805110E+02  0.7561462E-02  0.1307641E+00
          4   -1    0    0  501    0  0.00000000000E+00  0.00000000000E+00  0.51169730929E+03  0.51169730929E+03  0.00000000000E+00 0. -1.
         -4   -1    0    0    0  501 -0.00000000000E+00 -0.00000000000E+00 -0.26309706553E+02  0.26309706553E+02  0.00000000000E+00 0.  1.
         25    2    1    2    0    0  0.26697975164E+01  0.35167118478E+02  0.31868388849E+03  0.34416678020E+03  0.12508995871E+03 0.  0.
          5    1    3    3  502    0  0.21711241234E+02  0.49306388821E+02  0.47590277604E+02  0.72005589345E+02  0.41800000000E+01 0.  1.
         -5    1    3    3    0  502 -0.19041443717E+02 -0.14139270343E+02  0.27109361088E+03  0.27216119085E+03  0.41800000000E+01 0.  1.
        -11    1    1    2    0    0  0.40780106682E+02 -0.36187392041E+02  0.79402270282E+02  0.96318559840E+02  0.00000000000E+00 0.  1.
         11    1    1    2    0    0 -0.43449904198E+02  0.10202735633E+01  0.87301443971E+02  0.97521675808E+02  0.00000000000E+00 0. -1.
</event>
<event>
 7    1  0.2899775E-009  0.1593112E+03  0.7561462E-02  0.1189477E+00
         -1   -1    0    0    0  501 -0.00000000000E+00  0.00000000000E+00  0.43191687572E+02  0.43191687572E+02  0.00000000000E+00 0.  1.
          1   -1    0    0  501    0  0.00000000000E+00 -0.00000000000E+00 -0.89219142414E+03  0.89219142414E+03  0.00000000000E+00 0. -1.
         25    2    1    2    0    0  0.14901250257E+03  0.44946544242E+02 -0.56348598589E+03  0.59781984609E+03  0.12508874580E+03 0.  0.
          5    1    3    3  502    0  0.31998001113E+02  0.11571111497E+02 -0.35297175867E+03  0.35463262331E+03  0.41800000000E+01 0. -1.
         -5    1    3    3    0  502  0.11701450146E+03  0.33375432746E+02 -0.21051422722E+03  0.24318722278E+03  0.41800000000E+01 0. -1.
        -11    1    1    2    0    0 -0.57491108566E+02 -0.41676031803E+02 -0.20013251015E+03  0.21235616500E+03  0.00000000000E+00 0. -1.
         11    1    1    2    0    0 -0.91521394009E+02 -0.32705124391E+01 -0.85381240521E+02  0.12520710062E+03  0.00000000000E+00 0.  1.
</event>
<event>
 7    1  0.3196670E-009  0.1514128E+03  0.7561462E-02  0.1198748E+00
         -2   -1    0    0    0  501 -0.00000000000E+00  0.00000000000E+00  0.77603183838E+02  0.77603183838E+02  0.00000000000E+00 0.  1.
          2   -1    0    0  501    0  0.00000000000E+00 -0.00000000000E+00 -0.40888567556E+03  0.40888567556E+03  0.00000000000E+00 0. -1.
         25    2    1    2    0    0  0.96286459730E+02  0.10261491056E+03 -0.16300110834E+03  0.24903638572E+03  0.12509539517E+03 0.  0.
          5    1    3    3  502    0  0.56850079409E+02  0.49833042841E+02 -0.28019470530E+01  0.75766661500E+02  0.41800000000E+01 0.  1.
         -5    1    3    3    0  502  0.39436380321E+02  0.52781867723E+02 -0.16019916129E+03  0.17326972422E+03  0.41800000000E+01 0.  1.
        -11    1    1    2    0    0  0.35391809202E+00 -0.51994262912E+02 -0.25924338616E+02  0.58099913653E+02  0.00000000000E+00 0.  1.
         11    1    1    2    0    0 -0.96640377822E+02 -0.50620647653E+02 -0.14235704476E+03  0.17935256003E+03  0.00000000000E+00 0. -1.
</event>
<event>
 7    1  0.2899775E-009  0.8220569E+02  0.7561462E-02  0.1322906E+00
          1   -1    0    0  501    0  0.00000000000E+00  0.00000000000E+00  0.24378968079E+03  0.24378968079E+03  0.00000000000E+00 0. -1.
         -1   -1    0    0    0  501 -0.00000000000E+00 -0.00000000000E+00 -0.64115558174E+02  0.64115558174E+02  0.00000000000E+00 0.  1.
         25    2    1    2    0    0  0.39849788036E+02  0.32221142841E+02  0.55436239594E+02  0.14611037819E+03  0.12509539680E+03 0.  0.
          5    1    3    3  502    0 -0.45847619573E+01  0.14474269505E+02  0.87145871561E+02  0.88557325220E+02  0.41800000000E+01 0.  1.
         -5    1    3    3    0  502  0.44434549993E+02  0.17746873336E+02 -0.31709631967E+02  0.57553052967E+02  0.41800000000E+01 0.  1.
        -11    1    1    2    0    0 -0.52956168895E+02 -0.53733694194E+02  0.74427715357E+02  0.10597712267E+03  0.00000000000E+00 0.  1.
         11    1    1    2    0    0  0.13106380859E+02  0.21512551354E+02  0.49810167670E+02  0.55817738115E+02  0.00000000000E+00 0. -1.
</event>
<event>
 7    1  0.3912810E-009  0.2755624E+03  0.7561462E-02  0.1098138E+00
         -1   -1    0    0    0  501 -0.00000000000E+00  0.00000000000E+00  0.35374938878E+03  0.35374938878E+03  0.00000000000E+00 0.  1.
          1   -1    0    0  501    0  0.00000000000E+00 -0.00000000000E+00 -0.24099073203E+03  0.24099073203E+03  0.00000000000E+00 0. -1.
         25    2    1    2    0    0 -0.17393719012E+03 -0.18701236479E+03  0.14868156918E+03  0.32090649138E+03  0.12508795507E+03 0.  0.
          5    1    3    3  502    0 -0.12944655943E+03 -0.50489140794E+02  0.90788267305E+02  0.16602875343E+03  0.41800000000E+01 0. -1.
         -5    1    3    3    0  502 -0.44490630697E+02 -0.13652322400E+03  0.57893301879E+02  0.15487773795E+03  0.41800000000E+01 0. -1.
        -11    1    1    2    0    0  0.41078538849E+02  0.10396939015E+03 -0.35044430943E+02  0.11715456706E+03  0.00000000000E+00 0. -1.
         11    1    1    2    0    0  0.13285865127E+03  0.83042974640E+02 -0.87848149186E+00  0.15667906237E+03  0.00000000000E+00 0.  1.
</event>
<event>
 7    1  0.2899775E-009  0.1711178E+03  0.7561462E-02  0.1176687E+00
         -2   -1    0    0    0  501 -0.00000000000E+00  0.00000000000E+00  0.42833416218E+03  0.42833416218E+03  0.00000000000E+00 0. -1.
          2   -1    0    0  501    0  0.00000000000E+00 -0.00000000000E+00 -0.81492805973E+02  0.81492805973E+02  0.00000000000E+00 0.  1.
         25    2    1    2    0    0  0.14529209465E+03  0.24984078342E+02  0.13253144553E+03  0.23440282394E+03  0.12508438303E+03 0.  0.
          5    1    3    3  502    0  0.11831556069E+03  0.69973931225E+02  0.75825964280E+02  0.15704130734E+03  0.41800000000E+01 0. -1.
         -5    1    3    3    0  502  0.26976533963E+02 -0.44989852883E+02  0.56705481250E+02  0.77361516602E+02  0.41800000000E+01 0. -1.
        -11    1    1    2    0    0 -0.10649600330E+03 -0.10437883440E+01  0.78891581880E+02  0.13253818282E+03  0.00000000000E+00 0.  1.
         11    1    1    2    0    0 -0.38796091345E+02 -0.23940289998E+02  0.13541832880E+03  0.14288596139E+03  0.00000000000E+00 0. -1.
</event>
<event>
 7    1  0.2899775E-009  0.1296604E+03  0.7561462E-02  0.1227961E+00
          1   -1    0    0  501    0  0.00000000000E+00  0.00000000000E+00  0.29045554804E+03  0.29045554804E+03  0.00000000000E+00 0. -1.
         -1   -1    0    0    0  501 -0.00000000000E+00 -0.00000000000E+00 -0.89901204597E+02  0.89901204597E+02  0.00000000000E+00 0.  1.
         25    2    1    2    0    0 -0.54384897020E+01 -0.11280552735E+03  0.62794016599E+02  0.17984691957E+03  0.12508861573E+03 0.  0.
          5    1    3    3  502    0  0.21729326541E+02 -0.85222395475E+02  0.94843475278E+02  0.12941320460E+03  0.41800000000E+01 0. -1.
         -5    1    3    3    0  502 -0.27167816243E+02 -0.27583131875E+02 -0.32049458679E+02  0.50433714964E+02  0.41800000000E+01 0. -1.
        -11    1    1    2    0    0 -0.31414791536E+02  0.62732091592E+02  0.30432495360E+02  0.76474448129E+02  0.00000000000E+00 0.  1.
         11    1    1    2    0    0  0.36853281238E+02  0.50073435758E+02  0.10732783148E+03  0.12403538494E+03  0.00000000000E+00 0. -1.
</event>
<event>
 7    1  0.2899775E-009  0.9493142E+02  0.7561462E-02  0.1291331E+00
          2   -1    0    0  501    0  0.00000000000E+00  0.00000000000E+00  0.13998631882E+03  0.13998631882E+03  0.00000000000E+00 0. -1.
         -2   -1    0    0    0  501 -0.00000000000E+00 -0.00000000000E+00 -0.11037986776E+03  0.11037986776E+03  0.00000000000E+00 0.  1.
         25    2    1    2    0    0 -0.85132456791E+01 -0.31836148827E+02  0.70354083915E+02  0.14725383342E+03  0.12509188067E+03 0.  0.
          5    1    3    3  502    0 -0.52950872203E+02  0.75715159375E+01  0.69379643906E+02  0.87704789545E+02  0.41800000000E+01 0.  1.
         -5    1    3    3    0  502  0.44437626524E+02 -0.39407664765E+02  0.97444000899E+00  0.59549043876E+02  0.41800000000E+01 0.  1.
        -11    1    1    2    0    0 -0.58748916052E+01  0.51760503882E+02 -0.54133314307E+02  0.75127091195E+02  0.00000000000E+00 0.  1.
         11    1    1    2    0    0  0.14388137284E+02 -0.19924355055E+02  0.13385681456E+02  0.27985261959E+02  0.00000000000E+00 0. -1.
</event>
<event>
 7    1  0.2899775E-009  0.9876216E+02  0.7561462E-02  0.1282921E+00
          1   -1    0    0  501    0  0.00000000000E+00  0.00000000000E+00  0.10456098095E+04  0.10456098095E+04  0.00000000000E+00 0. -1.
         -1   -1    0    0    0  501 -0.00000000000E+00 -0.00000000000E+00 -0.17630759186E+02  0.17630759186E+02  0.00000000000E+00 0.  1.
         25    2    1    2    0    0 -0.33872857118E+02 -0.68796248852E+02  0.61341897283E+03  0.63072261834E+03  0.12509152950E+03 0.  0.
          5    1    3    3  502    0 -0.30494938176E+02 -0.25644862710E+02  0.56180815384E+03  0.56323483057E+03  0.41800000000E+01 0.  1.
         -5    1    3    3    0  502 -0.33779189418E+01 -0.43151386142E+02  0.51610818991E+02  0.67487787779E+02  0.41800000000E+01 0.  1.
        -11    1    1    2    0    0  0.51942602539E+02  0.77988347793E+02  0.38771684970E+03  0.39887914447E+03  0.00000000000E+00 0. -1.
         11    1    1    2    0    0 -0.18069745421E+02 -0.91920989410E+01  0.26843227741E+02  0.33638805836E+02  0.00000000000E+00 0.  1.
</event>
<event>
 7    1  0.2899775E-009  0.1383644E+03  0.7561462E-02  0.1215547E+00
          3   -1    0    0  501    0  0.00000000000E+00  0.00000000000E+00  0.72359914905E+02  0.72359914905E+02  0.00000000000E+00 0. -1.
         -3   -1    0    0    0  501 -0.00000000000E+00 -0.00000000000E+00 -0.61004138419E+03  0.61004138419E+03  0.00000000000E+00 0.  1.
         25    2    1    2    0    0 -0.10912797807E+02  0.11670432170E+03 -0.50130661695E+03  0.52980679666E+03  0.12509168527E+03 0.  0.
          5    1    3    3  502    0  0.22939338949E+02  0.64228228060E+02 -0.86145529536E+02  0.10995455066E+03  0.41800000000E+01 0. -1.
         -5    1    3    3    0  502 -0.33852136757E+02  0.52476093640E+02 -0.41516108742E+03  0.41985224600E+03  0.41800000000E+01 0. -1.
        -11    1    1    2    0    0 -0.37861163258E+02 -0.41499915378E+02 -0.27425393249E+02  0.62512901505E+02  0.00000000000E+00 0.  1.
         11    1    1    2    0    0  0.48773961065E+02 -0.75204406322E+02 -0.89494590797E+01  0.90081600930E+02  0.00000000000E+00 0. -1.
</event>
<event>
 7    1  0.2899775E-009  0.1275979E+03  0.7561462E-02  0.1231064E+00
          1   -1    0    0  501    0  0.00000000000E+00  0.00000000000E+00  0.46976539062E+02  0.46976539062E+02  0.00000000000E+00 0. -1.
         -1   -1    0    0    0  501 -0.00000000000E+00 -0.00000000000E+00 -0.37069411939E+03  0.37069411939E+03  0.00000000000E+00 0.  1.
         25    2    1    2    0    0  0.55645365020E+02 -0.42161647722E+02 -0.22065338168E+03  0.26305364177E+03  0.12504116288E+03 0.  0.
          5    1    3    3  502    0  0.70579679640E+02  0.23429722699E+02 -0.97895149433E+02  0.12300965721E+03  0.41800000000E+01 0. -1.
         -5    1    3    3    0  502 -0.14934314620E+02 -0.65591370421E+02 -0.12275823225E+03  0.14004398456E+03  0.41800000000E+01 0. -1.
        -11    1    1    2    0    0 -0.38014530812E+01 -0.26781960862E+02 -0.37640177939E+02  0.46351995301E+02  0.00000000000E+00 0. -1.
         11    1    1    2    0    0 -0.51843911939E+02  0.68943608584E+02 -0.65424020711E+02  0.10826502139E+03  0.00000000000E+00 0.  1.
</event>
<event>
 7    1  0.2899775E-009  0.1315473E+03  0.7561462E-02  0.1225178E+00
          2   -1    0    0  501    0  0.00000000000E+00  0.00000000000E+00  0.13479235900E+03  0.13479235900E+03  0.00000000000E+00 0. -1.
         -2   -1    0    0    0  501 -0.00000000000E+00 -0.00000000000E+00 -0.17086709749E+03  0.17086709749E+03  0.00000000000E+00 0.  1.
         25    2    1    2    0    0  0.73164048570E+02  0.71550730269E+02 -0.44280709681E+02  0.16757919400E+03  0.12509804157E+03 0.  0.
          5    1    3    3  502    0  0.16520954801E+02  0.96570408340E+02 -0.15934660164E+02  0.99348736827E+02  0.41800000000E+01 0.  1.
         -5    1    3    3    0  502  0.56643093769E+02 -0.25019678071E+02 -0.28346049517E+02  0.68230457171E+02  0.41800000000E+01 0.  1.
        -11    1    1    2    0    0 -0.27925619480E+02 -0.35218904607E+02  0.49502110849E+02  0.66863072347E+02  0.00000000000E+00 0. -1.
         11    1    1    2    0    0 -0.45238429090E+02 -0.36331825662E+02 -0.41296139652E+02  0.71217190148E+02  0.00000000000E+00 0.  1.
</event>
<event>
 7    1  0.2899775E-009  0.4650534E+02  0.7561462E-02  0.1465157E+00
         -2   -1    0    0    0  501 -0.00000000000E+00  0.00000000000E+00  0.21842875442E+02  0.21842875442E+02  0.00000000000E+00 0. -1.
          2   -1    0    0  501    0  0.00000000000E+00 -0.00000000000E+00 -0.76227097339E+03  0.76227097339E+03  0.00000000000E+00 0.  1.
         25    2    1    2    0    0  0.26734288991E+02  0.10647875604E+02 -0.60610246612E+03  0.61954804755E+03  0.12510589241E+03 0.  0.
          5    1    3    3  502    0  0.10331788272E+01 -0.14661056368E+02 -0.56292030938E+03  0.56312765972E+03  0.41800000000E+01 0. -1.
         -5    1    3    3    0  502  0.25701110164E+02  0.25308931973E+02 -0.43182156742E+02  0.56420387824E+02  0.41800000000E+01 0. -1.
        -11    1    1    2    0    0 -0.10114654772E+02  0.10461596467E+02  0.10067266806E+02  0.17694663114E+02  0.00000000000E+00 0. -1.
         11    1    1    2    0    0 -0.16619634219E+02 -0.21109472071E+02 -0.14439289863E+03  0.14687113817E+03  0.00000000000E+00 0.  1.
</event>
<event>
 7    1  0.2899775E-009  0.1782381E+03  0.7561462E-02  0.1169519E+00
          2   -1    0    0  501    0  0.00000000000E+00  0.00000000000E+00  0.30461144991E+03  0.30461144991E+03  0.00000000000E+00 0. -1.
         -2   -1    0    0    0  501 -0.00000000000E+00 -0.00000000000E+00 -0.13344730367E+03  0.13344730367E+03  0.00000000000E+00 0.  1.
         25    2    1    2    0    0 -0.15925803913E+03 -0.44787930474E+02  0.11529743155E+03  0.23729783266E+03  0.12509069477E+03 0.  0.
          5    1    3    3  502    0 -0.13111554143E+03 -0.34600264429E+02  0.19766438587E+02  0.13710086797E+03  0.41800000000E+01 0.  1.
         -5    1    3    3    0  502 -0.28142497696E+02 -0.10187666045E+02  0.95530992964E+02  0.10019696469E+03  0.41800000000E+01 0.  1.
        -11    1    1    2    0    0  0.14990630222E+03  0.68709662362E+02  0.37301160347E+02  0.16906890226E+03  0.00000000000E+00 0.  1.
         11    1    1    2    0    0  0.93517369004E+01 -0.23921731888E+02  0.18565554342E+02  0.31692018673E+02  0.00000000000E+00 0. -1.
</event>
<event>
 7    1  0.2899775E-009  0.1346987E+03  0.7561462E-02  0.1220646E+00
         -1   -1    0    0    0  501 -0.00000000000E+00  0.00000000000E+00  0.42116854602E+02  0.42116854602E+02  0.00000000000E+00 0.  1.
          1   -1    0    0  501    0  0.00000000000E+00 -0.00000000000E+00 -0.57735362378E+03  0.57735362378E+03  0.00000000000E+00 0. -1.
         25    2    1    2    0    0 -0.22582165441E+02  0.10480021148E+03 -0.34540377014E+03  0.38266124676E+03  0.12503130337E+03 0.  0.
          5    1    3    3  502    0 -0.57265936226E+02  0.10396466581E+03 -0.31388183333E+03  0.33559993576E+03  0.41800000000E+01 0.  1.
         -5    1    3    3    0  502  0.34683770785E+02  0.83554566749E+00 -0.31521936808E+02  0.47061310995E+02  0.41800000000E+01 0.  1.
        -11    1    1    2    0    0  0.35479646135E+02 -0.68144514297E+02 -0.18146707833E+03  0.19706034770E+03  0.00000000000E+00 0. -1.
         11    1    1    2    0    0 -0.12897480695E+02 -0.36655697180E+02 -0.83659207113E+01  0.39748883926E+02  0.00000000000E+00 0.  1.
</event>
<event>
 7    1  0.2899775E-009  0.1391629E+03  0.7561462E-02  0.1214460E+00
         -2   -1    0    0    0  501 -0.00000000000E+00  0.00000000000E+00  0.16277275020E+02  0.16277275020E+02  0.00000000000E+00 0.  1.
          2   -1    0    0  501    0  0.00000000000E+00 -0.00000000000E+00 -0.13825690388E+04  0.13825690388E+04  0.00000000000E+00 0. -1.
         25    2    1    2    0    0 -0.27514899084E+02  0.96296798563E+02 -0.87888077264E+03  0.89336980436E+03  0.12509217293E+03 0.  0.
          5    1    3    3  502    0 -0.52516551783E+02  0.60324801721E+01 -0.16381114263E+03  0.17217996945E+03  0.41800000000E+01 0. -1.
         -5    1    3    3    0  502  0.25001652699E+02  0.90264318391E+02 -0.71506963001E+03  0.72118983491E+03  0.41800000000E+01 0. -1.
        -11    1    1    2    0    0 -0.26386738284E+02 -0.62705039510E+02 -0.29925140775E+03  0.30688692865E+03  0.00000000000E+00 0. -1.
         11    1    1    2    0    0  0.53901637369E+02 -0.33591759053E+02 -0.18815958340E+03  0.19858958083E+03  0.00000000000E+00 0.  1.
</event>
<event>
 7    1  0.2899775E-009  0.1214299E+03  0.7561462E-02  0.1240757E+00
          1   -1    0    0  501    0  0.00000000000E+00  0.00000000000E+00  0.78225024723E+02  0.78225024723E+02  0.00000000000E+00 0. -1.
         -1   -1    0    0    0  501 -0.00000000000E+00 -0.00000000000E+00 -0.37243487349E+03  0.37243487349E+03  0.00000000000E+00 0.  1.
         25    2    1    2    0    0 -0.73004995758E+02 -0.50552915823E+02 -0.28450879833E+03  0.32322849384E+03  0.12508427637E+03 0.  0.
          5    1    3    3  502    0 -0.43590212057E+01 -0.78411215879E+02 -0.13263222849E+03  0.15419500730E+03  0.41800000000E+01 0.  1.
         -5    1    3    3    0  502 -0.68645974552E+02  0.27858300056E+02 -0.15187656984E+03  0.16903348654E+03  0.41800000000E+01 0.  1.
        -11    1    1    2    0    0  0.35481677719E+02  0.15690533722E+02 -0.49267998305E+02  0.62709472644E+02  0.00000000000E+00 0.  1.
         11    1    1    2    0    0  0.37523318039E+02  0.34862382101E+02  0.39566947875E+02  0.64721931728E+02  0.00000000000E+00 0. -1.
</event>
<event>
 7    1  0.2899775E-009  0.9049725E+02  0.7561462E-02  0.1301652E+00
          4   -1    0    0  501    0  0.00000000000E+00  0.00000000000E+00  0.31856905943E+02  0.31856905943E+02  0.00000000000E+00 0. -1.
         -4   -1    0    0    0  501 -0.00000000000E+00 -0.00000000000E+00 -0.41126323052E+03  0.41126323052E+03  0.00000000000E+00 0.  1.
         25    2    1    2    0    0 -0.18910484178E+02 -0.21479585950E+02 -0.16717357822E+03  0.21074346325E+03  0.12508726164E+03 0.  0.
          5    1    3    3  502    0 -0.94611177464E+01 -0.52704422590E+02 -0.16012896702E+02  0.56046000485E+02  0.41800000000E+01 0.  1.
         -5    1    3    3    0  502 -0.94493664319E+01  0.31224836641E+02 -0.15116068152E+03  0.15469746276E+03  0.41800000000E+01 0.  1.
        -11    1    1    2    0    0  0.25750224939E+02  0.54710361777E+02 -0.14377642254E+03  0.15597422046E+03  0.00000000000E+00 0.  1.
         11    1    1    2    0    0 -0.68397407607E+01 -0.33230775828E+02 -0.68456323819E+02  0.76402452752E+02  0.00000000000E+00 0. -1.
</event>
<event>
 7    1  0.2899775E-009  0.1116195E+03  0.7561462E-02  0.1257600E+00
         -1   -1    0    0    0  501 -0.00000000000E+00  0.00000000000E+00  0.18822653907E+02  0.18822653907E+02  0.00000000000E+00 0.  1.
          1   -1    0    0  501    0  0.00000000000E+00 -0.00000000000E+00 -0.20399958209E+04  0.20399958209E+04  0.00000000000E+00 0. -1.
         25    2    1    2    0    0 -0.70405586560E+02 -0.16219531568E+02 -0.18822112678E+04  0.18877463852E+04  0.12508852291E+03 0.  0.
          5    1    3    3  502    0 -0.98154807876E+02 -0.19171233024E+02 -0.98100159609E+03  0.98609507981E+03  0.41800000000E+01 0. -1.
         -5    1    3    3    0  502  0.27749221316E+02  0.29517014555E+01 -0.90120967167E+03  0.90165130540E+03  0.41800000000E+01 0. -1.
        -11    1    1    2    0    0  0.11008981627E+02 -0.21786338010E+02 -0.15570886406E+02  0.28953319392E+02  0.00000000000E+00 0.  1.
         11    1    1    2    0    0  0.59396604933E+02  0.38005869578E+02 -0.12339101286E+03  0.14211877024E+03  0.00000000000E+00 0. -1.
</event>
<event>
 7    1  0.2899775E-009  0.2089385E+03  0.7561462E-02  0.1142409E+00
          2   -1    0    0  501    0  0.00000000000E+00  0.00000000000E+00  0.26520312395E+03  0.26520312395E+03  0.00000000000E+00 0. -1.
         -2   -1    0    0    0  501 -0.00000000000E+00 -0.00000000000E+00 -0.20017172794E+03  0.20017172794E+03  0.00000000000E+00 0.  1.
         25    2    1    2    0    0 -0.64063250211E+02  0.17535880111E+03 -0.47526255288E+02  0.22969560585E+03  0.12508603938E+03 0.  0.
          5    1    3    3  502    0 -0.18428279630E+02  0.16352874730E+03 -0.28949658508E+01  0.16464235758E+03  0.41800000000E+01 0. -1.
         -5    1    3    3    0  502 -0.45634970581E+02  0.11830053816E+02 -0.44631289437E+02  0.65053248267E+02  0.41800000000E+01 0. -1.
        -11    1    1    2    0    0  0.85219681318E+02 -0.12475454077E+03  0.93187825975E+02  0.17751073330E+03  0.00000000000E+00 0.  1.
         11    1    1    2    0    0 -0.21156431107E+02 -0.50604260345E+02  0.19369825321E+02  0.58168512748E+02  0.00000000000E+00 0. -1.
</event>
<event>
 7    1  0.2899775E-009  0.9582856E+02  0.7561462E-02  0.1289321E+00
         -1   -1    0    0    0  501 -0.00000000000E+00  0.00000000000E+00  0.15454415721E+02  0.15454415721E+02  0.00000000000E+00 0.  1.
          1   -1    0    0  501    0  0.00000000000E+00 -0.00000000000E+00 -0.10666131106E+04  0.10666131106E+04  0.00000000000E+00 0. -1.
         25    2    1    2    0    0  0.91897608954E+01 -0.67635408714E+02 -0.63872764456E+03  0.65443079841E+03  0.12509063023E+03 0.  0.
          5    1    3    3  502    0 -0.14469364885E+02 -0.36172359150E+02 -0.59154216130E+03  0.59283842915E+03  0.41800000000E+01 0.  1.
         -5    1    3    3    0  502  0.23659125780E+02 -0.31463049564E+02 -0.47185483257E+02  0.61592369257E+02  0.41800000000E+01 0.  1.
        -11    1    1    2    0    0 -0.31297035028E+02  0.81150253742E+02 -0.30874478429E+03  0.32076192091E+03  0.00000000000E+00 0. -1.
         11    1    1    2    0    0  0.22107274133E+02 -0.13514845028E+02 -0.10368626600E+03  0.10687480696E+03  0.00000000000E+00 0.  1.
</event>
<event>
 7    1  0.2899775E-009  0.1261654E+03  0.7561462E-02  0.1233259E+00
          1   -1    0    0  501    0  0.00000000000E+00  0.00000000000E+00  0.23128488577E+03  0.23128488577E+03  0.00000000000E+00 0. -1.
         -1   -1    0    0    0  501 -0.00000000000E+00 -0.00000000000E+00 -0.96909117043E+02  0.96909117043E+02  0.00000000000E+00 0.  1.
         25    2    1    2    0    0 -0.98687028494E+02 -0.26753946946E+02  0.61222705341E+02  0.17277516902E+03  0.12509251020E+03 0.  0.
          5    1    3    3  502    0 -0.48002052232E+02 -0.43749872266E+02 -0.26248611320E+02  0.70176280451E+02  0.41800000000E+01 0.  1.
         -5    1    3    3    0  502 -0.50684976263E+02  0.16995925320E+02  0.87471316661E+02  0.10259888856E+03  0.41800000000E+01 0.  1.
        -11    1    1    2    0    0  0.63520240459E+01  0.39862682741E+02  0.67328459497E+01  0.40923256217E+02  0.00000000000E+00 0.  1.
         11    1    1    2    0    0  0.92335004449E+02 -0.13108735796E+02  0.66420217432E+02  0.11449557758E+03  0.00000000000E+00 0. -1.
</event>
<event>
 7    1  0.2899775E-009  0.9362512E+02  0.7561462E-02  0.1294303E+00
         -2   -1    0    0    0  501 -0.00000000000E+00  0.00000000000E+00  0.30325754832E+02  0.30325754832E+02  0.00000000000E+00 0.  1.
          2   -1    0    0  501    0  0.00000000000E+00 -0.00000000000E+00 -0.43765947472E+03  0.43765947472E+03  0.00000000000E+00 0. -1.
         25    2    1    2    0    0 -0.33518842099E+02 -0.61749888151E+00 -0.19525336533E+03  0.23431629634E+03  0.12512536105E+03 0.  0.
          5    1    3    3  502    0 -0.64605788766E+02 -0.58858748764E+01 -0.41088007861E+02  0.76904149791E+02  0.41800000000E+01 0. -1.
         -5    1    3    3    0  502  0.31086946667E+02  0.52683759949E+01 -0.15416535747E+03  0.15741214655E+03  0.41800000000E+01 0. -1.
        -11    1    1    2    0    0  0.52336808984E+02  0.26319290606E+02 -0.89124032181E+02  0.10665336256E+03  0.00000000000E+00 0. -1.
         11    1    1    2    0    0 -0.18817966885E+02 -0.25701791724E+02 -0.12295632238E+03  0.12701557065E+03  0.00000000000E+00 0.  1.
</event>
<event>
 7    1  0.2899775E-009  0.1333007E+03  0.7561462E-02  0.1222639E+00
          2   -1    0    0  501    0  0.00000000000E+00  0.00000000000E+00  0.10712054778E+03  0.10712054778E+03  0.00000000000E+00 0. -1.
         -2   -1    0    0    0  501 -0.00000000000E+00 -0.00000000000E+00 -0.22286447458E+03  0.22286447458E+03  0.00000000000E+00 0.  1.
         25    2    1    2    0    0  0.24278817042E+02 -0.11077330420E+03 -0.72832151175E+02  0.18388024848E+03  0.12508891900E+03 0.  0.
          5    1    3    3  502    0  0.57968020717E+02 -0.67912094858E+02  0.41207881700E+01  0.89480709368E+02  0.41800000000E+01 0. -1.
         -5    1    3    3    0  502 -0.33689203675E+02 -0.42861209347E+02 -0.76952939345E+02  0.94399539114E+02  0.41800000000E+01 0. -1.
        -11    1    1    2    0    0  0.10439849871E+02  0.60795815480E+02 -0.56614525279E+02  0.83727690269E+02  0.00000000000E+00 0.  1.
         11    1    1    2    0    0 -0.34718666913E+02  0.49977488724E+02  0.13702749661E+02  0.62377083610E+02  0.00000000000E+00 0. -1.
</event>
<event>
 7    1  0.2899775E-009  0.1662145E+03  0.7561462E-02  0.1181854E+00
         -4   -1    0    0    0  501 -0.00000000000E+00  0.00000000000E+00  0.95505359317E+03  0.95505359317E+03  0.00000000000E+00 0.  1.
          4   -1    0    0  501    0  0.00000000000E+00 -0.00000000000E+00 -0.35777471436E+02  0.35777471436E+02  0.00000000000E+00 0. -1.
         25    2    1    2    0    0 -0.13954526775E+03  0.26934352398E+02  0.36215445397E+03  0.40865695076E+03  0.12508522606E+03 0.  0.
          5    1    3    3  502    0 -0.15473959850E+02  0.44852002121E+02  0.18860995837E+03  0.19453106262E+03  0.41800000000E+01 0. -1.
         -5    1    3    3    0  502 -0.12407130790E+03 -0.17917649722E+02  0.17354449560E+03  0.21412588814E+03  0.41800000000E+01 0. -1.
        -11    1    1    2    0    0  0.11327813127E+03  0.10364271593E+02  0.47292506697E+03  0.48641286179E+03  0.00000000000E+00 0.  1.
         11    1    1    2    0    0  0.26267136483E+02 -0.37298623992E+02  0.84196600788E+02  0.95761252054E+02  0.00000000000E+00 0. -1.
</event>
<event>
 7    1  0.2899775E-009  0.9053631E+02  0.7561462E-02  0.1301558E+00
         -2   -1    0    0    0  501 -0.00000000000E+00  0.00000000000E+00  0.38195690729E+03  0.38195690729E+03  0.00000000000E+00 0.  1.
          2   -1    0    0  501    0  0.00000000000E+00 -0.00000000000E+00 -0.40942747182E+02  0.40942747182E+02  0.00000000000E+00 0. -1.
         25    2    1    2    0    0 -0.48149954958E+02 -0.12474383863E+02  0.25147856130E+03  0.28524182953E+03  0.12508959232E+03 0.  0.
          5    1    3    3  502    0 -0.60659977030E+02 -0.25638736627E+02  0.49715756599E+02  0.82620254679E+02  0.41800000000E+01 0.  1.
         -5    1    3    3    0  502  0.12510022072E+02  0.13164352764E+02  0.20176280470E+03  0.20262157485E+03  0.41800000000E+01 0.  1.
        -11    1    1    2    0    0 -0.15172748925E+02  0.27463941834E+02  0.56623326689E+02  0.64735473555E+02  0.00000000000E+00 0.  1.
         11    1    1    2    0    0  0.63322703884E+02 -0.14989557971E+02  0.32912272122E+02  0.72922351385E+02  0.00000000000E+00 0. -1.
</event>
<event>
 7    1  0.2899775E-009  0.2029456E+03  0.7561462E-02  0.1147277E+00
         -1   -1    0    0    0  501 -0.00000000000E+00  0.00000000000E+00  0.39133186193E+03  0.39133186193E+03  0.00000000000E+00 0.  1.
          1   -1    0    0  501    0  0.00000000000E+00 -0.00000000000E+00 -0.14125779003E+03  0.14125779003E+03  0.00000000000E+00 0. -1.
         25    2    1    2    0    0  0.16482009496E+03  0.66326965803E+02  0.59403206404E+01  0.21737609210E+03  0.12510854452E+03 0.  0.
          5    1    3    3  502    0  0.45282874516E+02  0.76278698250E+02  0.32290540094E+02  0.94494073416E+02  0.41800000000E+01 0. -1.
         -5    1    3    3    0  502  0.11953722045E+03 -0.99517324464E+01 -0.26350219454E+02  0.12288201868E+03  0.41800000000E+01 0. -1.
        -11    1    1    2    0    0 -0.78445001334E+02  0.13322781598E+02  0.12272114119E+03  0.14625865184E+03  0.00000000000E+00 0.  1.
         11    1    1    2    0    0 -0.86375093627E+02 -0.79649747401E+02  0.12141261007E+03  0.16895490802E+03  0.00000000000E+00 0. -1.
</event>
<event>
 7    1  0.4317836E-009  0.9381154E+02  0.7561462E-02  0.1293875E+00
         -2   -1    0    0    0  501 -0.00000000000E+00  0.00000000000E+00  0.45167657697E+02  0.45167657697E+02  0.00000000000E+00 0.  1.
          2   -1    0    0  501    0  0.00000000000E+00 -0.00000000000E+00 -0.36884069087E+03  0.36884069087E+03  0.00000000000E+00 0. -1.
         25    2    1    2    0    0  0.64060072258E+02  0.18491955585E+02 -0.20576187806E+03  0.24986685232E+03  0.12509935310E+03 0.  0.
          5    1    3    3  502    0  0.83802921275E+02  0.28699880948E+02 -0.20898627717E+03  0.22702279451E+03  0.41800000000E+01 0.  1.
         -5    1    3    3    0  502 -0.19742849018E+02 -0.10207925363E+02  0.32243991139E+01  0.22844057809E+02  0.41800000000E+01 0.  1.
        -11    1    1    2    0    0 -0.82900659145E+01 -0.18811431755E+02  0.11264150050E+02  0.23440909408E+02  0.00000000000E+00 0. -1.
         11    1    1    2    0    0 -0.55770006343E+02  0.31947616951E+00 -0.12917530517E+03  0.14070058684E+03  0.00000000000E+00 0.  1.
</event>
<event>
 7    1  0.2899775E-009  0.8213532E+02  0.7561462E-02  0.1323099E+00
         -4   -1    0    0    0  501 -0.00000000000E+00  0.00000000000E+00  0.11435045597E+03  0.11435045597E+03  0.00000000000E+00 0. -1.
          4   -1    0    0  501    0  0.00000000000E+00 -0.00000000000E+00 -0.11781551247E+03  0.11781551247E+03  0.00000000000E+00 0.  1.
         25    2    1    2    0    0  0.14822934199E+02  0.35407462785E+02 -0.14026015797E+02  0.13159417292E+03  0.12508752707E+03 0.  0.
          5    1    3    3  502    0  0.41118184881E+01 -0.23058964516E+02  0.42982982193E+02  0.49128729416E+02  0.41800000000E+01 0. -1.
         -5    1    3    3    0  502  0.10711115711E+02  0.58466427301E+02 -0.57008997991E+02  0.82465443508E+02  0.41800000000E+01 0. -1.
        -11    1    1    2    0    0 -0.28653908518E+02 -0.51950342950E+02 -0.20490698741E+02  0.62767454472E+02  0.00000000000E+00 0.  1.
         11    1    1    2    0    0  0.13830974319E+02  0.16542880166E+02  0.31051658038E+02  0.37804341043E+02  0.00000000000E+00 0. -1.
</event>
<event>
 7    1  0.2899775E-009  0.1318563E+03  0.7561462E-02  0.1224727E+00
         -2   -1    0    0    0  501 -0.00000000000E+00  0.00000000000E+00  0.52384836301E+02  0.52384836301E+02  0.00000000000E+00 0.  1.
          2   -1    0    0  501    0  0.00000000000E+00 -0.00000000000E+00 -0.48928973191E+03  0.48928973191E+03  0.00000000000E+00 0. -1.
         25    2    1    2    0    0  0.86990593706E+02  0.46002586496E+02 -0.34257972924E+03  0.37774478787E+03  0.12508658009E+03 0.  0.
          5    1    3    3  502    0  0.52836076656E+02 -0.38147918683E+02 -0.17989164045E+03  0.19137760946E+03  0.41800000000E+01 0.  1.
         -5    1    3    3    0  502  0.34154517050E+02  0.84150505179E+02 -0.16268808878E+03  0.18636717841E+03  0.41800000000E+01 0.  1.
        -11    1    1    2    0    0 -0.81940625342E+02 -0.24669051257E+02 -0.22001814586E+02  0.88356708950E+02  0.00000000000E+00 0.  1.
         11    1    1    2    0    0 -0.50499683638E+01 -0.21333535239E+02 -0.72323351789E+02  0.75573071396E+02  0.00000000000E+00 0. -1.
</event>
<event>
 7    1  0.2899775E-009  0.1536680E+03  0.7561462E-02  0.1196037E+00
         -2   -1    0    0    0  501 -0.00000000000E+00  0.00000000000E+00  0.57693710331E+02  0.57693710331E+02  0.00000000000E+00 0.  1.
          2   -1    0    0  501    0  0.00000000000E+00 -0.00000000000E+00 -0.49299381779E+03  0.49299381779E+03  0.00000000000E+00 0. -1.
         25    2    1    2    0    0 -0.77797015964E+01 -0.12702045835E+03 -0.34739926093E+03  0.39054877371E+03  0.12508947821E+03 0.  0.
          5    1    3    3  502    0  0.57951441190E+02 -0.72164606454E+02 -0.18628788630E+03  0.20805467777E+03  0.41800000000E+01 0. -1.
         -5    1    3    3    0  502 -0.65731142786E+02 -0.54855851896E+02 -0.16111137463E+03  0.18249409594E+03  0.41800000000E+01 0. -1.
        -11    1    1    2    0    0  0.14401004982E+02  0.10485054554E+03 -0.53257908264E+02  0.11847966339E+03  0.00000000000E+00 0.  1.
         11    1    1    2    0    0 -0.66213033853E+01  0.22169912807E+02 -0.34642938263E+02  0.41659091011E+02  0.00000000000E+00 0. -1.
</event>
<event>
 7    1  0.2899775E-009  0.7566791E+02  0.7561462E-02  0.1341815E+00
         -1   -1    0    0    0  501 -0.00000000000E+00  0.00000000000E+00  0.47567836641E+03  0.47567836641E+03  0.00000000000E+00 0.  1.
          1   -1    0    0  501    0  0.00000000000E+00 -0.00000000000E+00 -0.25886111434E+02  0.25886111434E+02  0.00000000000E+00 0. -1.
         25    2    1    2    0    0  0.86027141992E+01 -0.11494147217E+02  0.30317646419E+03  0.32828348100E+03  0.12509177970E+03 0.  0.
          5    1    3    3  502    0 -0.34085390630E+01 -0.36311981532E+02  0.16489970285E+02  0.40243877314E+02  0.41800000000E+01 0.  1.
         -5    1    3    3    0  502  0.12011253262E+02  0.24817834315E+02  0.28668649391E+03  0.28803960369E+03  0.41800000000E+01 0.  1.
        -11    1    1    2    0    0 -0.47262742440E+02  0.78086651115E+01  0.50450212268E+02  0.69569864105E+02  0.00000000000E+00 0. -1.
         11    1    1    2    0    0  0.38660028240E+02  0.36854821051E+01  0.96165578513E+02  0.10371113273E+03  0.00000000000E+00 0.  1.
</event>
<event>
 7    1  0.2899775E-009  0.1170825E+03  0.7561462E-02  0.1247989E+00
         -1   -1    0    0    0  501 -0.00000000000E+00  0.00000000000E+00  0.49510730685E+02  0.49510730685E+02  0.00000000000E+00 0.  1.
          1   -1    0    0  501    0  0.00000000000E+00 -0.00000000000E+00 -0.45508411166E+03  0.45508411166E+03  0.00000000000E+00 0. -1.
         25    2    1    2    0    0  0.86303210897E+02 -0.24238122875E+02 -0.13291271382E+03  0.20334496205E+03  0.12509058031E+03 0.  0.
          5    1    3    3  502    0 -0.66872257917E+01 -0.41795619399E+02 -0.31005103756E+01  0.42645965277E+02  0.41800000000E+01 0.  1.
         -5    1    3    3    0  502  0.92990436689E+02  0.17557496525E+02 -0.12981220345E+03  0.16069899677E+03  0.41800000000E+01 0.  1.
        -11    1    1    2    0    0 -0.32001908218E+02 -0.89954975348E+01 -0.16151466887E+02  0.36958233022E+02  0.00000000000E+00 0.  1.
         11    1    1    2    0    0 -0.54301302679E+02  0.33233620409E+02 -0.25650920027E+03  0.26429164728E+03  0.00000000000E+00 0. -1.
</event>
<event>
 7    1  0.2899775E-009  0.1182471E+03  0.7561462E-02  0.1246017E+00
         -2   -1    0    0    0  501 -0.00000000000E+00  0.00000000000E+00  0.32701894700E+02  0.32701894700E+02  0.00000000000E+00 0. -1.
          2   -1    0    0  501    0  0.00000000000E+00 -0.00000000000E+00 -0.48028312781E+03  0.48028312781E+03  0.00000000000E+00 0.  1.
         25    2    1    2    0    0  0.59395987435E+02  0.15330819104E+00 -0.21413149372E+03  0.25500362952E+03  0.12508656058E+03 0.  0.
          5    1    3    3  502    0  0.75503376679E+02 -0.42717927193E+02 -0.17177104430E+03  0.19247946709E+03  0.41800000000E+01 0.  1.
         -5    1    3    3    0  502 -0.16107389243E+02  0.42871235384E+02 -0.42360449421E+02  0.62524162423E+02  0.41800000000E+01 0.  1.
        -11    1    1    2    0    0  0.18315702244E+02 -0.16029021619E+02 -0.98369864169E+02  0.10133619620E+03  0.00000000000E+00 0.  1.
         11    1    1    2    0    0 -0.77711689679E+02  0.15875713428E+02 -0.13507987522E+03  0.15664519680E+03  0.00000000000E+00 0. -1.
</event>
<event>
 7    1  0.2899775E-009  0.1224751E+03  0.7561462E-02  0.1239069E+00
          2   -1    0    0  501    0  0.00000000000E+00  0.00000000000E+00  0.10777622899E+03  0.10777622899E+03  0.00000000000E+00 0. -1.
         -2   -1    0    0    0  501 -0.00000000000E+00 -0.00000000000E+00 -0.18524217687E+03  0.18524217687E+03  0.00000000000E+00 0.  1.
         25    2    1    2    0    0 -0.26258335816E+02 -0.77874240661E+02 -0.69295115489E+02  0.16493277787E+03  0.12508841124E+03 0.  0.
          5    1    3    3  502    0 -0.44038616000E+02 -0.78330426415E+01  0.20679985642E+02  0.49455944662E+02  0.41800000000E+01 0. -1.
         -5    1    3    3    0  502  0.17780280184E+02 -0.70041198019E+02 -0.89975101131E+02  0.11547683320E+03  0.41800000000E+01 0. -1.
        -11    1    1    2    0    0 -0.17356645305E+02  0.82014451005E+02 -0.21111846297E+01  0.83857500621E+02  0.00000000000E+00 0.  1.
         11    1    1    2    0    0  0.43614981121E+02 -0.41402103444E+01 -0.60596477542E+01  0.44228127371E+02  0.00000000000E+00 0. -1.
</event>
<event>
 7    1  0.2899775E-009  0.1023329E+03  0.7561462E-02  0.1275465E+00
         -4   -1    0    0    0  501 -0.00000000000E+00  0.00000000000E+00  0.39234376793E+03  0.39234376793E+03  0.00000000000E+00 0.  1.
          4   -1    0    0  501    0  0.00000000000E+00 -0.00000000000E+00 -0.32673599179E+02  0.32673599179E+02  0.00000000000E+00 0. -1.
         25    2    1    2    0    0  0.24166329350E+02 -0.10419873998E+02  0.16951869952E+03  0.21231077319E+03  0.12508672862E+03 0.  0.
          5    1    3    3  502    0  0.70728915020E+02  0.17230298822E+02  0.10714396731E+03  0.12960233311E+03  0.41800000000E+01 0. -1.
         -5    1    3    3    0  502 -0.46562585671E+02 -0.27650172820E+02  0.62374732216E+02  0.82708440079E+02  0.41800000000E+01 0. -1.
        -11    1    1    2    0    0 -0.12833194025E+01  0.40008486292E+02  0.15920358169E+03  0.16415878383E+03  0.00000000000E+00 0.  1.
         11    1    1    2    0    0 -0.22883009947E+02 -0.29588612294E+02  0.30947887538E+02  0.48547810093E+02  0.00000000000E+00 0. -1.
</event>
<event>
 7    1  0.2899775E-009  0.1339818E+03  0.7561462E-02  0.1221664E+00
          4   -1    0    0  501    0  0.00000000000E+00  0.00000000000E+00  0.72910123777E+02  0.72910123777E+02  0.00000000000E+00 0. -1.
         -4   -1    0    0    0  501 -0.00000000000E+00 -0.00000000000E+00 -0.35899829769E+03  0.35899829769E+03  0.00000000000E+00 0.  1.
         25    2    1    2    0    0  0.77958230377E+02 -0.78453293322E+02 -0.88025809320E+02  0.18875758063E+03  0.12509386965E+03 0.  0.
          5    1    3    3  502    0  0.27063526253E+01 -0.45456389961E+02 -0.95762112740E+02  0.10612003755E+03  0.41800000000E+01 0. -1.
         -5    1    3    3    0  502  0.75251877751E+02 -0.32996903362E+02  0.77363034194E+01  0.82637543085E+02  0.41800000000E+01 0. -1.
        -11    1    1    2    0    0 -0.95435490634E+02  0.76620955230E+02 -0.18212603379E+03  0.21942788300E+03  0.00000000000E+00 0.  1.
         11    1    1    2    0    0  0.17477260257E+02  0.18323380921E+01 -0.15936330800E+02  0.23722957833E+02  0.00000000000E+00 0. -1.
</event>
<event>
 7    1  0.2899775E-009  0.9518900E+02  0.7561462E-02  0.1290751E+00
          2   -1    0    0  501    0  0.00000000000E+00  0.00000000000E+00  0.47361384896E+03  0.47361384896E+03  0.00000000000E+00 0. -1.
         -2   -1    0    0    0  501 -0.00000000000E+00 -0.00000000000E+00 -0.32512520000E+02  0.32512520000E+02  0.00000000000E+00 0.  1.
         25    2    1    2    0    0 -0.41771357938E+02 -0.21519984128E+02  0.32297808999E+03  0.34953122788E+03  0.12509706865E+03 0.  0.
          5    1    3    3  502    0 -0.19667461850E+01 -0.63777916036E+02  0.23864302143E+03  0.24706164159E+03  0.41800000000E+01 0.  1.
         -5    1    3    3    0  502 -0.39804611753E+02  0.42257931908E+02  0.84335068559E+02  0.10246958629E+03  0.41800000000E+01 0.  1.
        -11    1    1    2    0    0  0.27712828663E+02  0.37703522603E+02  0.12548792929E+03  0.13392825276E+03  0.00000000000E+00 0. -1.
         11    1    1    2    0    0  0.14058529275E+02 -0.16183538475E+02 -0.73646903194E+01  0.22666888328E+02  0.00000000000E+00 0.  1.
</event>
<event>
 7    1  0.2899775E-009  0.7749765E+02  0.7561462E-02  0.1336307E+00
          1   -1    0    0  501    0  0.00000000000E+00  0.00000000000E+00  0.22921500498E+03  0.22921500498E+03  0.00000000000E+00 0.  1.
         -1   -1    0    0    0  501 -0.00000000000E+00 -0.00000000000E+00 -0.65856878069E+02  0.65856878069E+02  0.00000000000E+00 0. -1.
         25    2    1    2    0    0  0.22687507019E+02 -0.37407828588E+02  0.13774464428E+03  0.19114199368E+03  0.12509039174E+03 0.  0.
          5    1    3    3  502    0  0.56900289342E+02 -0.34395315194E+02  0.14144265780E+03  0.15634634143E+03  0.41800000000E+01 0. -1.
         -5    1    3    3    0  502 -0.34212782323E+02 -0.30125133944E+01 -0.36980135185E+01  0.34795652246E+02  0.41800000000E+01 0. -1.
        -11    1    1    2    0    0 -0.17979249822E+02  0.20368260764E+01  0.54876293752E+02  0.57782434188E+02  0.00000000000E+00 0.  1.
         11    1    1    2    0    0 -0.47082571968E+01  0.35371002512E+02 -0.29262811125E+02  0.46147455179E+02  0.00000000000E+00 0. -1.
</event>
<event>
 7    1  0.2899775E-009  0.9834668E+02  0.7561462E-02  0.1283812E+00
          2   -1    0    0  501    0  0.00000000000E+00  0.00000000000E+00  0.14080184360E+03  0.14080184360E+03  0.00000000000E+00 0. -1.
         -2   -1    0    0    0  501 -0.00000000000E+00 -0.00000000000E+00 -0.22961361279E+03  0.22961361279E+03  0.00000000000E+00 0.  1.
         25    2    1    2    0    0  0.52818182348E+02 -0.66411198624E+02 -0.16870607107E+03  0.22651851726E+03  0.12509473433E+03 0.  0.
          5    1    3    3  502    0  0.12513285267E+02  0.16294592900E+01 -0.14247611007E+03  0.14309490482E+03  0.41800000000E+01 0.  1.
         -5    1    3    3    0  502  0.40304897081E+02 -0.68040657914E+02 -0.26229960998E+02  0.83423612437E+02  0.41800000000E+01 0.  1.
        -11    1    1    2    0    0  0.13452077255E+00  0.48215495149E+02  0.23790863342E+01  0.48274342254E+02  0.00000000000E+00 0.  1.
         11    1    1    2    0    0 -0.52952703120E+02  0.18195703475E+02  0.77515215540E+02  0.95622596874E+02  0.00000000000E+00 0. -1.
</event>
<event>
 7    1  0.2899775E-009  0.1568082E+03  0.7561462E-02  0.1192348E+00
         -1   -1    0    0    0  501 -0.00000000000E+00  0.00000000000E+00  0.16074767174E+03  0.16074767174E+03  0.00000000000E+00 0.  1.
          1   -1    0    0  501    0  0.00000000000E+00 -0.00000000000E+00 -0.19997896033E+03  0.19997896033E+03  0.00000000000E+00 0. -1.
         25    2    1    2    0    0  0.12442068444E+03 -0.66751161872E+02 -0.84021022019E+01  0.18882362054E+03  0.12509012760E+03 0.  0.
          5    1    3    3  502    0  0.11584659496E+03 -0.51240265269E+02  0.43358786800E+02  0.13395318265E+03  0.41800000000E+01 0. -1.
         -5    1    3    3    0  502  0.85740894773E+01 -0.15510896603E+02 -0.51760889002E+02  0.54870437889E+02  0.41800000000E+01 0. -1.
        -11    1    1    2    0    0 -0.85597608931E+01  0.51029721342E+02 -0.15275225884E+02  0.53950296501E+02  0.00000000000E+00 0.  1.
         11    1    1    2    0    0 -0.11586092355E+03  0.15721440530E+02 -0.15553960506E+02  0.11795271504E+03  0.00000000000E+00 0. -1.
</event>
<event>
 7    1  0.2899775E-009  0.8091657E+02  0.7561462E-02  0.1326470E+00
          1   -1    0    0  501    0  0.00000000000E+00  0.00000000000E+00  0.20933045360E+03  0.20933045360E+03  0.00000000000E+00 0. -1.
         -1   -1    0    0    0  501 -0.00000000000E+00 -0.00000000000E+00 -0.59128281312E+02  0.59128281312E+02  0.00000000000E+00 0.  1.
         25    2    1    2    0    0  0.27051493591E+02 -0.30224338056E+01  0.10525156955E+03  0.16572827406E+03  0.12508816699E+03 0.  0.
          5    1    3    3  502    0  0.24297784363E+02 -0.32707489360E+02 -0.13573228925E+02  0.43149358380E+02  0.41800000000E+01 0.  1.
         -5    1    3    3    0  502  0.27537092283E+01  0.29685055555E+02  0.11882479847E+03  0.12257891568E+03  0.41800000000E+01 0.  1.
        -11    1    1    2    0    0 -0.91455096527E-01 -0.39999028863E+02  0.29365767461E+02  0.49621356014E+02  0.00000000000E+00 0.  1.
         11    1    1    2    0    0 -0.26960038494E+02  0.43021462669E+02  0.15584835279E+02  0.53109104836E+02  0.00000000000E+00 0. -1.
</event>
<event>
 7    1  0.2899775E-009  0.6709864E+02  0.7561462E-02  0.1370247E+00
          1   -1    0    0  501    0  0.00000000000E+00  0.00000000000E+00  0.90362304625E+02  0.90362304625E+02  0.00000000000E+00 0. -1.
         -1   -1    0    0    0  501 -0.00000000000E+00 -0.00000000000E+00 -0.24618150457E+03  0.24618150457E+03  0.00000000000E+00 0.  1.
         25    2    1    2    0    0  0.22414950016E+02  0.26713421985E+02 -0.19183035489E+03  0.23165081864E+03  0.12508868782E+03 0.  0.
          5    1    3    3  502    0  0.13503704521E+02 -0.26144833436E+02  0.26836700111E+01  0.29842534006E+02  0.41800000000E+01 0.  1.
         -5    1    3    3    0  502  0.89112454948E+01  0.52858255421E+02 -0.19451402490E+03  0.20180828463E+03  0.41800000000E+01 0.  1.
        -11    1    1    2    0    0 -0.17751382157E+02 -0.36099526968E+02 -0.22062787715E+02  0.45880867664E+02  0.00000000000E+00 0.  1.
         11    1    1    2    0    0 -0.46635678586E+01  0.93861049836E+01  0.58073942662E+02  0.59012122892E+02  0.00000000000E+00 0. -1.
</event>
<event>
 7    1  0.3882462E-009  0.1502173E+03  0.7561462E-02  0.1200206E+00
          2   -1    0    0  501    0  0.00000000000E+00  0.00000000000E+00  0.44354897290E+03  0.44354897290E+03  0.00000000000E+00 0. -1.
         -2   -1    0    0    0  501 -0.00000000000E+00 -0.00000000000E+00 -0.56249440781E+02  0.56249440781E+02  0.00000000000E+00 0.  1.
         25    2    1    2    0    0  0.11375311003E+03 -0.13567399780E+02  0.21477720013E+03  0.27366326589E+03  0.12505396045E+03 0.  0.
          5    1    3    3  502    0  0.10509722590E+03  0.40374837853E+02  0.12320632424E+03  0.16695156530E+03  0.41800000000E+01 0.  1.
         -5    1    3    3    0  502  0.86558841240E+01 -0.53942237633E+02  0.91570875890E+02  0.10671170059E+03  0.41800000000E+01 0.  1.
        -11    1    1    2    0    0 -0.70122736750E+02 -0.25300143259E+02  0.48218177006E+02  0.88782250772E+02  0.00000000000E+00 0.  1.
         11    1    1    2    0    0 -0.43630373277E+02  0.38867543039E+02  0.12430415499E+03  0.13735289703E+03  0.00000000000E+00 0. -1.
</event>
<event>
 7    1  0.2899775E-009  0.1270082E+03  0.7561462E-02  0.1231964E+00
          2   -1    0    0  501    0  0.00000000000E+00  0.00000000000E+00  0.22247641302E+03  0.22247641302E+03  0.00000000000E+00 0. -1.
         -2   -1    0    0    0  501 -0.00000000000E+00 -0.00000000000E+00 -0.83657092742E+02  0.83657092742E+02  0.00000000000E+00 0.  1.
         25    2    1    2    0    0 -0.37595910245E+02 -0.73584272319E+02  0.62130036470E+02  0.16228181227E+03  0.12508855887E+03 0.  0.
          5    1    3    3  502    0 -0.81216043660E+02 -0.26862896271E+02  0.39849167482E+02  0.94462106121E+02  0.41800000000E+01 0.  1.
         -5    1    3    3    0  502  0.43620133415E+02 -0.46721376048E+02  0.22280868988E+02  0.67819706146E+02  0.41800000000E+01 0.  1.
        -11    1    1    2    0    0  0.48278661637E+02  0.78810966868E+02  0.32312008081E+02  0.97908444653E+02  0.00000000000E+00 0.  1.
         11    1    1    2    0    0 -0.10682751391E+02 -0.52266945498E+01  0.44377275724E+02  0.45943248839E+02  0.00000000000E+00 0. -1.
</event>
<event>
 7    1  0.2899775E-009  0.1338625E+03  0.7561462E-02  0.1221834E+00
          2   -1    0    0  501    0  0.00000000000E+00  0.00000000000E+00  0.17149797181E+03  0.17149797181E+03  0.00000000000E+00 0. -1.
         -2   -1    0    0    0  501 -0.00000000000E+00 -0.00000000000E+00 -0.18144901823E+03  0.18144901823E+03  0.00000000000E+00 0.  1.
         25    2    1    2    0    0 -0.63012374474E+02  0.53333237401E+02 -0.11974264319E+03  0.19183690592E+03  0.12509238316E+03 0.  0.
          5    1    3    3  502    0  0.26176417503E+02  0.54449566939E+02 -0.50077290695E+02  0.78582234738E+02  0.41800000000E+01 0.  1.
         -5    1    3    3    0  502 -0.89188791976E+02 -0.11163295383E+01 -0.69665352496E+02  0.11325467118E+03  0.41800000000E+01 0.  1.
        -11    1    1    2    0    0  0.11730131083E+02 -0.64357874132E+02  0.62903816200E+02  0.90754735582E+02  0.00000000000E+00 0.  1.
         11    1    1    2    0    0  0.51282243391E+02  0.11024636731E+02  0.46887780566E+02  0.70355348543E+02  0.00000000000E+00 0. -1.
</event>
<event>
 7    1  0.2899775E-009  0.1127510E+03  0.7561462E-02  0.1255559E+00
          2   -1    0    0  501    0  0.00000000000E+00  0.00000000000E+00  0.48150364926E+03  0.48150364926E+03  0.00000000000E+00 0. -1.
         -2   -1    0    0    0  501 -0.00000000000E+00 -0.00000000000E+00 -0.29144094434E+02  0.29144094434E+02  0.00000000000E+00 0.  1.
         25    2    1    2    0    0  0.37007631388E+02 -0.14466854311E+02  0.31585177679E+03  0.34203716469E+03  0.12509285539E+03 0.  0.
          5    1    3    3  502    0  0.78353122717E+00 -0.66626235853E+02  0.14224693300E+03  0.15713475609E+03  0.41800000000E+01 0.  1.
         -5    1    3    3    0  502  0.36224100161E+02  0.52159381541E+02  0.17360484379E+03  0.18490240859E+03  0.41800000000E+01 0.  1.
        -11    1    1    2    0    0  0.23103696293E+02  0.25033520535E+02  0.27916815839E+02  0.44043234888E+02  0.00000000000E+00 0.  1.
         11    1    1    2    0    0 -0.60111327681E+02 -0.10566666224E+02  0.10859096220E+03  0.12456734413E+03  0.00000000000E+00 0. -1.
</event>
<event>
 7    1  0.2899775E-009  0.1565803E+03  0.7561462E-02  0.1192613E+00
          1   -1    0    0  501    0  0.00000000000E+00  0.00000000000E+00  0.19502590527E+03  0.19502590527E+03  0.00000000000E+00 0. -1.
         -1   -1    0    0    0  501 -0.00000000000E+00 -0.00000000000E+00 -0.13361868464E+03  0.13361868464E+03  0.00000000000E+00 0.  1.
         25    2    1    2    0    0 -0.35433770941E+02  0.10986841902E+03  0.63066732009E+02  0.18153059137E+03  0.12509724736E+03 0.  0.
          5    1    3    3  502    0 -0.90471117872E+01  0.13157364367E+03  0.33457380693E+02  0.13612620124E+03  0.41800000000E+01 0.  1.
         -5    1    3    3    0  502 -0.26386659154E+02 -0.21705224649E+02  0.29609351315E+02  0.45404390137E+02  0.41800000000E+01 0.  1.
        -11    1    1    2    0    0  0.37550605365E+02 -0.65674782330E+00  0.37824378968E+01  0.37746339127E+02  0.00000000000E+00 0. -1.
         11    1    1    2    0    0 -0.21168344243E+01 -0.10921167120E+03 -0.54419492749E+01  0.10936765941E+03  0.00000000000E+00 0.  1.
</event>
<event>
 7    1  0.2899775E-009  0.1105522E+03  0.7561462E-02  0.1259551E+00
         -2   -1    0    0    0  501 -0.00000000000E+00  0.00000000000E+00  0.13335783512E+03  0.13335783512E+03  0.00000000000E+00 0.  1.
          2   -1    0    0  501    0  0.00000000000E+00 -0.00000000000E+00 -0.99858208807E+02  0.99858208807E+02  0.00000000000E+00 0. -1.
         25    2    1    2    0    0  0.16804135826E+02  0.16217457854E+02 -0.10896076431E+02  0.12771487444E+03  0.12508788811E+03 0.  0.
          5    1    3    3  502    0  0.15100504354E+02  0.70024061629E+02  0.34744709945E+01  0.71839674188E+02  0.41800000000E+01 0. -1.
         -5    1    3    3    0  502  0.17036314722E+01 -0.53806603775E+02 -0.14370547426E+02  0.55875200253E+02  0.41800000000E+01 0. -1.
        -11    1    1    2    0    0 -0.39376979725E+02 -0.44334186631E+02  0.23181768092E+02  0.63666796749E+02  0.00000000000E+00 0. -1.
         11    1    1    2    0    0  0.22572843899E+02  0.28116728777E+02  0.21213934651E+02  0.41834372736E+02  0.00000000000E+00 0.  1.
</event>
<event>
 7    1  0.2899775E-009  0.8837858E+02  0.7561462E-02  0.1306826E+00
         -2   -1    0    0    0  501 -0.00000000000E+00  0.00000000000E+00  0.17973250705E+03  0.17973250705E+03  0.00000000000E+00 0.  1.
          2   -1    0    0  501    0  0.00000000000E+00 -0.00000000000E+00 -0.79655457243E+02  0.79655457243E+02  0.00000000000E+00 0. -1.
         25    2    1    2    0    0  0.36597507552E+02 -0.32518363997E+02  0.49917461844E+02  0.14330351564E+03  0.12508926030E+03 0.  0.
          5    1    3    3  502    0  0.54533525302E+02 -0.22602182773E+01  0.79929079232E+02  0.96876953273E+02  0.41800000000E+01 0.  1.
         -5    1    3    3    0  502 -0.17936017749E+02 -0.30258145720E+02 -0.30011617389E+02  0.46426562369E+02  0.41800000000E+01 0.  1.
        -11    1    1    2    0    0 -0.15268763461E+02  0.54123125474E+02 -0.13973773249E+01  0.56253004471E+02  0.00000000000E+00 0. -1.
         11    1    1    2    0    0 -0.21328744091E+02 -0.21604761477E+02  0.51556965292E+02  0.59831444183E+02  0.00000000000E+00 0.  1.
</event>
<event>
 7    1  0.2899775E-009  0.7681586E+02  0.7561462E-02  0.1338338E+00
          1   -1    0    0  501    0  0.00000000000E+00  0.00000000000E+00  0.81969360556E+02  0.81969360556E+02  0.00000000000E+00 0. -1.
         -1   -1    0    0    0  501 -0.00000000000E+00 -0.00000000000E+00 -0.19330675440E+03  0.19330675440E+03  0.00000000000E+00 0.  1.
         25    2    1    2    0    0  0.25258853843E+02  0.12133687154E+02 -0.12408757919E+03  0.17841786766E+03  0.12509984864E+03 0.  0.
          5    1    3    3  502    0  0.29618874395E+02  0.28052357903E+02 -0.14543856172E+03  0.15110943101E+03  0.41800000000E+01 0.  1.
         -5    1    3    3    0  502 -0.43600205523E+01 -0.15918670749E+02  0.21350982528E+02  0.27308436655E+02  0.41800000000E+01 0.  1.
        -11    1    1    2    0    0 -0.25807574115E+02  0.37740218799E+02  0.15902111021E+01  0.45748046604E+02  0.00000000000E+00 0.  1.
         11    1    1    2    0    0  0.54872027184E+00 -0.49873905953E+02  0.11159974249E+02  0.51110200686E+02  0.00000000000E+00 0. -1.
</event>
<event>
 7    1  0.2899775E-009  0.1039612E+03  0.7561462E-02  0.1272180E+00
         -2   -1    0    0    0  501 -0.00000000000E+00  0.00000000000E+00  0.30195022810E+02  0.30195022810E+02  0.00000000000E+00 0.  1.
          2   -1    0    0  501    0  0.00000000000E+00 -0.00000000000E+00 -0.42672174344E+03  0.42672174344E+03  0.00000000000E+00 0. -1.
         25    2    1    2    0    0 -0.25791481304E+02 -0.86163899052E+01 -0.18269243907E+03  0.22307994285E+03  0.12509472781E+03 0.  0.
          5    1    3    3  502    0  0.48735632875E+02 -0.73343389623E+00 -0.10048648381E+03  0.11176182562E+03  0.41800000000E+01 0.  1.
         -5    1    3    3    0  502 -0.74527114179E+02 -0.78829560090E+01 -0.82205955259E+02  0.11131811723E+03  0.41800000000E+01 0.  1.
        -11    1    1    2    0    0  0.22406553226E+02 -0.34258153344E+02 -0.50880758867E+02  0.65303340810E+02  0.00000000000E+00 0.  1.
         11    1    1    2    0    0  0.33849280778E+01  0.42874543249E+02 -0.16295352270E+03  0.16853348260E+03  0.00000000000E+00 0. -1.
</event>
<event>
 7    1  0.2899775E-009  0.1071485E+03  0.7561462E-02  0.1265943E+00
         -1   -1    0    0    0  501 -0.00000000000E+00  0.00000000000E+00  0.96161722192E+02  0.96161722192E+02  0.00000000000E+00 0.  1.
          1   -1    0    0  501    0  0.00000000000E+00 -0.00000000000E+00 -0.13695173948E+03  0.13695173948E+03  0.00000000000E+00 0. -1.
         25    2    1    2    0    0 -0.29968237254E+01  0.20474128605E+02 -0.42854292920E+02  0.13383763497E+03  0.12509137148E+03 0.  0.
          5    1    3    3  502    0 -0.11777655061E+02  0.66718193742E+02  0.30630169917E+01  0.67947663743E+02  0.41800000000E+01 0.  1.
         -5    1    3    3    0  502  0.87808313361E+01 -0.46244065137E+02 -0.45917309912E+02  0.65889971232E+02  0.41800000000E+01 0.  1.
        -11    1    1    2    0    0 -0.29985599858E+02 -0.47735661162E+02  0.32848977421E+01  0.56467867842E+02  0.00000000000E+00 0.  1.
         11    1    1    2    0    0  0.32982423584E+02  0.27261532557E+02 -0.12206221059E+01  0.42807958852E+02  0.00000000000E+00 0. -1.
</event>
<event>
 7    1  0.2899775E-009  0.7304464E+02  0.7561462E-02  0.1350035E+00
         -1   -1    0    0    0  501 -0.00000000000E+00  0.00000000000E+00  0.60857790825E+02  0.60857790825E+02  0.00000000000E+00 0.  1.
          1   -1    0    0  501    0  0.00000000000E+00 -0.00000000000E+00 -0.31811504879E+03  0.31811504879E+03  0.00000000000E+00 0. -1.
         25    2    1    2    0    0  0.17943128597E+02 -0.73206820944E+01 -0.25174945021E+03  0.28178149196E+03  0.12508986883E+03 0.  0.
          5    1    3    3  502    0  0.29601761473E+02  0.19962622483E+02 -0.24912353856E+03  0.25170375533E+03  0.41800000000E+01 0.  1.
         -5    1    3    3    0  502 -0.11658632876E+02 -0.27283304578E+02 -0.26259116409E+01  0.30077736637E+02  0.41800000000E+01 0.  1.
        -11    1    1    2    0    0  0.16203288540E+02  0.33459299624E+02  0.24705029592E+02  0.44636417620E+02  0.00000000000E+00 0.  1.
         11    1    1    2    0    0 -0.34146417137E+02 -0.26138617529E+02 -0.30212837348E+02  0.52554930028E+02  0.00000000000E+00 0. -1.
</event>
<event>
 7    1  0.2899775E-009  0.8682523E+02  0.7561462E-02  0.1310727E+00
         -3   -1    0    0    0  501 -0.00000000000E+00  0.00000000000E+00  0.46991934446E+02  0.46991934446E+02  0.00000000000E+00 0.  1.
          3   -1    0    0  501    0  0.00000000000E+00 -0.00000000000E+00 -0.27770050391E+03  0.27770050391E+03  0.00000000000E+00 0. -1.
         25    2    1    2    0    0 -0.32453395572E+01  0.24275781217E+02 -0.17050672624E+03  0.21288457360E+03  0.12508977656E+03 0.  0.
          5    1    3    3  502    0 -0.33028293282E+02 -0.32286799475E+02 -0.22370156907E+02  0.51489823243E+02  0.41800000000E+01 0.  1.
         -5    1    3    3    0  502  0.29782953725E+02  0.56562580692E+02 -0.14813656934E+03  0.16139475036E+03  0.41800000000E+01 0.  1.
        -11    1    1    2    0    0 -0.19518481670E+02  0.10104946749E+02 -0.66552467965E+02  0.70087888167E+02  0.00000000000E+00 0. -1.
         11    1    1    2    0    0  0.22763821227E+02 -0.34380727966E+02  0.63506247420E+01  0.41719976593E+02  0.00000000000E+00 0.  1.
</event>
<event>
 7    1  0.2899775E-009  0.9557980E+02  0.7561462E-02  0.1289876E+00
          2   -1    0    0  501    0  0.00000000000E+00  0.00000000000E+00  0.61250791475E+03  0.61250791475E+03  0.00000000000E+00 0. -1.
         -2   -1    0    0    0  501 -0.00000000000E+00 -0.00000000000E+00 -0.19845713549E+02  0.19845713549E+02  0.00000000000E+00 0.  1.
         25    2    1    2    0    0  0.17821202721E+02 -0.10673739259E+02  0.34318385431E+03  0.36586040578E+03  0.12508858732E+03 0.  0.
          5    1    3    3  502    0  0.58220852709E+02 -0.19615574980E+02  0.88572407077E+02  0.10787484492E+03  0.41800000000E+01 0. -1.
         -5    1    3    3    0  502 -0.40399649988E+02  0.89418357209E+01  0.25461144724E+03  0.25798556085E+03  0.41800000000E+01 0. -1.
        -11    1    1    2    0    0 -0.12788297893E+01 -0.37261673633E+02  0.15326285763E+03  0.15773259415E+03  0.00000000000E+00 0.  1.
         11    1    1    2    0    0 -0.16542372931E+02  0.47935412893E+02  0.96215489257E+02  0.10876062837E+03  0.00000000000E+00 0. -1.
</event>
<event>
 7    1  0.2899775E-009  0.1135225E+03  0.7561462E-02  0.1254182E+00
         -1   -1    0    0    0  501 -0.00000000000E+00  0.00000000000E+00  0.26792246732E+02  0.26792246732E+02  0.00000000000E+00 0.  1.
          1   -1    0    0  501    0  0.00000000000E+00 -0.00000000000E+00 -0.51642800982E+03  0.51642800982E+03  0.00000000000E+00 0. -1.
         25    2    1    2    0    0 -0.32107048219E+02 -0.23389987414E+02 -0.24598475925E+03  0.27880978036E+03  0.12509371603E+03 0.  0.
          5    1    3    3  502    0 -0.69488329770E+02  0.14877975695E+02 -0.95985549196E+02  0.11950179994E+03  0.41800000000E+01 0. -1.
         -5    1    3    3    0  502  0.37381281551E+02 -0.38267963109E+02 -0.14999921005E+03  0.15930798042E+03  0.41800000000E+01 0. -1.
        -11    1    1    2    0    0  0.23028379242E+02  0.60112211101E+02 -0.16573453298E+03  0.17779684923E+03  0.00000000000E+00 0.  1.
         11    1    1    2    0    0  0.90786689767E+01 -0.36722223687E+02 -0.77916470861E+02  0.86613626955E+02  0.00000000000E+00 0. -1.
</event>
<event>
 7    1  0.2899775E-009  0.1397157E+03  0.7561462E-02  0.1213712E+00
         -2   -1    0    0    0  501 -0.00000000000E+00  0.00000000000E+00  0.36234153379E+02  0.36234153379E+02  0.00000000000E+00 0.  1.
          2   -1    0    0  501    0  0.00000000000E+00 -0.00000000000E+00 -0.71234804325E+03  0.71234804325E+03  0.00000000000E+00 0. -1.
         25    2    1    2    0    0 -0.83060615107E+02 -0.76012553385E+02 -0.44449282738E+03  0.47529088956E+03  0.12510228634E+03 0.  0.
          5    1    3    3  502    0 -0.46267365920E+02  0.24489891619E+02 -0.82600235100E+02  0.97881025634E+02  0.41800000000E+01 0.  1.
         -5    1    3    3    0  502 -0.36793249187E+02 -0.10050244500E+03 -0.36189259228E+03  0.37740986392E+03  0.41800000000E+01 0.  1.
        -11    1    1    2    0    0  0.44503685765E+02  0.66631143861E+02 -0.21645584052E+03  0.23081035131E+03  0.00000000000E+00 0.  1.
         11    1    1    2    0    0  0.38556929342E+02  0.93814095248E+01 -0.15165221973E+02  0.42480955762E+02  0.00000000000E+00 0. -1.
</event>
<event>
 7    1  0.2899775E-009  0.2681427E+03  0.7561462E-02  0.1102347E+00
         -2   -1    0    0    0  501 -0.00000000000E+00  0.00000000000E+00  0.10659125841E+03  0.10659125841E+03  0.00000000000E+00 0.  1.
          2   -1    0    0  501    0  0.00000000000E+00 -0.00000000000E+00 -0.68785590143E+03  0.68785590143E+03  0.00000000000E+00 0. -1.
         25    2    1    2    0    0 -0.13926919969E+01 -0.24651377225E+03 -0.33657517138E+03  0.43554630215E+03  0.12508699304E+03 0.  0.
          5    1    3    3  502    0  0.40802421161E+02 -0.24152813220E+02 -0.82590657463E+02  0.95325154389E+02  0.41800000000E+01 0.  1.
         -5    1    3    3    0  502 -0.42195113158E+02 -0.22236095903E+03 -0.25398451392E+03  0.34022114776E+03  0.41800000000E+01 0.  1.
        -11    1    1    2    0    0  0.44766693522E+02  0.10096441660E+03 -0.11062702309E+03  0.15632085116E+03  0.00000000000E+00 0.  1.
         11    1    1    2    0    0 -0.43374001525E+02  0.14554935565E+03 -0.13406244855E+03  0.20258000654E+03  0.00000000000E+00 0. -1.
</event>
<event>
 7    1  0.2899775E-009  0.1077261E+03  0.7561462E-02  0.1264840E+00
         -2   -1    0    0    0  501 -0.00000000000E+00  0.00000000000E+00  0.50868780327E+02  0.50868780327E+02  0.00000000000E+00 0.  1.
          2   -1    0    0  501    0  0.00000000000E+00 -0.00000000000E+00 -0.31938086014E+03  0.31938086014E+03  0.00000000000E+00 0. -1.
         25    2    1    2    0    0  0.31560066850E+02 -0.35925994900E+02 -0.21775612419E+03  0.25563946436E+03  0.12508833353E+03 0.  0.
          5    1    3    3  502    0 -0.15516212568E+02 -0.65270072835E+02 -0.66830544378E+02  0.94787812097E+02  0.41800000000E+01 0. -1.
         -5    1    3    3    0  502  0.47076279417E+02  0.29344077935E+02 -0.15092557982E+03  0.16085165226E+03  0.41800000000E+01 0. -1.
        -11    1    1    2    0    0  0.19633825353E+02  0.36455340982E+02 -0.47925903856E+02  0.63335386985E+02  0.00000000000E+00 0.  1.
         11    1    1    2    0    0 -0.51193892202E+02 -0.52934608225E+00 -0.28300517609E+01  0.51274789118E+02  0.00000000000E+00 0. -1.
</event>
<event>
 6    1  0.2899775E-009  0.1004440E+03  0.7561462E-02  0.1279365E+00
         -2   -1    0    0    0  501 -0.00000000000E+00  0.00000000000E+00  0.30825825091E+03  0.30825825091E+03  0.00000000000E+00 0.  1.
          2   -1    0    0  501    0  0.00000000000E+00 -0.00000000000E+00 -0.45528364801E+02  0.45528364801E+02  0.00000000000E+00 0. -1.
          5    1    1    2  502    0  0.74779462967E+02 -0.18351704197E+02  0.15301976623E+03  0.17135131860E+03  0.41800000000E+01 0.  1.
         -5    1    1    2    0  502 -0.34063425205E+02 -0.93867726736E+01  0.48359800878E+01  0.35906650377E+02  0.41800000000E+01 0.  1.
        -11    1    1    2    0    0  0.21057622525E+02  0.12799373509E+02  0.88759133918E+00  0.24658370729E+02  0.00000000000E+00 0. -1.
         11    1    1    2    0    0 -0.61773660287E+02  0.14939103362E+02  0.10398654845E+03  0.12187027600E+03  0.00000000000E+00 0.  1.
</event>
<event>
 7    1  0.2899775E-009  0.1027341E+03  0.7561462E-02  0.1274649E+00
          2   -1    0    0  501    0  0.00000000000E+00  0.00000000000E+00  0.41964824630E+03  0.41964824630E+03  0.00000000000E+00 0. -1.
         -2   -1    0    0    0  501 -0.00000000000E+00 -0.00000000000E+00 -0.30255470998E+02  0.30255470998E+02  0.00000000000E+00 0.  1.
         25    2    1    2    0    0 -0.37158942772E+02  0.10713205257E+02  0.20201599753E+03  0.24072253555E+03  0.12506524725E+03 0.  0.
          5    1    3    3  502    0 -0.81625264438E+02  0.21439326306E+02  0.12083310157E+03  0.14744639481E+03  0.41800000000E+01 0. -1.
         -5    1    3    3    0  502  0.44466321666E+02 -0.10726121050E+02  0.81182895965E+02  0.93276140747E+02  0.41800000000E+01 0. -1.
        -11    1    1    2    0    0  0.31172443082E+02 -0.36826204061E+02  0.51032024968E+02  0.70229324969E+02  0.00000000000E+00 0.  1.
         11    1    1    2    0    0  0.59864996905E+01  0.26112998805E+02  0.13634475280E+03  0.13895185677E+03  0.00000000000E+00 0. -1.
</event>
<event>
 7    1  0.2899775E-009  0.2482172E+03  0.7561462E-02  0.1114437E+00
         -1   -1    0    0    0  501 -0.00000000000E+00  0.00000000000E+00  0.13393061878E+03  0.13393061878E+03  0.00000000000E+00 0.  1.
          1   -1    0    0  501    0  0.00000000000E+00 -0.00000000000E+00 -0.60030397864E+03  0.60030397864E+03  0.00000000000E+00 0. -1.
         25    2    1    2    0    0 -0.12935421436E+03  0.20709047878E+03 -0.35953223897E+03  0.45224516494E+03  0.12507309536E+03 0.  0.
          5    1    3    3  502    0 -0.17927441630E+02  0.41347081001E+02 -0.52988172666E+01  0.45568894382E+02  0.41800000000E+01 0.  1.
         -5    1    3    3    0  502 -0.11142677273E+03  0.16574339778E+03 -0.35423342170E+03  0.40667627056E+03  0.41800000000E+01 0.  1.
        -11    1    1    2    0    0  0.91990958700E+02 -0.18835075002E+03 -0.57570519774E+02  0.21737687610E+03  0.00000000000E+00 0.  1.
         11    1    1    2    0    0  0.37363255660E+02 -0.18739728759E+02 -0.49270601116E+02  0.64612556379E+02  0.00000000000E+00 0. -1.
</event>
<event>
 7    1  0.2899775E-009  0.1225526E+03  0.7561462E-02  0.1238944E+00
          1   -1    0    0  501    0  0.00000000000E+00  0.00000000000E+00  0.77985756365E+03  0.77985756365E+03  0.00000000000E+00 0. -1.
         -1   -1    0    0    0  501 -0.00000000000E+00 -0.00000000000E+00 -0.26784246102E+02  0.26784246102E+02  0.00000000000E+00 0.  1.
         25    2    1    2    0    0  0.36260423467E+02  0.70371048056E+02  0.26258453131E+03  0.30143480035E+03  0.12508157364E+03 0.  0.
          5    1    3    3  502    0  0.68075230278E+02  0.69815468984E+02  0.24734954379E+03  0.26590920612E+03  0.41800000000E+01 0.  1.
         -5    1    3    3    0  502 -0.31814806811E+02  0.55557907272E+00  0.15234987520E+02  0.35525594228E+02  0.41800000000E+01 0.  1.
        -11    1    1    2    0    0  0.47416417417E+01 -0.74089575341E+02  0.38245914902E+03  0.38959818917E+03  0.00000000000E+00 0. -1.
         11    1    1    2    0    0 -0.41002065209E+02  0.37185272843E+01  0.10802963722E+03  0.11560882023E+03  0.00000000000E+00 0.  1.
</event>
<event>
 7    1  0.2899775E-009  0.1902226E+03  0.7561462E-02  0.1158261E+00
         -1   -1    0    0    0  501 -0.00000000000E+00  0.00000000000E+00  0.11916167038E+03  0.11916167038E+03  0.00000000000E+00 0.  1.
          1   -1    0    0  501    0  0.00000000000E+00 -0.00000000000E+00 -0.36032147160E+03  0.36032147160E+03  0.00000000000E+00 0. -1.
         25    2    1    2    0    0  0.67008971549E+02 -0.15969916051E+03 -0.87421878545E+02  0.23083343054E+03  0.12508982241E+03 0.  0.
          5    1    3    3  502    0 -0.98024743968E+01 -0.11872838932E+03 -0.20515123824E+02  0.12095809870E+03  0.41800000000E+01 0. -1.
         -5    1    3    3    0  502  0.76811445946E+02 -0.40970771190E+02 -0.66906754721E+02  0.10987533184E+03  0.41800000000E+01 0. -1.
        -11    1    1    2    0    0 -0.25830000759E+02  0.84355664009E+02 -0.21205306652E+02  0.90734403728E+02  0.00000000000E+00 0.  1.
         11    1    1    2    0    0 -0.41178970790E+02  0.75343496502E+02 -0.13253261602E+03  0.15791530771E+03  0.00000000000E+00 0. -1.
</event>
<event>
 7    1  0.2899775E-009  0.1216094E+03  0.7561462E-02  0.1240465E+00
         -1   -1    0    0    0  501 -0.00000000000E+00  0.00000000000E+00  0.85962077335E+02  0.85962077335E+02  0.00000000000E+00 0.  1.
          1   -1    0    0  501    0  0.00000000000E+00 -0.00000000000E+00 -0.30868088615E+03  0.30868088615E+03  0.00000000000E+00 0. -1.
         25    2    1    2    0    0 -0.74166397932E+02  0.15914078627E+02 -0.65492968440E+01  0.14644002879E+03  0.12509147158E+03 0.  0.
          5    1    3    3  502    0 -0.30314629032E+02  0.55336804877E+02  0.36773396117E+02  0.73149803618E+02  0.41800000000E+01 0. -1.
         -5    1    3    3    0  502 -0.43851768900E+02 -0.39422726250E+02 -0.43322692961E+02  0.73290225174E+02  0.41800000000E+01 0. -1.
        -11    1    1    2    0    0  0.17247144055E+02  0.38461349323E+02 -0.60136603297E+02  0.73438072047E+02  0.00000000000E+00 0. -1.
         11    1    1    2    0    0  0.56919253876E+02 -0.54375427950E+02 -0.15603290867E+03  0.17476486265E+03  0.00000000000E+00 0.  1.
</event>
<event>
 7    1  0.2899775E-009  0.1032951E+03  0.7561462E-02  0.1273516E+00
          2   -1    0    0  501    0  0.00000000000E+00  0.00000000000E+00  0.48302155882E+03  0.48302155882E+03  0.00000000000E+00 0. -1.
         -2   -1    0    0    0  501 -0.00000000000E+00 -0.00000000000E+00 -0.29282008278E+02  0.29282008278E+02  0.00000000000E+00 0.  1.
         25    2    1    2    0    0 -0.30141594176E+02 -0.35541495391E+02  0.22376280439E+03  0.26055536119E+03  0.12509032745E+03 0.  0.
          5    1    3    3  502    0  0.36951728215E+02 -0.29174360447E+02  0.16300752380E+03  0.16972182754E+03  0.41800000000E+01 0. -1.
         -5    1    3    3    0  502 -0.67093322391E+02 -0.63671349441E+01  0.60755280590E+02  0.90833533656E+02  0.41800000000E+01 0. -1.
        -11    1    1    2    0    0  0.14241010242E+01  0.56330024379E+02  0.19064012711E+03  0.19879325384E+03  0.00000000000E+00 0.  1.
         11    1    1    2    0    0  0.28717493152E+02 -0.20788528988E+02  0.39336619042E+02  0.52954952064E+02  0.00000000000E+00 0. -1.
</event>
<event>
 7    1  0.2899775E-009  0.1357689E+03  0.7561462E-02  0.1219138E+00
          2   -1    0    0  501    0  0.00000000000E+00  0.00000000000E+00  0.26857772347E+03  0.26857772347E+03  0.00000000000E+00 0. -1.
         -2   -1    0    0    0  501 -0.00000000000E+00 -0.00000000000E+00 -0.76745337198E+02  0.76745337198E+02  0.00000000000E+00 0.  1.
         25    2    1    2    0    0 -0.32185283632E+02  0.79201025004E+02  0.15194740322E+03  0.21458180858E+03  0.12509454179E+03 0.  0.
          5    1    3    3  502    0 -0.46280593178E+02 -0.18902891658E+02  0.34692367906E+02  0.60993814513E+02  0.41800000000E+01 0. -1.
         -5    1    3    3    0  502  0.14095309545E+02  0.98103916662E+02  0.11725503531E+03  0.15358799407E+03  0.41800000000E+01 0. -1.
        -11    1    1    2    0    0  0.48059698933E+02 -0.73869586733E+01  0.28376738660E+02  0.56298677754E+02  0.00000000000E+00 0. -1.
         11    1    1    2    0    0 -0.15874415300E+02 -0.71814066331E+02  0.11508244393E+02  0.74442574331E+02  0.00000000000E+00 0.  1.
</event>
<event>
 7    1  0.3044253E-009  0.1094545E+03  0.7561462E-02  0.1261583E+00
          1   -1    0    0  501    0  0.00000000000E+00  0.00000000000E+00  0.59961754463E+03  0.59961754463E+03  0.00000000000E+00 0. -1.
         -1   -1    0    0    0  501 -0.00000000000E+00 -0.00000000000E+00 -0.25280026468E+02  0.25280026468E+02  0.00000000000E+00 0.  1.
         25    2    1    2    0    0 -0.45160347939E+02 -0.10687664652E+02  0.40940532159E+03  0.43059728794E+03  0.12509046259E+03 0.  0.
          5    1    3    3  502    0  0.43151660363E+02 -0.12060704994E+02  0.13817568478E+03  0.14531867967E+03  0.41800000000E+01 0. -1.
         -5    1    3    3    0  502 -0.88312008302E+02  0.13730403417E+01  0.27122963681E+03  0.28527860827E+03  0.41800000000E+01 0. -1.
        -11    1    1    2    0    0  0.34169981011E+02 -0.28682207136E+02  0.31145312956E+02  0.54408520726E+02  0.00000000000E+00 0.  1.
         11    1    1    2    0    0  0.10990366928E+02  0.39369871787E+02  0.13378688361E+03  0.13989176243E+03  0.00000000000E+00 0. -1.
</event>
<event>
 7    1  0.2899775E-009  0.4057997E+03  0.7561462E-02  0.1041790E+00
         -2   -1    0    0    0  501 -0.00000000000E+00  0.00000000000E+00  0.77622302273E+02  0.77622302273E+02  0.00000000000E+00 0.  1.
          2   -1    0    0  501    0  0.00000000000E+00 -0.00000000000E+00 -0.24655003972E+04  0.24655003972E+04  0.00000000000E+00 0. -1.
         25    2    1    2    0    0  0.38442178356E+03 -0.95261743412E+02 -0.16440106142E+04  0.16956630285E+04  0.12508916532E+03 0.  0.
          5    1    3    3  502    0  0.25730870545E+03 -0.92538197820E+01 -0.11433513082E+04  0.11719910791E+04  0.41800000000E+01 0. -1.
         -5    1    3    3    0  502  0.12711307811E+03 -0.86007923630E+02 -0.50065930598E+03  0.52367194943E+03  0.41800000000E+01 0. -1.
        -11    1    1    2    0    0 -0.20537833045E+03  0.81592235635E+02 -0.34048189547E+03  0.40591313440E+03  0.00000000000E+00 0. -1.
         11    1    1    2    0    0 -0.17904345311E+03  0.13669507777E+02 -0.40338558526E+03  0.44154653655E+03  0.00000000000E+00 0.  1.
</event>
<event>
 7    1  0.2899775E-009  0.1122920E+03  0.7561462E-02  0.1256383E+00
         -2   -1    0    0    0  501 -0.00000000000E+00  0.00000000000E+00  0.11222917530E+03  0.11222917530E+03  0.00000000000E+00 0. -1.
          2   -1    0    0  501    0  0.00000000000E+00 -0.00000000000E+00 -0.12221091995E+03  0.12221091995E+03  0.00000000000E+00 0.  1.
         25    2    1    2    0    0 -0.30919321258E+02 -0.25794103433E+02 -0.25201923949E+02  0.13380486244E+03  0.12508902447E+03 0.  0.
          5    1    3    3  502    0  0.42144738795E+02 -0.29949009543E+02  0.94514195046E+01  0.52724983749E+02  0.41800000000E+01 0.  1.
         -5    1    3    3    0  502 -0.73064060053E+02  0.41549061107E+01 -0.34653343454E+02  0.81079878692E+02  0.41800000000E+01 0.  1.
        -11    1    1    2    0    0 -0.28370551399E+02 -0.10086421326E+02  0.29308568790E+01  0.30252504093E+02  0.00000000000E+00 0. -1.
         11    1    1    2    0    0  0.59289872657E+02  0.35880524759E+02  0.12289322419E+02  0.70382728721E+02  0.00000000000E+00 0.  1.
</event>
<event>
 7    1  0.2899775E-009  0.1336223E+03  0.7561462E-02  0.1222178E+00
         -1   -1    0    0    0  501 -0.00000000000E+00  0.00000000000E+00  0.60213316162E+02  0.60213316162E+02  0.00000000000E+00 0.  1.
          1   -1    0    0  501    0  0.00000000000E+00 -0.00000000000E+00 -0.33370098823E+03  0.33370098823E+03  0.00000000000E+00 0. -1.
         25    2    1    2    0    0 -0.75295167874E+02 -0.22504786076E+02 -0.21226728373E+03  0.25861189941E+03  0.12508751766E+03 0.  0.
          5    1    3    3  502    0 -0.11014328665E+03 -0.12975723669E+02 -0.15168108967E+03  0.18794823319E+03  0.41800000000E+01 0.  1.
         -5    1    3    3    0  502  0.34848118771E+02 -0.95290624076E+01 -0.60586194068E+02  0.70663666222E+02  0.41800000000E+01 0.  1.
        -11    1    1    2    0    0  0.30923435455E+02 -0.35359414861E+02 -0.16630494472E+02  0.49830918375E+02  0.00000000000E+00 0.  1.
         11    1    1    2    0    0  0.44371732419E+02  0.57864200937E+02 -0.44589893864E+02  0.85471486607E+02  0.00000000000E+00 0. -1.
</event>
<event>
 7    1  0.2899775E-009  0.3674595E+03  0.7561462E-02  0.1055669E+00
          2   -1    0    0  501    0  0.00000000000E+00  0.00000000000E+00  0.28630983704E+04  0.28630983704E+04  0.00000000000E+00 0. -1.
         -2   -1    0    0    0  501 -0.00000000000E+00 -0.00000000000E+00 -0.67423174772E+02  0.67423174772E+02  0.00000000000E+00 0.  1.
         25    2    1    2    0    0  0.29897129127E+03  0.20659529884E+03  0.21513075554E+04  0.21853689052E+04  0.12509037997E+03 0.  0.
          5    1    3    3  502    0  0.13748085271E+03  0.98186814432E+02  0.13617449581E+04  0.13721911086E+04  0.41800000000E+01 0. -1.
         -5    1    3    3    0  502  0.16149043856E+03  0.10840848441E+03  0.78956259736E+03  0.81317779654E+03  0.41800000000E+01 0. -1.
        -11    1    1    2    0    0 -0.16970825735E+03 -0.70769602746E+02  0.27321698955E+03  0.32932772835E+03  0.00000000000E+00 0.  1.
         11    1    1    2    0    0 -0.12926303392E+03 -0.13582569610E+03  0.37115065063E+03  0.41582491162E+03  0.00000000000E+00 0. -1.
</event>
<event>
 7    1  0.2899775E-009  0.8555993E+02  0.7561462E-02  0.1313975E+00
          3   -1    0    0  501    0  0.00000000000E+00  0.00000000000E+00  0.20100217472E+03  0.20100217472E+03  0.00000000000E+00 0. -1.
         -3   -1    0    0    0  501 -0.00000000000E+00 -0.00000000000E+00 -0.89883366989E+02  0.89883366989E+02  0.00000000000E+00 0.  1.
         25    2    1    2    0    0  0.47661394448E+01  0.39869552885E+02  0.12752297524E+03  0.18308866242E+03  0.12508817594E+03 0.  0.
          5    1    3    3  502    0 -0.25074584758E+02 -0.37405025370E+02  0.65163032508E+02  0.79319379280E+02  0.41800000000E+01 0. -1.
         -5    1    3    3    0  502  0.29840724203E+02  0.77274578255E+02  0.62359942728E+02  0.10376928314E+03  0.41800000000E+01 0. -1.
        -11    1    1    2    0    0  0.56014595476E+01 -0.13230339768E+02 -0.56643732594E+02  0.58437408238E+02  0.00000000000E+00 0.  1.
         11    1    1    2    0    0 -0.10367598992E+02 -0.26639213117E+02  0.40239565093E+02  0.49359471059E+02  0.00000000000E+00 0. -1.
</event>
<event>
 7    1  0.2899775E-009  0.1427631E+03  0.7561462E-02  0.1209659E+00
          1   -1    0    0  501    0  0.00000000000E+00  0.00000000000E+00  0.14224112288E+04  0.14224112288E+04  0.00000000000E+00 0. -1.
         -1   -1    0    0    0  501 -0.00000000000E+00 -0.00000000000E+00 -0.19283014174E+02  0.19283014174E+02  0.00000000000E+00 0.  1.
         25    2    1    2    0    0  0.11192189932E+03  0.47752088312E+02  0.91492978195E+03  0.93142417461E+03  0.12509082170E+03 0.  0.
          5    1    3    3  502    0  0.55229740648E+02  0.58163522324E+02  0.22188556684E+03  0.23597456802E+03  0.41800000000E+01 0. -1.
         -5    1    3    3    0  502  0.56692158672E+02 -0.10411434012E+02  0.69304421511E+03  0.69544960659E+03  0.41800000000E+01 0. -1.
        -11    1    1    2    0    0 -0.47401094968E+02  0.22123529555E+02  0.20299497211E+03  0.20962650850E+03  0.00000000000E+00 0.  1.
         11    1    1    2    0    0 -0.64520804352E+02 -0.69875617866E+02  0.28520346061E+03  0.30064355990E+03  0.00000000000E+00 0. -1.
</event>
<event>
 7    1  0.2899775E-009  0.1974395E+03  0.7561462E-02  0.1151917E+00
         -1   -1    0    0    0  501 -0.00000000000E+00  0.00000000000E+00  0.33796624955E+02  0.33796624955E+02  0.00000000000E+00 0. -1.
          1   -1    0    0  501    0  0.00000000000E+00 -0.00000000000E+00 -0.14393291359E+04  0.14393291359E+04  0.00000000000E+00 0.  1.
         25    2    1    2    0    0 -0.64512218677E+02  0.16482990561E+03 -0.97155509675E+03  0.99543819939E+03  0.12508868312E+03 0.  0.
          5    1    3    3  502    0 -0.75933211370E+02  0.18050068808E+03 -0.90683235913E+03  0.92774390375E+03  0.41800000000E+01 0. -1.
         -5    1    3    3    0  502  0.11420992693E+02 -0.15670782462E+02 -0.64722737619E+02  0.67694295638E+02  0.41800000000E+01 0. -1.
        -11    1    1    2    0    0  0.44339973531E+02 -0.75156182033E+02 -0.10717931564E+03  0.13820958958E+03  0.00000000000E+00 0. -1.
         11    1    1    2    0    0  0.20172245146E+02 -0.89673723581E+02 -0.32679809853E+03  0.33947797186E+03  0.00000000000E+00 0.  1.
</event>
<event>
 7    1  0.3894770E-009  0.1148872E+03  0.7561462E-02  0.1251778E+00
         -3   -1    0    0    0  501 -0.00000000000E+00  0.00000000000E+00  0.53911659526E+02  0.53911659526E+02  0.00000000000E+00 0.  1.
          3   -1    0    0  501    0  0.00000000000E+00 -0.00000000000E+00 -0.42358624547E+03  0.42358624547E+03  0.00000000000E+00 0. -1.
         25    2    1    2    0    0  0.94814224182E+02 -0.34708449073E+01 -0.12980030891E+03  0.20371037398E+03  0.12509201574E+03 0.  0.
          5    1    3    3  502    0  0.97647643647E+02  0.17493932631E+02 -0.33141609536E+02  0.10467539669E+03  0.41800000000E+01 0.  1.
         -5    1    3    3    0  502 -0.28334194649E+01 -0.20964777538E+02 -0.96658699370E+02  0.99034977291E+02  0.41800000000E+01 0.  1.
        -11    1    1    2    0    0 -0.36851395607E+02  0.27695305714E+02 -0.30705177388E+02  0.55388295110E+02  0.00000000000E+00 0.  1.
         11    1    1    2    0    0 -0.57962828574E+02 -0.24224460807E+02 -0.20916909965E+03  0.21839923591E+03  0.00000000000E+00 0. -1.
</event>
<event>
 7    1  0.2899775E-009  0.1221321E+03  0.7561462E-02  0.1239621E+00
          1   -1    0    0  501    0  0.00000000000E+00  0.00000000000E+00  0.13015640612E+04  0.13015640612E+04  0.00000000000E+00 0. -1.
         -1   -1    0    0    0  501 -0.00000000000E+00 -0.00000000000E+00 -0.16139113938E+02  0.16139113938E+02  0.00000000000E+00 0.  1.
         25    2    1    2    0    0  0.62766395785E+02  0.49787115771E+02  0.94219349701E+03  0.95383184847E+03  0.12509289350E+03 0.  0.
          5    1    3    3  502    0 -0.27791706308E+02  0.29750215547E+02  0.12852515943E+03  0.13488381397E+03  0.41800000000E+01 0. -1.
         -5    1    3    3    0  502  0.90558102092E+02  0.20036900224E+02  0.81366833758E+03  0.81894803450E+03  0.41800000000E+01 0. -1.
        -11    1    1    2    0    0 -0.10943518536E+02 -0.57118143311E+02  0.25264006041E+03  0.25924745518E+03  0.00000000000E+00 0.  1.
         11    1    1    2    0    0 -0.51822877248E+02  0.73310275407E+01  0.90591389796E+02  0.10462387145E+03  0.00000000000E+00 0. -1.
</event>
<event>
 7    1  0.2899775E-009  0.1010988E+03  0.7561462E-02  0.1278002E+00
         -2   -1    0    0    0  501 -0.00000000000E+00  0.00000000000E+00  0.48366536770E+03  0.48366536770E+03  0.00000000000E+00 0.  1.
          2   -1    0    0  501    0  0.00000000000E+00 -0.00000000000E+00 -0.39122568287E+02  0.39122568287E+02  0.00000000000E+00 0. -1.
         25    2    1    2    0    0  0.63673412789E+02  0.46236474345E+02  0.31514091063E+03  0.34805927940E+03  0.12505740030E+03 0.  0.
          5    1    3    3  502    0  0.51704779564E+02 -0.63224645818E+01  0.27701831151E+03  0.28190419490E+03  0.41800000000E+01 0.  1.
         -5    1    3    3    0  502  0.11968633225E+02  0.52558938927E+02  0.38122599117E+02  0.66155084504E+02  0.41800000000E+01 0.  1.
        -11    1    1    2    0    0 -0.49428094661E+01 -0.35902519956E+02  0.10359482944E+03  0.10975113207E+03  0.00000000000E+00 0.  1.
         11    1    1    2    0    0 -0.58730603323E+02 -0.10333954389E+02  0.25807059347E+02  0.64977524515E+02  0.00000000000E+00 0. -1.
</event>
<event>
 7    1  0.2899775E-009  0.9577137E+02  0.7561462E-02  0.1289448E+00
          1   -1    0    0  501    0  0.00000000000E+00  0.00000000000E+00  0.26763261373E+03  0.26763261373E+03  0.00000000000E+00 0. -1.
         -1   -1    0    0    0  501 -0.00000000000E+00 -0.00000000000E+00 -0.79546522814E+02  0.79546522814E+02  0.00000000000E+00 0.  1.
         25    2    1    2    0    0  0.43713186430E+02 -0.75104982269E+02  0.63787356758E+02  0.16513094745E+03  0.12509117432E+03 0.  0.
          5    1    3    3  502    0  0.12841915497E+01 -0.43001772852E+02 -0.33150754983E+02  0.54472438649E+02  0.41800000000E+01 0.  1.
         -5    1    3    3    0  502  0.42428994880E+02 -0.32103209416E+02  0.96938111742E+02  0.11065850880E+03  0.41800000000E+01 0.  1.
        -11    1    1    2    0    0 -0.36475011817E+02  0.24755218540E+02 -0.37740268854E+01  0.44243537505E+02  0.00000000000E+00 0.  1.
         11    1    1    2    0    0 -0.72381746133E+01  0.50349763729E+02  0.12807276104E+03  0.13780465159E+03  0.00000000000E+00 0. -1.
</event>
<event>
 7    1  0.2899775E-009  0.2607825E+03  0.7561462E-02  0.1106674E+00
          2   -1    0    0  501    0  0.00000000000E+00  0.00000000000E+00  0.11060995703E+04  0.11060995703E+04  0.00000000000E+00 0.  1.
         -2   -1    0    0    0  501 -0.00000000000E+00 -0.00000000000E+00 -0.10489027933E+03  0.10489027933E+03  0.00000000000E+00 0. -1.
         25    2    1    2    0    0  0.17752028985E+03  0.18050550862E+03  0.86225652174E+03  0.90731766710E+03  0.12507336963E+03 0.  0.
          5    1    3    3  502    0  0.27643834311E+02  0.71097040187E+02  0.12038470650E+03  0.14257952398E+03  0.41800000000E+01 0.  1.
         -5    1    3    3    0  502  0.14987645554E+03  0.10940846843E+03  0.74187181524E+03  0.76473814312E+03  0.41800000000E+01 0.  1.
        -11    1    1    2    0    0 -0.10262195792E+03 -0.14240018464E+03  0.52735165259E+02  0.18327595720E+03  0.00000000000E+00 0. -1.
         11    1    1    2    0    0 -0.74898331934E+02 -0.38105323972E+02  0.86217604003E+02  0.12039622536E+03  0.00000000000E+00 0.  1.
</event>
<event>
 7    1  0.2899775E-009  0.3295622E+02  0.7561462E-02  0.1567537E+00
          2   -1    0    0  501    0  0.00000000000E+00  0.00000000000E+00  0.14122887361E+03  0.14122887361E+03  0.00000000000E+00 0. -1.
         -2   -1    0    0    0  501 -0.00000000000E+00 -0.00000000000E+00 -0.87169018168E+02  0.87169018168E+02  0.00000000000E+00 0.  1.
         25    2    1    2    0    0  0.15382440227E+01 -0.12646480156E+02  0.83355011411E+01  0.12600884043E+03  0.12508576111E+03 0.  0.
          5    1    3    3  502    0  0.12915494983E+02 -0.12048181388E+02  0.65295068150E+02  0.67770841887E+02  0.41800000000E+01 0. -1.
         -5    1    3    3    0  502 -0.11377250960E+02 -0.59829876772E+00 -0.56959567008E+02  0.58237998546E+02  0.41800000000E+01 0. -1.
        -11    1    1    2    0    0 -0.23611171321E+01 -0.11361513928E+02 -0.25072521678E+02  0.27627707400E+02  0.00000000000E+00 0.  1.
         11    1    1    2    0    0  0.82287310939E+00  0.24007994084E+02  0.70796875984E+02  0.74761343950E+02  0.00000000000E+00 0. -1.
</event>
<event>
 7    1  0.2899775E-009  0.1560001E+03  0.7561462E-02  0.1193288E+00
          2   -1    0    0  501    0  0.00000000000E+00  0.00000000000E+00  0.21697104734E+03  0.21697104734E+03  0.00000000000E+00 0. -1.
         -2   -1    0    0    0  501 -0.00000000000E+00 -0.00000000000E+00 -0.20118396886E+03  0.20118396886E+03  0.00000000000E+00 0.  1.
         25    2    1    2    0    0  0.14841034050E+03 -0.16893877924E+02  0.10543887919E+03  0.22153341724E+03  0.12509462590E+03 0.  0.
          5    1    3    3  502    0  0.54999763671E+02  0.17510044288E+02  0.10726921068E+03  0.12188409090E+03  0.41800000000E+01 0. -1.
         -5    1    3    3    0  502  0.93410576826E+02 -0.34403922212E+02 -0.18303314846E+01  0.99649326339E+02  0.41800000000E+01 0. -1.
        -11    1    1    2    0    0 -0.28814636833E+02 -0.12394052037E+02 -0.63384613705E+02  0.70721319814E+02  0.00000000000E+00 0.  1.
         11    1    1    2    0    0 -0.11959570366E+03  0.29287929961E+02 -0.26267187012E+02  0.12590027915E+03  0.00000000000E+00 0. -1.
</event>
<event>
 7    1  0.2899775E-009  0.9213282E+02  0.7561462E-02  0.1297767E+00
          2   -1    0    0  501    0  0.00000000000E+00  0.00000000000E+00  0.19785415564E+03  0.19785415564E+03  0.00000000000E+00 0. -1.
         -2   -1    0    0    0  501 -0.00000000000E+00 -0.00000000000E+00 -0.66107340589E+02  0.66107340589E+02  0.00000000000E+00 0.  1.
         25    2    1    2    0    0 -0.11613920147E+02 -0.37676579579E+02  0.68248189381E+02  0.14785101370E+03  0.12509076348E+03 0.  0.
          5    1    3    3  502    0  0.23583065771E+02  0.11541564310E+02  0.81535099980E+02  0.85760210043E+02  0.41800000000E+01 0. -1.
         -5    1    3    3    0  502 -0.35196985918E+02 -0.49218143889E+02 -0.13286910598E+02  0.62090803658E+02  0.41800000000E+01 0. -1.
        -11    1    1    2    0    0 -0.34469189101E+02  0.37511197042E+02  0.29784890008E+02  0.59011478320E+02  0.00000000000E+00 0.  1.
         11    1    1    2    0    0  0.46083109248E+02  0.16538253746E+00  0.33713735662E+02  0.57099004208E+02  0.00000000000E+00 0. -1.
</event>
<event>
 7    1  0.2899775E-009  0.1507405E+03  0.7561462E-02  0.1199566E+00
         -2   -1    0    0    0  501 -0.00000000000E+00  0.00000000000E+00  0.59812273878E+02  0.59812273878E+02  0.00000000000E+00 0.  1.
          2   -1    0    0  501    0  0.00000000000E+00 -0.00000000000E+00 -0.52726249456E+03  0.52726249456E+03  0.00000000000E+00 0. -1.
         25    2    1    2    0    0 -0.10139770807E+03  0.37813814509E+02 -0.10009376481E+03  0.19333148998E+03  0.12508766324E+03 0.  0.
          5    1    3    3  502    0 -0.94384568955E+02 -0.27918885022E+02 -0.68170342506E+02  0.11980224954E+03  0.41800000000E+01 0.  1.
         -5    1    3    3    0  502 -0.70131391113E+01  0.65732699531E+02 -0.31923422305E+02  0.73529240438E+02  0.41800000000E+01 0.  1.
        -11    1    1    2    0    0  0.66654478133E+02 -0.64626639633E+02 -0.29347740872E+03  0.30781229903E+03  0.00000000000E+00 0. -1.
         11    1    1    2    0    0  0.34743229934E+02  0.26812825124E+02 -0.73879047152E+02  0.85930979428E+02  0.00000000000E+00 0.  1.
</event>
<event>
 7    1  0.2899775E-009  0.1120850E+03  0.7561462E-02  0.1256757E+00
         -2   -1    0    0    0  501 -0.00000000000E+00  0.00000000000E+00  0.20025274417E+02  0.20025274417E+02  0.00000000000E+00 0.  1.
          2   -1    0    0  501    0  0.00000000000E+00 -0.00000000000E+00 -0.10208599419E+04  0.10208599419E+04  0.00000000000E+00 0. -1.
         25    2    1    2    0    0 -0.39685448305E+02 -0.15211952029E+02 -0.84914861095E+03  0.85936482157E+03  0.12509274475E+03 0.  0.
          5    1    3    3  502    0 -0.68022556816E+02 -0.51554326027E+02 -0.51868561987E+03  0.52567781143E+03  0.41800000000E+01 0.  1.
         -5    1    3    3    0  502  0.28337108512E+02  0.36342373998E+02 -0.33046299107E+03  0.33368701014E+03  0.41800000000E+01 0.  1.
        -11    1    1    2    0    0 -0.14829484249E+02  0.32109703119E+02 -0.93723360146E+02  0.10017492138E+03  0.00000000000E+00 0. -1.
         11    1    1    2    0    0  0.54514932553E+02 -0.16897751089E+02 -0.57962696382E+02  0.81345473353E+02  0.00000000000E+00 0.  1.
</event>
<event>
 7    1  0.2899775E-009  0.1020486E+03  0.7561462E-02  0.1276046E+00
         -2   -1    0    0    0  501 -0.00000000000E+00  0.00000000000E+00  0.74511515112E+03  0.74511515112E+03  0.00000000000E+00 0.  1.
          2   -1    0    0  501    0  0.00000000000E+00 -0.00000000000E+00 -0.39302720423E+02  0.39302720423E+02  0.00000000000E+00 0. -1.
         25    2    1    2    0    0  0.85925845935E+02 -0.44521798667E+02  0.57713383029E+03  0.59841170588E+03  0.12509064756E+03 0.  0.
          5    1    3    3  502    0  0.67731898011E+02 -0.14910457947E+02  0.54933548841E+03  0.55371191335E+03  0.41800000000E+01 0. -1.
         -5    1    3    3    0  502  0.18193947924E+02 -0.29611340720E+02  0.27798341884E+02  0.44699792525E+02  0.41800000000E+01 0. -1.
        -11    1    1    2    0    0 -0.38335801944E+02  0.69080451989E+01 -0.49379111326E+01  0.39264968681E+02  0.00000000000E+00 0. -1.
         11    1    1    2    0    0 -0.47590043991E+02  0.37613753468E+02  0.13361651154E+03  0.14674119699E+03  0.00000000000E+00 0.  1.
</event>
<event>
 7    1  0.2899775E-009  0.7877684E+02  0.7561462E-02  0.1332559E+00
         -2   -1    0    0    0  501 -0.00000000000E+00  0.00000000000E+00  0.24564635323E+03  0.24564635323E+03  0.00000000000E+00 0.  1.
          2   -1    0    0  501    0  0.00000000000E+00 -0.00000000000E+00 -0.75244365315E+02  0.75244365315E+02  0.00000000000E+00 0. -1.
         25    2    1    2    0    0 -0.43500577918E+02 -0.65329699847E+02  0.64776703713E+02  0.16125982543E+03  0.12509372483E+03 0.  0.
          5    1    3    3  502    0 -0.29358738388E+02 -0.42973012854E+02  0.10247901861E+03  0.11501320363E+03  0.41800000000E+01 0.  1.
         -5    1    3    3    0  502 -0.14141839530E+02 -0.22356686994E+02 -0.37702314901E+02  0.46246621795E+02  0.41800000000E+01 0.  1.
        -11    1    1    2    0    0  0.24563696484E+02  0.39870290019E+02  0.11692084476E+03  0.12595038369E+03  0.00000000000E+00 0.  1.
         11    1    1    2    0    0  0.18936881434E+02  0.25459409828E+02 -0.11295560559E+02  0.33680509432E+02  0.00000000000E+00 0. -1.
</event>
<event>
 7    1  0.2899775E-009  0.1520434E+03  0.7561462E-02  0.1197984E+00
          1   -1    0    0  501    0  0.00000000000E+00  0.00000000000E+00  0.73542128600E+03  0.73542128600E+03  0.00000000000E+00 0. -1.
         -1   -1    0    0    0  501 -0.00000000000E+00 -0.00000000000E+00 -0.12978971086E+03  0.12978971086E+03  0.00000000000E+00 0.  1.
         25    2    1    2    0    0 -0.48632468154E+02 -0.11336011419E+03 -0.56501479621E+02  0.18454175707E+03  0.12509040912E+03 0.  0.
          5    1    3    3  502    0 -0.46740760095E+02 -0.12374856639E+02 -0.67194965325E+02  0.82888307355E+02  0.41800000000E+01 0. -1.
         -5    1    3    3    0  502 -0.18917080592E+01 -0.10098525755E+03  0.10693485704E+02  0.10165344972E+03  0.41800000000E+01 0. -1.
        -11    1    1    2    0    0 -0.25866308198E+02  0.51505716308E+02  0.18345554593E+03  0.19229623513E+03  0.00000000000E+00 0.  1.
         11    1    1    2    0    0  0.74498776352E+02  0.61854397886E+02  0.47867750884E+03  0.48837300466E+03  0.00000000000E+00 0. -1.
</event>
<event>
 7    1  0.2899775E-009  0.1419458E+03  0.7561462E-02  0.1210735E+00
         -2   -1    0    0    0  501 -0.00000000000E+00  0.00000000000E+00  0.50055607317E+02  0.50055607317E+02  0.00000000000E+00 0.  1.
          2   -1    0    0  501    0  0.00000000000E+00 -0.00000000000E+00 -0.56099009416E+03  0.56099009416E+03  0.00000000000E+00 0. -1.
         25    2    1    2    0    0 -0.86797396396E+02 -0.85927621499E+02 -0.21331732711E+03  0.27580634313E+03  0.12509001842E+03 0.  0.
          5    1    3    3  502    0 -0.96578542320E+02 -0.63961198115E+02 -0.81374770853E+02  0.14162547593E+03  0.41800000000E+01 0.  1.
         -5    1    3    3    0  502  0.97811459245E+01 -0.21966423385E+02 -0.13194255625E+03  0.13418086720E+03  0.41800000000E+01 0.  1.
        -11    1    1    2    0    0  0.66588387212E+02  0.99140173500E+02 -0.28261657412E+03  0.30681413801E+03  0.00000000000E+00 0. -1.
         11    1    1    2    0    0  0.20209009183E+02 -0.13212552001E+02 -0.15000585614E+02  0.28425220339E+02  0.00000000000E+00 0.  1.
</event>
<event>
 7    1  0.2899775E-009  0.7736303E+02  0.7561462E-02  0.1336706E+00
         -2   -1    0    0    0  501 -0.00000000000E+00  0.00000000000E+00  0.66319578823E+02  0.66319578823E+02  0.00000000000E+00 0.  1.
          2   -1    0    0  501    0  0.00000000000E+00 -0.00000000000E+00 -0.30408477408E+03  0.30408477408E+03  0.00000000000E+00 0. -1.
         25    2    1    2    0    0  0.29783055444E+02  0.29560893096E+02 -0.23617164456E+03  0.27052848955E+03  0.12509093162E+03 0.  0.
          5    1    3    3  502    0 -0.11870602698E+02 -0.30446074134E+02 -0.12571187141E+02  0.35261619145E+02  0.41800000000E+01 0.  1.
         -5    1    3    3    0  502  0.41653658143E+02  0.60006967230E+02 -0.22360045742E+03  0.23526687041E+03  0.41800000000E+01 0.  1.
        -11    1    1    2    0    0 -0.14956724061E+01 -0.17990775842E+02 -0.44025615602E+02  0.47583189054E+02  0.00000000000E+00 0. -1.
         11    1    1    2    0    0 -0.28287383038E+02 -0.11570117254E+02  0.42432064909E+02  0.52292674295E+02  0.00000000000E+00 0.  1.
</event>
<event>
 7    1  0.2899775E-009  0.7119731E+02  0.7561462E-02  0.1356068E+00
         -3   -1    0    0    0  501 -0.00000000000E+00  0.00000000000E+00  0.65756353026E+02  0.65756353026E+02  0.00000000000E+00 0.  1.
          3   -1    0    0  501    0  0.00000000000E+00 -0.00000000000E+00 -0.18434274231E+03  0.18434274231E+03  0.00000000000E+00 0. -1.
         25    2    1    2    0    0  0.84079967500E+01 -0.57243469334E+02 -0.82916324701E+02  0.16085845482E+03  0.12511121610E+03 0.  0.
          5    1    3    3  502    0  0.30340374876E+02 -0.17104043822E+02  0.25331248928E+02  0.43269287433E+02  0.41800000000E+01 0. -1.
         -5    1    3    3    0  502 -0.21932378126E+02 -0.40139425511E+02 -0.10824757363E+03  0.11758916739E+03  0.41800000000E+01 0. -1.
        -11    1    1    2    0    0  0.66108837520E+01  0.24215643891E+02  0.13210712458E+02  0.28365897072E+02  0.00000000000E+00 0.  1.
         11    1    1    2    0    0 -0.15018880502E+02  0.33027825442E+02 -0.48880777041E+02  0.60874743442E+02  0.00000000000E+00 0. -1.
</event>
<event>
 7    1  0.2899775E-009  0.1100990E+03  0.7561462E-02  0.1260387E+00
          2   -1    0    0  501    0  0.00000000000E+00  0.00000000000E+00  0.85559904607E+02  0.85559904607E+02  0.00000000000E+00 0. -1.
         -2   -1    0    0    0  501 -0.00000000000E+00 -0.00000000000E+00 -0.17283462526E+03  0.17283462526E+03  0.00000000000E+00 0.  1.
         25    2    1    2    0    0  0.61139462736E+01  0.51262867692E+02 -0.72473040941E+02  0.15350050684E+03  0.12507918289E+03 0.  0.
          5    1    3    3  502    0  0.60349057986E+02  0.30215035513E+02 -0.66548516959E+02  0.94874309907E+02  0.41800000000E+01 0. -1.
         -5    1    3    3    0  502 -0.54235111712E+02  0.21047832180E+02 -0.59245239821E+01  0.58626196929E+02  0.41800000000E+01 0. -1.
        -11    1    1    2    0    0 -0.42578443188E+02 -0.29272616788E+02  0.13942635080E+02  0.53518286510E+02  0.00000000000E+00 0. -1.
         11    1    1    2    0    0  0.36464496915E+02 -0.21990250904E+02 -0.28744314788E+02  0.51375736517E+02  0.00000000000E+00 0.  1.
</event>
<event>
 7    1  0.2899775E-009  0.1244010E+03  0.7561462E-02  0.1236008E+00
         -1   -1    0    0    0  501 -0.00000000000E+00  0.00000000000E+00  0.44714377272E+03  0.44714377272E+03  0.00000000000E+00 0.  1.
          1   -1    0    0  501    0  0.00000000000E+00 -0.00000000000E+00 -0.50115127699E+02  0.50115127699E+02  0.00000000000E+00 0. -1.
         25    2    1    2    0    0 -0.59456075160E+02  0.74061692230E+02  0.15065913592E+03  0.21763537038E+03  0.12508724984E+03 0.  0.
          5    1    3    3  502    0  0.13681363126E+02 -0.21454078034E+02  0.13159068270E+01  0.25819782572E+02  0.41800000000E+01 0. -1.
         -5    1    3    3    0  502 -0.73137438286E+02  0.95515770264E+02  0.14934322910E+03  0.19181558781E+03  0.41800000000E+01 0. -1.
        -11    1    1    2    0    0  0.18934102661E+02 -0.54402018522E+02  0.22003588560E+03  0.22745080966E+03  0.00000000000E+00 0.  1.
         11    1    1    2    0    0  0.40521972499E+02 -0.19659673708E+02  0.26333623493E+02  0.52172720379E+02  0.00000000000E+00 0. -1.
</event>
<event>
 7    1  0.2899775E-009  0.1564204E+03  0.7561462E-02  0.1192798E+00
         -1   -1    0    0    0  501 -0.00000000000E+00  0.00000000000E+00  0.17413082511E+03  0.17413082511E+03  0.00000000000E+00 0.  1.
          1   -1    0    0  501    0  0.00000000000E+00 -0.00000000000E+00 -0.20042282270E+03  0.20042282270E+03  0.00000000000E+00 0. -1.
         25    2    1    2    0    0 -0.18882101970E+02  0.14958785202E+03 -0.34650110471E+02  0.19894857378E+03  0.12508735191E+03 0.  0.
          5    1    3    3  502    0 -0.32754427047E+02  0.62149893471E+02 -0.73870407417E+02  0.10202828648E+03  0.41800000000E+01 0. -1.
         -5    1    3    3    0  502  0.13872325077E+02  0.87437958549E+02  0.39220296946E+02  0.96920287303E+02  0.41800000000E+01 0. -1.
        -11    1    1    2    0    0  0.27385683712E+02 -0.11494746838E+03  0.43131954333E+02  0.12579054672E+03  0.00000000000E+00 0.  1.
         11    1    1    2    0    0 -0.85035817426E+01 -0.34640383636E+02 -0.34773841454E+02  0.49814527302E+02  0.00000000000E+00 0. -1.
</event>
<event>
 7    1  0.2899775E-009  0.1094036E+03  0.7561462E-02  0.1261678E+00
          2   -1    0    0  501    0  0.00000000000E+00  0.00000000000E+00  0.45290671698E+03  0.45290671698E+03  0.00000000000E+00 0. -1.
         -2   -1    0    0    0  501 -0.00000000000E+00 -0.00000000000E+00 -0.30533774365E+02  0.30533774365E+02  0.00000000000E+00 0.  1.
         25    2    1    2    0    0 -0.38329904462E+02 -0.17654659684E+02  0.20956709883E+03  0.24768283306E+03  0.12509016068E+03 0.  0.
          5    1    3    3  502    0 -0.51268005575E+02  0.40911084812E+02  0.14640396709E+03  0.16047965365E+03  0.41800000000E+01 0. -1.
         -5    1    3    3    0  502  0.12938101112E+02 -0.58565744496E+02  0.63163131742E+02  0.87203179416E+02  0.41800000000E+01 0. -1.
        -11    1    1    2    0    0  0.44152151282E+02 -0.24439799519E+02  0.16115828452E+03  0.16887483214E+03  0.00000000000E+00 0.  1.
         11    1    1    2    0    0 -0.58222468198E+01  0.42094459203E+02  0.51647559272E+02  0.66882826139E+02  0.00000000000E+00 0. -1.
</event>
<event>
 7    1  0.2899775E-009  0.1157671E+03  0.7561462E-02  0.1250248E+00
         -1   -1    0    0    0  501 -0.00000000000E+00  0.00000000000E+00  0.36190579559E+02  0.36190579559E+02  0.00000000000E+00 0.  1.
          1   -1    0    0  501    0  0.00000000000E+00 -0.00000000000E+00 -0.38613993132E+03  0.38613993132E+03  0.00000000000E+00 0. -1.
         25    2    1    2    0    0  0.24795907434E+02 -0.30564632647E+02 -0.17926701911E+03  0.22213115154E+03  0.12512613856E+03 0.  0.
          5    1    3    3  502    0  0.47113597392E+02  0.36447178237E+02 -0.93577151492E+02  0.11100560140E+03  0.41800000000E+01 0.  1.
         -5    1    3    3    0  502 -0.22317689958E+02 -0.67011810884E+02 -0.85689867616E+02  0.11112555014E+03  0.41800000000E+01 0.  1.
        -11    1    1    2    0    0  0.15123299179E+02 -0.27040912127E+02 -0.78551240780E+02  0.84440645040E+02  0.00000000000E+00 0. -1.
         11    1    1    2    0    0 -0.39919206613E+02  0.57605544774E+02 -0.92131091869E+02  0.11575871429E+03  0.00000000000E+00 0.  1.
</event>
<event>
 7    1  0.2899775E-009  0.1325543E+03  0.7561462E-02  0.1223714E+00
          1   -1    0    0  501    0  0.00000000000E+00  0.00000000000E+00  0.28161936100E+03  0.28161936100E+03  0.00000000000E+00 0. -1.
         -1   -1    0    0    0  501 -0.00000000000E+00 -0.00000000000E+00 -0.64020908607E+02  0.64020908607E+02  0.00000000000E+00 0.  1.
         25    2    1    2    0    0 -0.60559074595E+02 -0.53708913550E+02  0.14925110383E+03  0.21088769551E+03  0.12508268951E+03 0.  0.
          5    1    3    3  502    0  0.33729103020E+02  0.96241958325E+01  0.34688279015E+02  0.49507844196E+02  0.41800000000E+01 0.  1.
         -5    1    3    3    0  502 -0.94288177614E+02 -0.63333109383E+02  0.11456282481E+03  0.16137985132E+03  0.41800000000E+01 0.  1.
        -11    1    1    2    0    0  0.98099893535E+01  0.63657645984E+02  0.38739973364E+02  0.75161940632E+02  0.00000000000E+00 0.  1.
         11    1    1    2    0    0  0.50749085241E+02 -0.99487324337E+01  0.29607375197E+02  0.59590633458E+02  0.00000000000E+00 0. -1.
</event>
<event>
 7    1  0.2899775E-009  0.2008552E+03  0.7561462E-02  0.1149019E+00
         -1   -1    0    0    0  501 -0.00000000000E+00  0.00000000000E+00  0.44482478524E+02  0.44482478524E+02  0.00000000000E+00 0.  1.
          1   -1    0    0  501    0  0.00000000000E+00 -0.00000000000E+00 -0.11530535749E+04  0.11530535749E+04  0.00000000000E+00 0. -1.
         25    2    1    2    0    0 -0.16269529627E+03 -0.72501176518E+02 -0.80524119400E+03  0.83413765315E+03  0.12508422705E+03 0.  0.
          5    1    3    3  502    0 -0.16436653890E+03 -0.28067096837E+02 -0.70388317605E+03  0.72337619464E+03  0.41800000000E+01 0.  1.
         -5    1    3    3    0  502  0.16712426346E+01 -0.44434079681E+02 -0.10135801795E+03  0.11076145851E+03  0.41800000000E+01 0.  1.
        -11    1    1    2    0    0  0.12940256609E+03  0.24291805363E+02 -0.25678627291E+03  0.28857287792E+03  0.00000000000E+00 0. -1.
         11    1    1    2    0    0  0.33292730176E+02  0.48209371155E+02 -0.46543629431E+02  0.74825522319E+02  0.00000000000E+00 0.  1.
</event>
<event>
 7    1  0.2899775E-009  0.1500900E+03  0.7561462E-02  0.1200362E+00
         -2   -1    0    0    0  501 -0.00000000000E+00  0.00000000000E+00  0.40672260499E+02  0.40672260499E+02  0.00000000000E+00 0.  1.
          2   -1    0    0  501    0  0.00000000000E+00 -0.00000000000E+00 -0.71906429477E+03  0.71906429477E+03  0.00000000000E+00 0. -1.
         25    2    1    2    0    0 -0.40391641321E+01 -0.12834495321E+03 -0.29296026611E+03  0.34345655118E+03  0.12509173903E+03 0.  0.
          5    1    3    3  502    0  0.28698979504E+02 -0.44726292319E+01 -0.71344873524E+01  0.30199489178E+02  0.41800000000E+01 0.  1.
         -5    1    3    3    0  502 -0.32738143636E+02 -0.12387232397E+03 -0.28582577875E+03  0.31325706200E+03  0.41800000000E+01 0.  1.
        -11    1    1    2    0    0 -0.23614510082E+02  0.10110054409E+03 -0.18516313370E+03  0.21228365737E+03  0.00000000000E+00 0.  1.
         11    1    1    2    0    0  0.27653674214E+02  0.27244409112E+02 -0.20026863446E+03  0.20399634672E+03  0.00000000000E+00 0. -1.
</event>
<event>
 7    1  0.2899775E-009  0.1252436E+03  0.7561462E-02  0.1234689E+00
         -2   -1    0    0    0  501 -0.00000000000E+00  0.00000000000E+00  0.41659260657E+02  0.41659260657E+02  0.00000000000E+00 0.  1.
          2   -1    0    0  501    0  0.00000000000E+00 -0.00000000000E+00 -0.11772928230E+04  0.11772928230E+04  0.00000000000E+00 0. -1.
         25    2    1    2    0    0  0.45534705322E+02  0.54394390402E+02 -0.10819289288E+04  0.10914448617E+04  0.12509804165E+03 0.  0.
          5    1    3    3  502    0  0.79286714153E+02  0.61670074086E+02 -0.60932723015E+03  0.61756516003E+03  0.41800000000E+01 0. -1.
         -5    1    3    3    0  502 -0.33752008831E+02 -0.72756836847E+01 -0.47260169863E+03  0.47387970163E+03  0.41800000000E+01 0. -1.
        -11    1    1    2    0    0  0.20987588581E+02  0.94086646328E+01 -0.62468320333E+01  0.23833269920E+02  0.00000000000E+00 0.  1.
         11    1    1    2    0    0 -0.66522293903E+02 -0.63803055035E+02 -0.47457801579E+02  0.10367395212E+03  0.00000000000E+00 0. -1.
</event>
<event>
 7    1  0.2899775E-009  0.1069608E+03  0.7561462E-02  0.1266304E+00
          2   -1    0    0  501    0  0.00000000000E+00  0.00000000000E+00  0.50942619793E+03  0.50942619793E+03  0.00000000000E+00 0. -1.
         -2   -1    0    0    0  501 -0.00000000000E+00 -0.00000000000E+00 -0.28406955726E+02  0.28406955726E+02  0.00000000000E+00 0.  1.
         25    2    1    2    0    0  0.27429952916E+02 -0.35304225306E+02  0.22306158783E+03  0.25961829708E+03  0.12508556101E+03 0.  0.
          5    1    3    3  502    0 -0.36783237140E+02 -0.24723122703E+02  0.16944095869E+03  0.17519118189E+03  0.41800000000E+01 0.  1.
         -5    1    3    3    0  502  0.64213190056E+02 -0.10581102603E+02  0.53620629133E+02  0.84427115183E+02  0.41800000000E+01 0.  1.
        -11    1    1    2    0    0  0.32528662989E+02 -0.35853381640E+01  0.78169246950E+02  0.84743139748E+02  0.00000000000E+00 0.  1.
         11    1    1    2    0    0 -0.59958615905E+02  0.38889563470E+02  0.17978840743E+03  0.19347171683E+03  0.00000000000E+00 0. -1.
</event>
<event>
 7    1  0.2899775E-009  0.1494325E+03  0.7561462E-02  0.1201172E+00
         -2   -1    0    0    0  501 -0.00000000000E+00  0.00000000000E+00  0.83377672738E+02  0.83377672738E+02  0.00000000000E+00 0. -1.
          2   -1    0    0  501    0  0.00000000000E+00 -0.00000000000E+00 -0.56784211188E+03  0.56784211188E+03  0.00000000000E+00 0.  1.
         25    2    1    2    0    0  0.90864965782E+02 -0.62144774719E+02 -0.23232841861E+02  0.16824267690E+03  0.12508964129E+03 0.  0.
          5    1    3    3  502    0 -0.31653598842E+02 -0.10744575853E+02 -0.55592909416E+01  0.34143437813E+02  0.41800000000E+01 0. -1.
         -5    1    3    3    0  502  0.12251856462E+03 -0.51400198866E+02 -0.17673550919E+02  0.13409923908E+03  0.41800000000E+01 0. -1.
        -11    1    1    2    0    0  0.50542172789E+01  0.30984678982E+02 -0.46129822485E+02  0.55799247006E+02  0.00000000000E+00 0. -1.
         11    1    1    2    0    0 -0.95919183061E+02  0.31160095737E+02 -0.41510177480E+03  0.42717786071E+03  0.00000000000E+00 0.  1.
</event>
<event>
 7    1  0.2899775E-009  0.1175748E+03  0.7561462E-02  0.1247152E+00
         -2   -1    0    0    0  501 -0.00000000000E+00  0.00000000000E+00  0.15241597532E+03  0.15241597532E+03  0.00000000000E+00 0.  1.
          2   -1    0    0  501    0  0.00000000000E+00 -0.00000000000E+00 -0.10513420956E+03  0.10513420956E+03  0.00000000000E+00 0. -1.
         25    2    1    2    0    0  0.46152260295E+02 -0.38610179629E+02  0.51649828995E+02  0.14810432415E+03  0.12508560626E+03 0.  0.
          5    1    3    3  502    0  0.46554897845E+02 -0.81857643437E+02  0.43832987669E+02  0.10395593062E+03  0.41800000000E+01 0. -1.
         -5    1    3    3    0  502 -0.40263755079E+00  0.43247463808E+02  0.78168413258E+01  0.44148393528E+02  0.41800000000E+01 0. -1.
        -11    1    1    2    0    0 -0.34431928759E+02 -0.18533104944E+02  0.22618176881E+02  0.45173173703E+02  0.00000000000E+00 0.  1.
         11    1    1    2    0    0 -0.11720331536E+02  0.57143284573E+02 -0.26986240117E+02  0.64272687035E+02  0.00000000000E+00 0. -1.
</event>
<event>
 7    1  0.2899775E-009  0.7720178E+02  0.7561462E-02  0.1337185E+00
          2   -1    0    0  501    0  0.00000000000E+00  0.00000000000E+00  0.23456907182E+02  0.23456907182E+02  0.00000000000E+00 0.  1.
         -2   -1    0    0    0  501 -0.00000000000E+00 -0.00000000000E+00 -0.55617732090E+03  0.55617732090E+03  0.00000000000E+00 0. -1.
         25    2    1    2    0    0  0.25468466948E+02  0.65662441596E+01 -0.36975684371E+03  0.39122970852E+03  0.12509517572E+03 0.  0.
          5    1    3    3  502    0  0.47328351788E+02  0.25148575859E+02 -0.35433505406E+03  0.35838976923E+03  0.41800000000E+01 0. -1.
         -5    1    3    3    0  502 -0.21859884841E+02 -0.18582331699E+02 -0.15421789644E+02  0.32839939288E+02  0.41800000000E+01 0. -1.
        -11    1    1    2    0    0 -0.15201000258E+02 -0.36750084066E+02 -0.14787959723E+03  0.15313397522E+03  0.00000000000E+00 0. -1.
         11    1    1    2    0    0 -0.10267466690E+02  0.30183839907E+02 -0.15083972775E+02  0.35270544345E+02  0.00000000000E+00 0.  1.
</event>
<event>
 7    1  0.2899775E-009  0.1698285E+03  0.7561462E-02  0.1178027E+00
          2   -1    0    0  501    0  0.00000000000E+00  0.00000000000E+00  0.56275298851E+02  0.56275298851E+02  0.00000000000E+00 0. -1.
         -2   -1    0    0    0  501 -0.00000000000E+00 -0.00000000000E+00 -0.78103889553E+03  0.78103889553E+03  0.00000000000E+00 0.  1.
         25    2    1    2    0    0 -0.36050642822E+02  0.14874396073E+03 -0.20952137064E+03  0.28804647809E+03  0.12508858495E+03 0.  0.
          5    1    3    3  502    0 -0.19181582837E+02  0.80522488245E+02 -0.20064453840E+03  0.21708870865E+03  0.41800000000E+01 0. -1.
         -5    1    3    3    0  502 -0.16869059985E+02  0.68221472486E+02 -0.88768322334E+01  0.70957769437E+02  0.41800000000E+01 0. -1.
        -11    1    1    2    0    0 -0.37603406783E+02 -0.62710215200E+02 -0.25876940023E+03  0.26890182184E+03  0.00000000000E+00 0.  1.
         11    1    1    2    0    0  0.73654049605E+02 -0.86033745531E+02 -0.25647282581E+03  0.28036589445E+03  0.00000000000E+00 0. -1.
</event>
<event>
 7    1  0.2899775E-009  0.1235850E+03  0.7561462E-02  0.1237297E+00
          1   -1    0    0  501    0  0.00000000000E+00  0.00000000000E+00  0.57802109744E+02  0.57802109744E+02  0.00000000000E+00 0. -1.
         -1   -1    0    0    0  501 -0.00000000000E+00 -0.00000000000E+00 -0.30132155574E+03  0.30132155574E+03  0.00000000000E+00 0.  1.
         25    2    1    2    0    0  0.25806815767E+02  0.59605105079E+02 -0.85329590392E+02  0.16476794489E+03  0.12509426995E+03 0.  0.
          5    1    3    3  502    0 -0.47328170985E+02  0.79323641717E+01 -0.13872813554E+02  0.50127891697E+02  0.41800000000E+01 0.  1.
         -5    1    3    3    0  502  0.73134986752E+02  0.51672740907E+02 -0.71456776838E+02  0.11464005319E+03  0.41800000000E+01 0.  1.
        -11    1    1    2    0    0  0.25528602518E+02  0.58298481879E+01 -0.61344236758E+02  0.66699415738E+02  0.00000000000E+00 0.  1.
         11    1    1    2    0    0 -0.51335418285E+02 -0.65434953267E+02 -0.96845618844E+02  0.12765630485E+03  0.00000000000E+00 0. -1.
</event>
<event>
 7    1  0.2899775E-009  0.1432280E+03  0.7561462E-02  0.1209050E+00
         -4   -1    0    0    0  501 -0.00000000000E+00  0.00000000000E+00  0.81744275275E+02  0.81744275275E+02  0.00000000000E+00 0.  1.
          4   -1    0    0  501    0  0.00000000000E+00 -0.00000000000E+00 -0.31519165267E+03  0.31519165267E+03  0.00000000000E+00 0. -1.
         25    2    1    2    0    0 -0.25244732739E+01 -0.10601979004E+03 -0.19865094042E+03  0.25759348103E+03  0.12508251874E+03 0.  0.
          5    1    3    3  502    0  0.33521188034E+02 -0.11031485183E+03 -0.10101739748E+03  0.15334609084E+03  0.41800000000E+01 0. -1.
         -5    1    3    3    0  502 -0.36045661308E+02  0.42950617960E+01 -0.97633542932E+02  0.10424739019E+03  0.41800000000E+01 0. -1.
        -11    1    1    2    0    0 -0.38901350661E+02  0.67869650871E+02 -0.25395703009E+02  0.82246862092E+02  0.00000000000E+00 0. -1.
         11    1    1    2    0    0  0.41425823935E+02  0.38150139165E+02 -0.94007339655E+01  0.57095584821E+02  0.00000000000E+00 0.  1.
</event>
<event>
 7    1  0.2899775E-009  0.2184304E+03  0.7561462E-02  0.1135059E+00
          2   -1    0    0  501    0  0.00000000000E+00  0.00000000000E+00  0.14978483811E+04  0.14978483811E+04  0.00000000000E+00 0. -1.
         -2   -1    0    0    0  501 -0.00000000000E+00 -0.00000000000E+00 -0.47844588979E+02  0.47844588979E+02  0.00000000000E+00 0.  1.
         25    2    1    2    0    0  0.93197795158E+01  0.19284875586E+03  0.31155988926E+03  0.38729133017E+03  0.12509000322E+03 0.  0.
          5    1    3    3  502    0  0.57270170965E+02  0.15021669111E+03  0.18350842764E+03  0.24400357003E+03  0.41800000000E+01 0.  1.
         -5    1    3    3    0  502 -0.47950391449E+02  0.42632064745E+02  0.12805146162E+03  0.14328776014E+03  0.41800000000E+01 0.  1.
        -11    1    1    2    0    0  0.36931692604E+01 -0.19779085313E+03  0.10966657657E+04  0.11143655876E+04  0.00000000000E+00 0. -1.
         11    1    1    2    0    0 -0.13012948776E+02  0.49420972719E+01  0.41778137149E+02  0.44036052331E+02  0.00000000000E+00 0.  1.
</event>
<event>
 7    1  0.2899775E-009  0.8846143E+02  0.7561462E-02  0.1306621E+00
         -3   -1    0    0    0  501 -0.00000000000E+00  0.00000000000E+00  0.56717378414E+02  0.56717378414E+02  0.00000000000E+00 0.  1.
          3   -1    0    0  501    0  0.00000000000E+00 -0.00000000000E+00 -0.35096475114E+03  0.35096475114E+03  0.00000000000E+00 0. -1.
         25    2    1    2    0    0  0.75382043884E+01 -0.37945490767E+02 -0.42554062391E+02  0.13769330872E+03  0.12510761066E+03 0.  0.
          5    1    3    3  502    0  0.28057562967E+02  0.12381701200E+02  0.32534330536E+02  0.44905327386E+02  0.41800000000E+01 0.  1.
         -5    1    3    3    0  502 -0.20519358578E+02 -0.50327191968E+02 -0.75088392927E+02  0.92787981335E+02  0.41800000000E+01 0.  1.
        -11    1    1    2    0    0  0.33049690971E+02  0.38667236332E+02 -0.91046134619E+02  0.10429207001E+03  0.00000000000E+00 0. -1.
         11    1    1    2    0    0 -0.40587895359E+02 -0.72174556466E+00 -0.16064717572E+03  0.16569675082E+03  0.00000000000E+00 0.  1.
</event>
<event>
 7    1  0.2899775E-009  0.9022935E+02  0.7561462E-02  0.1302297E+00
         -2   -1    0    0    0  501 -0.00000000000E+00  0.00000000000E+00  0.44558374531E+03  0.44558374531E+03  0.00000000000E+00 0.  1.
          2   -1    0    0  501    0  0.00000000000E+00 -0.00000000000E+00 -0.29850631979E+02  0.29850631979E+02  0.00000000000E+00 0. -1.
         25    2    1    2    0    0  0.18684722505E+02  0.96892478635E+01  0.30755762997E+03  0.33270003973E+03  0.12511842511E+03 0.  0.
          5    1    3    3  502    0 -0.12208706101E+02  0.46918948732E+02  0.46988294496E+02  0.67644752009E+02  0.41800000000E+01 0. -1.
         -5    1    3    3    0  502  0.30893428606E+02 -0.37229700868E+02  0.26056933548E+03  0.26505528772E+03  0.41800000000E+01 0. -1.
        -11    1    1    2    0    0 -0.49836019388E+02 -0.14062914998E+02  0.95861271595E+02  0.10895309908E+03  0.00000000000E+00 0.  1.
         11    1    1    2    0    0  0.31151296884E+02  0.43736671344E+01  0.12314211757E+02  0.33781238476E+02  0.00000000000E+00 0. -1.
</event>
<event>
 7    1  0.2899775E-009  0.8025939E+02  0.7561462E-02  0.1328317E+00
         -1   -1    0    0    0  501 -0.00000000000E+00  0.00000000000E+00  0.14726787443E+03  0.14726787443E+03  0.00000000000E+00 0.  1.
          1   -1    0    0  501    0  0.00000000000E+00 -0.00000000000E+00 -0.18092404715E+03  0.18092404715E+03  0.00000000000E+00 0. -1.
         25    2    1    2    0    0 -0.47663116296E+02  0.50859559884E+02 -0.11825424415E+03  0.18571258853E+03  0.12508649725E+03 0.  0.
          5    1    3    3  502    0 -0.19506383208E+02  0.55880305223E+02 -0.13833112260E+03  0.15051936546E+03  0.41800000000E+01 0.  1.
         -5    1    3    3    0  502 -0.28156733088E+02 -0.50207453390E+01  0.20076878455E+02  0.35193223075E+02  0.41800000000E+01 0.  1.
        -11    1    1    2    0    0  0.37431149162E+02 -0.26511132597E+02 -0.76702024219E+01  0.46505516709E+02  0.00000000000E+00 0. -1.
         11    1    1    2    0    0  0.10231967134E+02 -0.24348427287E+02  0.92268273847E+02  0.95973816333E+02  0.00000000000E+00 0.  1.
</event>
<event>
 7    1  0.2899775E-009  0.1136585E+03  0.7561462E-02  0.1253941E+00
          1   -1    0    0  501    0  0.00000000000E+00  0.00000000000E+00  0.91790025932E+02  0.91790025932E+02  0.00000000000E+00 0. -1.
         -1   -1    0    0    0  501 -0.00000000000E+00 -0.00000000000E+00 -0.17640214207E+03  0.17640214207E+03  0.00000000000E+00 0.  1.
         25    2    1    2    0    0 -0.71601642053E-01 -0.56617244293E+02 -0.10943645645E+02  0.13774436441E+03  0.12509288177E+03 0.  0.
          5    1    3    3  502    0 -0.12763939135E+02  0.30266559356E+02 -0.33383135721E+02  0.47020090472E+02  0.41800000000E+01 0. -1.
         -5    1    3    3    0  502  0.12692337493E+02 -0.86883803649E+02  0.22439490075E+02  0.90724273942E+02  0.41800000000E+01 0. -1.
        -11    1    1    2    0    0 -0.31309082002E+02  0.66414460789E+02 -0.60093416587E+02  0.94880756399E+02  0.00000000000E+00 0.  1.
         11    1    1    2    0    0  0.31380683644E+02 -0.97972164961E+01 -0.13575053904E+02  0.35567047186E+02  0.00000000000E+00 0. -1.
</event>
<event>
 7    1  0.2899775E-009  0.1017790E+03  0.7561462E-02  0.1276599E+00
          1   -1    0    0  501    0  0.00000000000E+00  0.00000000000E+00  0.78658175550E+03  0.78658175550E+03  0.00000000000E+00 0. -1.
         -1   -1    0    0    0  501 -0.00000000000E+00 -0.00000000000E+00 -0.18351407185E+02  0.18351407185E+02  0.00000000000E+00 0.  1.
         25    2    1    2    0    0 -0.15839409913E+02  0.35622532816E+02  0.54756017605E+03  0.56301818436E+03  0.12508987877E+03 0.  0.
          5    1    3    3  502    0 -0.64391077792E+02  0.11963229765E+01  0.19384482058E+03  0.20430596896E+03  0.41800000000E+01 0. -1.
         -5    1    3    3    0  502  0.48551667879E+02  0.34426209839E+02  0.35371535547E+03  0.35871221540E+03  0.41800000000E+01 0. -1.
        -11    1    1    2    0    0  0.23706738752E+02  0.15046908362E+02  0.19184273517E+02  0.34006694398E+02  0.00000000000E+00 0.  1.
         11    1    1    2    0    0 -0.78673288387E+01 -0.50669441178E+02  0.20148589874E+03  0.20790828393E+03  0.00000000000E+00 0. -1.
</event>
<event>
 7    1  0.2899775E-009  0.9369407E+02  0.7561462E-02  0.1294145E+00
          2   -1    0    0  501    0  0.00000000000E+00  0.00000000000E+00  0.42306662311E+03  0.42306662311E+03  0.00000000000E+00 0. -1.
         -2   -1    0    0    0  501 -0.00000000000E+00 -0.00000000000E+00 -0.67954378396E+02  0.67954378396E+02  0.00000000000E+00 0.  1.
         25    2    1    2    0    0 -0.77094674486E+02 -0.17369734072E+02  0.34958296353E+03  0.37961362132E+03  0.12511177644E+03 0.  0.
          5    1    3    3  502    0 -0.92317373269E+01  0.25530338976E+02  0.25057487016E+03  0.25207590352E+03  0.41800000000E+01 0.  1.
         -5    1    3    3    0  502 -0.67862937159E+02 -0.42900073047E+02  0.99008093374E+02  0.12753771780E+03  0.41800000000E+01 0.  1.
        -11    1    1    2    0    0  0.67000147270E+02  0.11914274994E+02 -0.29778861619E+02  0.74281560849E+02  0.00000000000E+00 0.  1.
         11    1    1    2    0    0  0.10094527216E+02  0.54554590775E+01  0.35308142802E+02  0.37125819338E+02  0.00000000000E+00 0. -1.
</event>
<event>
 7    1  0.2899775E-009  0.6395969E+02  0.7561462E-02  0.1381928E+00
          1   -1    0    0  501    0  0.00000000000E+00  0.00000000000E+00  0.28806813201E+03  0.28806813201E+03  0.00000000000E+00 0. -1.
         -1   -1    0    0    0  501 -0.00000000000E+00 -0.00000000000E+00 -0.45208268897E+02  0.45208268897E+02  0.00000000000E+00 0.  1.
         25    2    1    2    0    0 -0.15885772329E+02 -0.77999719452E+01  0.91490007196E+02  0.15597630481E+03  0.12507993013E+03 0.  0.
          5    1    3    3  502    0  0.42467298635E+01 -0.30728806147E+02 -0.22079466553E+02  0.38304953792E+02  0.41800000000E+01 0. -1.
         -5    1    3    3    0  502 -0.20132502193E+02  0.22928834202E+02  0.11356947375E+03  0.11767135102E+03  0.41800000000E+01 0. -1.
        -11    1    1    2    0    0 -0.24043109800E+02  0.95076140296E+01  0.60069898552E+01  0.26543356617E+02  0.00000000000E+00 0.  1.
         11    1    1    2    0    0  0.39928882129E+02 -0.17076420844E+01  0.14536286606E+03  0.15075673948E+03  0.00000000000E+00 0. -1.
</event>
<event>
 7    1  0.2899775E-009  0.1467186E+03  0.7561462E-02  0.1204564E+00
          1   -1    0    0  501    0  0.00000000000E+00  0.00000000000E+00  0.10489279086E+03  0.10489279086E+03  0.00000000000E+00 0. -1.
         -1   -1    0    0    0  501 -0.00000000000E+00 -0.00000000000E+00 -0.26013464577E+03  0.26013464577E+03  0.00000000000E+00 0.  1.
         25    2    1    2    0    0 -0.10412178121E+03  0.68221564770E+02 -0.83431657530E+02  0.19520088532E+03  0.12508803672E+03 0.  0.
          5    1    3    3  502    0 -0.65646932708E+02  0.97959456486E+02 -0.86487740463E+02  0.14629824517E+03  0.41800000000E+01 0. -1.
         -5    1    3    3    0  502 -0.38474848505E+02 -0.29737891717E+02  0.30560829323E+01  0.48902640155E+02  0.41800000000E+01 0. -1.
        -11    1    1    2    0    0  0.55814193643E+02 -0.22686932169E+02  0.13487356894E+02  0.61740018620E+02  0.00000000000E+00 0. -1.
         11    1    1    2    0    0  0.48307587570E+02 -0.45534632601E+02 -0.85297554276E+02  0.10808653269E+03  0.00000000000E+00 0.  1.
</event>
<event>
 7    1  0.2899775E-009  0.1582648E+03  0.7561462E-02  0.1190670E+00
         -2   -1    0    0    0  501 -0.00000000000E+00  0.00000000000E+00  0.73484682058E+03  0.73484682058E+03  0.00000000000E+00 0. -1.
          2   -1    0    0  501    0  0.00000000000E+00 -0.00000000000E+00 -0.34914586992E+02  0.34914586992E+02  0.00000000000E+00 0.  1.
         25    2    1    2    0    0 -0.83132499165E+02 -0.80683189099E+02  0.42674197787E+03  0.45954114080E+03  0.12509418447E+03 0.  0.
          5    1    3    3  502    0 -0.86819367879E+02  0.18396249682E+01  0.19576746871E+03  0.21420401738E+03  0.41800000000E+01 0. -1.
         -5    1    3    3    0  502  0.36868687141E+01 -0.82522814067E+02  0.23097450917E+03  0.24533712342E+03  0.41800000000E+01 0. -1.
        -11    1    1    2    0    0  0.78061579327E+01 -0.19807965425E+02  0.43817795196E+02  0.48716432256E+02  0.00000000000E+00 0. -1.
         11    1    1    2    0    0  0.75326341232E+02  0.10049115452E+03  0.22937246052E+03  0.26150383451E+03  0.00000000000E+00 0.  1.
</event>
<event>
 7    1  0.2899775E-009  0.1301559E+03  0.7561462E-02  0.1227225E+00
          2   -1    0    0  501    0  0.00000000000E+00  0.00000000000E+00  0.38256318852E+02  0.38256318852E+02  0.00000000000E+00 0. -1.
         -2   -1    0    0    0  501 -0.00000000000E+00 -0.00000000000E+00 -0.72518130321E+03  0.72518130321E+03  0.00000000000E+00 0.  1.
         25    2    1    2    0    0 -0.59462443817E+02  0.10310381910E+03 -0.50323803767E+03  0.53203445679E+03  0.12508381555E+03 0.  0.
          5    1    3    3  502    0 -0.98070313619E+01  0.50179892651E+02 -0.41293335876E+03  0.41610771522E+03  0.41800000000E+01 0.  1.
         -5    1    3    3    0  502 -0.49655412456E+02  0.52923926445E+02 -0.90304678913E+02  0.11592674157E+03  0.41800000000E+01 0.  1.
        -11    1    1    2    0    0  0.36906244925E+02 -0.69484009415E+01 -0.79042985676E+02  0.87510826614E+02  0.00000000000E+00 0.  1.
         11    1    1    2    0    0  0.22556198892E+02 -0.96155418154E+02 -0.10464396101E+03  0.14389233866E+03  0.00000000000E+00 0. -1.
</event>
<event>
 7    1  0.3455979E-009  0.7971734E+02  0.7561462E-02  0.1329856E+00
          2   -1    0    0  501    0  0.00000000000E+00  0.00000000000E+00  0.34582394106E+02  0.34582394106E+02  0.00000000000E+00 0. -1.
         -2   -1    0    0    0  501 -0.00000000000E+00 -0.00000000000E+00 -0.48421455348E+03  0.48421455348E+03  0.00000000000E+00 0.  1.
         25    2    1    2    0    0  0.64759390027E+02 -0.36381493551E+01 -0.30270557693E+03  0.33389462351E+03  0.12509172066E+03 0.  0.
          5    1    3    3  502    0 -0.47794327664E+01  0.13931989828E+02 -0.23394970831E+03  0.23445016898E+03  0.41800000000E+01 0.  1.
         -5    1    3    3    0  502  0.69538822794E+02 -0.17570139183E+02 -0.68755868620E+02  0.99444454527E+02  0.41800000000E+01 0.  1.
        -11    1    1    2    0    0 -0.25230194259E+02 -0.14154181996E+02 -0.13753915983E+03  0.14054865370E+03  0.00000000000E+00 0.  1.
         11    1    1    2    0    0 -0.39529195769E+02  0.17792331351E+02 -0.93874226232E+01  0.44353670384E+02  0.00000000000E+00 0. -1.
</event>
<event>
 7    1  0.2899775E-009  0.9443650E+02  0.7561462E-02  0.1292450E+00
         -1   -1    0    0    0  501 -0.00000000000E+00  0.00000000000E+00  0.98412762632E+02  0.98412762632E+02  0.00000000000E+00 0.  1.
          1   -1    0    0  501    0  0.00000000000E+00 -0.00000000000E+00 -0.16370406142E+03  0.16370406142E+03  0.00000000000E+00 0. -1.
         25    2    1    2    0    0 -0.26923271076E+02  0.50664701992E+02 -0.61370308175E+01  0.13775813623E+03  0.12509143215E+03 0.  0.
          5    1    3    3  502    0 -0.59628763697E+01  0.76535446038E+02  0.35165294492E+02  0.84541710011E+02  0.41800000000E+01 0. -1.
         -5    1    3    3    0  502 -0.20960394706E+02 -0.25870744046E+02 -0.41302325310E+02  0.53216426221E+02  0.41800000000E+01 0. -1.
        -11    1    1    2    0    0  0.13757022169E+02  0.95824273828E+01  0.18650342880E+02  0.25078155097E+02  0.00000000000E+00 0.  1.
         11    1    1    2    0    0  0.13166248907E+02 -0.60247129375E+02 -0.77804610848E+02  0.99280532721E+02  0.00000000000E+00 0. -1.
</event>
<event>
 7    1  0.2899775E-009  0.1939449E+03  0.7561462E-02  0.1154951E+00
         -2   -1    0    0    0  501 -0.00000000000E+00  0.00000000000E+00  0.18583085485E+03  0.18583085485E+03  0.00000000000E+00 0.  1.
          2   -1    0    0  501    0  0.00000000000E+00 -0.00000000000E+00 -0.28702134884E+03  0.28702134884E+03  0.00000000000E+00 0. -1.
         25    2    1    2    0    0 -0.18312256957E+03  0.19354544839E+02 -0.14055363900E+03  0.26327033891E+03  0.12508985581E+03 0.  0.
          5    1    3    3  502    0 -0.15109309784E+03  0.46242394872E+02 -0.15243698729E+03  0.21959506095E+03  0.41800000000E+01 0. -1.
         -5    1    3    3    0  502 -0.32029471728E+02 -0.26887850033E+02  0.11883348297E+02  0.43675277965E+02  0.41800000000E+01 0. -1.
        -11    1    1    2    0    0  0.10754545255E+03  0.69558236253E+01 -0.20424403046E+02  0.10968848657E+03  0.00000000000E+00 0. -1.
         11    1    1    2    0    0  0.75577117018E+02 -0.26310368464E+02  0.59787548051E+02  0.99893378196E+02  0.00000000000E+00 0.  1.
</event>
<event>
 6    1  0.2899775E-009  0.1198662E+03  0.7561462E-02  0.1243318E+00
          3   -1    0    0  501    0  0.00000000000E+00  0.00000000000E+00  0.30371995263E+03  0.30371995263E+03  0.00000000000E+00 0. -1.
         -3   -1    0    0    0  501 -0.00000000000E+00 -0.00000000000E+00 -0.65795106367E+02  0.65795106367E+02  0.00000000000E+00 0.  1.
          5    1    1    2  502    0 -0.18389984511E+02  0.64886104212E+02  0.11847745097E+03  0.13639199697E+03  0.41800000000E+01 0. -1.
         -5    1    1    2    0  502  0.61291048389E+02 -0.30911596241E+02  0.10278789545E+03  0.12367272636E+03  0.41800000000E+01 0. -1.
        -11    1    1    2    0    0 -0.68239690925E+02 -0.10873254290E+02  0.26132962583E+02  0.73877024911E+02  0.00000000000E+00 0.  1.
         11    1    1    2    0    0  0.25338627047E+02 -0.23101253681E+02 -0.94734627303E+01  0.35573310759E+02  0.00000000000E+00 0. -1.
</event>
<event>
 7    1  0.2899775E-009  0.9361856E+02  0.7561462E-02  0.1294318E+00
          1   -1    0    0  501    0  0.00000000000E+00  0.00000000000E+00  0.30841904959E+03  0.30841904959E+03  0.00000000000E+00 0. -1.
         -1   -1    0    0    0  501 -0.00000000000E+00 -0.00000000000E+00 -0.53106450537E+02  0.53106450537E+02  0.00000000000E+00 0.  1.
         25    2    1    2    0    0  0.63317477727E+02  0.45877028916E+01  0.17868623654E+03  0.22716966147E+03  0.12508850451E+03 0.  0.
          5    1    3    3  502    0 -0.25615198115E+02  0.29066307689E+01 -0.15228454682E+01  0.26160625666E+02  0.41800000000E+01 0. -1.
         -5    1    3    3    0  502  0.88932675842E+02  0.16810721227E+01  0.18020908201E+03  0.20100903581E+03  0.41800000000E+01 0. -1.
        -11    1    1    2    0    0 -0.38225438133E+02 -0.19472402887E+02 -0.90541290058E+01  0.43844450580E+02  0.00000000000E+00 0.  1.
         11    1    1    2    0    0 -0.25092039594E+02  0.14884699996E+02  0.85680491517E+02  0.90511388076E+02  0.00000000000E+00 0. -1.
</event>
<event>
 7    1  0.2899775E-009  0.7766167E+02  0.7561462E-02  0.1335821E+00
         -1   -1    0    0    0  501 -0.00000000000E+00  0.00000000000E+00  0.19963218777E+02  0.19963218777E+02  0.00000000000E+00 0.  1.
          1   -1    0    0  501    0  0.00000000000E+00 -0.00000000000E+00 -0.95053018778E+03  0.95053018778E+03  0.00000000000E+00 0. -1.
         25    2    1    2    0    0  0.24535831569E+02  0.38403286336E+02 -0.75286082362E+03  0.76454169504E+03  0.12509102397E+03 0.  0.
          5    1    3    3  502    0 -0.69564689694E+01  0.36611922392E+01 -0.66331697317E+03  0.66337672260E+03  0.41800000000E+01 0. -1.
         -5    1    3    3    0  502  0.31492300538E+02  0.34742094097E+02 -0.89543850454E+02  0.10116497244E+03  0.41800000000E+01 0. -1.
        -11    1    1    2    0    0 -0.57777760958E+02 -0.18841074695E+02 -0.76874250575E+02  0.97994419017E+02  0.00000000000E+00 0.  1.
         11    1    1    2    0    0  0.33241929389E+02 -0.19562211641E+02 -0.10083189480E+03  0.10795729250E+03  0.00000000000E+00 0. -1.
</event>
<event>
 7    1  0.2899775E-009  0.1502878E+03  0.7561462E-02  0.1200120E+00
          1   -1    0    0  501    0  0.00000000000E+00  0.00000000000E+00  0.82976777860E+02  0.82976777860E+02  0.00000000000E+00 0. -1.
         -1   -1    0    0    0  501 -0.00000000000E+00 -0.00000000000E+00 -0.34390107901E+03  0.34390107901E+03  0.00000000000E+00 0.  1.
         25    2    1    2    0    0  0.41188420283E+02  0.10920119193E+03 -0.70626208404E+02  0.18508644106E+03  0.12509013976E+03 0.  0.
          5    1    3    3  502    0  0.75422343511E+02  0.11219702177E+03 -0.47062804166E+02  0.14320992120E+03  0.41800000000E+01 0. -1.
         -5    1    3    3    0  502 -0.34233923228E+02 -0.29958298351E+01 -0.23563404237E+02  0.41876519856E+02  0.41800000000E+01 0. -1.
        -11    1    1    2    0    0 -0.99826471183E+00 -0.82374581620E+02 -0.17090569083E+03  0.18972433525E+03  0.00000000000E+00 0.  1.
         11    1    1    2    0    0 -0.40190155571E+02 -0.26826610314E+02 -0.19392401916E+02  0.52067080558E+02  0.00000000000E+00 0. -1.
</event>
<event>
 7    1  0.2899775E-009  0.1151323E+03  0.7561462E-02  0.1251350E+00
          1   -1    0    0  501    0  0.00000000000E+00  0.00000000000E+00  0.78470027178E+03  0.78470027178E+03  0.00000000000E+00 0. -1.
         -1   -1    0    0    0  501 -0.00000000000E+00 -0.00000000000E+00 -0.45678197934E+02  0.45678197934E+02  0.00000000000E+00 0.  1.
         25    2    1    2    0    0  0.69649027040E+02 -0.21822784493E+02  0.68357986694E+03  0.69875302054E+03  0.12508848205E+03 0.  0.
          5    1    3    3  502    0  0.85280503209E+02 -0.18301494675E+01  0.24571701180E+03  0.26013541850E+03  0.41800000000E+01 0.  1.
         -5    1    3    3    0  502 -0.15631476169E+02 -0.19992635026E+02  0.43786285514E+03  0.43861760203E+03  0.41800000000E+01 0.  1.
        -11    1    1    2    0    0 -0.91306705693E+02  0.29823262458E+02  0.41348020755E+02  0.10457533317E+03  0.00000000000E+00 0.  1.
         11    1    1    2    0    0  0.21657678653E+02 -0.80004779651E+01  0.14094186157E+02  0.27050116002E+02  0.00000000000E+00 0. -1.
</event>
<event>
 7    1  0.2899775E-009  0.1751478E+03  0.7561462E-02  0.1172583E+00
         -2   -1    0    0    0  501 -0.00000000000E+00  0.00000000000E+00  0.66737211342E+02  0.66737211342E+02  0.00000000000E+00 0.  1.
          2   -1    0    0  501    0  0.00000000000E+00 -0.00000000000E+00 -0.59316860698E+03  0.59316860698E+03  0.00000000000E+00 0. -1.
         25    2    1    2    0    0  0.16169980856E+03 -0.24835212151E+02 -0.32501923761E+03  0.38477118626E+03  0.12509094734E+03 0.  0.
          5    1    3    3  502    0  0.78940267573E+02 -0.32662910780E+02 -0.27424304211E+03  0.28727190975E+03  0.41800000000E+01 0. -1.
         -5    1    3    3    0  502  0.82759540990E+02  0.78276986288E+01 -0.50776195504E+02  0.97499276514E+02  0.41800000000E+01 0. -1.
        -11    1    1    2    0    0 -0.12373164307E+03 -0.17158211687E+02 -0.16815604003E+03  0.20947643668E+03  0.00000000000E+00 0. -1.
         11    1    1    2    0    0 -0.37968165496E+02  0.41993423838E+02 -0.33256117990E+02  0.65658195380E+02  0.00000000000E+00 0.  1.
</event>
<event>
 7    1  0.2899775E-009  0.1222216E+03  0.7561462E-02  0.1239476E+00
         -2   -1    0    0    0  501 -0.00000000000E+00  0.00000000000E+00  0.18666747202E+03  0.18666747202E+03  0.00000000000E+00 0.  1.
          2   -1    0    0  501    0  0.00000000000E+00 -0.00000000000E+00 -0.87766271634E+02  0.87766271634E+02  0.00000000000E+00 0. -1.
         25    2    1    2    0    0 -0.68295180881E+02 -0.38239592820E+00  0.61953880998E+02  0.15541274826E+03  0.12510180251E+03 0.  0.
          5    1    3    3  502    0 -0.97751714473E+02 -0.27979253748E+02  0.47850760873E+02  0.11245178540E+03  0.41800000000E+01 0. -1.
         -5    1    3    3    0  502  0.29456533592E+02  0.27596857820E+02  0.14103120125E+02  0.42960962862E+02  0.41800000000E+01 0. -1.
        -11    1    1    2    0    0  0.39948714368E+02 -0.37496273833E+02  0.45160670152E+02  0.71002510235E+02  0.00000000000E+00 0.  1.
         11    1    1    2    0    0  0.28346466513E+02  0.37878669761E+02 -0.82133507613E+01  0.48018485163E+02  0.00000000000E+00 0. -1.
</event>
<event>
 7    1  0.2899775E-009  0.1125601E+03  0.7561462E-02  0.1255901E+00
         -2   -1    0    0    0  501 -0.00000000000E+00  0.00000000000E+00  0.21743787712E+02  0.21743787712E+02  0.00000000000E+00 0.  1.
          2   -1    0    0  501    0  0.00000000000E+00 -0.00000000000E+00 -0.71543385668E+03  0.71543385668E+03  0.00000000000E+00 0. -1.
         25    2    1    2    0    0 -0.40527350547E+02  0.46255128565E+02 -0.41291913815E+03  0.43581243859E+03  0.12509302107E+03 0.  0.
          5    1    3    3  502    0 -0.25128346970E+02 -0.32233542143E+02 -0.52837997658E+02  0.66931020141E+02  0.41800000000E+01 0.  1.
         -5    1    3    3    0  502 -0.15399003577E+02  0.78488670709E+02 -0.36008114049E+03  0.36888141845E+03  0.41800000000E+01 0.  1.
        -11    1    1    2    0    0  0.55970788066E+02 -0.84455788314E+00 -0.19737924970E+03  0.20516337541E+03  0.00000000000E+00 0. -1.
         11    1    1    2    0    0 -0.15443437519E+02 -0.45410570682E+02 -0.83391681115E+02  0.96201830395E+02  0.00000000000E+00 0.  1.
</event>
<event>
 7    1  0.2899775E-009  0.1202521E+03  0.7561462E-02  0.1242682E+00
         -2   -1    0    0    0  501 -0.00000000000E+00  0.00000000000E+00  0.40642606660E+03  0.40642606660E+03  0.00000000000E+00 0. -1.
          2   -1    0    0  501    0  0.00000000000E+00 -0.00000000000E+00 -0.75324232359E+02  0.75324232359E+02  0.00000000000E+00 0.  1.
         25    2    1    2    0    0  0.49528616591E+02  0.85566035216E+02  0.43881856722E+02  0.16536917789E+03  0.12508683945E+03 0.  0.
          5    1    3    3  502    0  0.18864639332E+02 -0.11200419973E+02  0.58601973585E+02  0.62713537078E+02  0.41800000000E+01 0.  1.
         -5    1    3    3    0  502  0.30663977258E+02  0.96766455189E+02 -0.14720116863E+02  0.10265564082E+03  0.41800000000E+01 0.  1.
        -11    1    1    2    0    0 -0.22284387093E+02  0.42782932728E+01  0.12168772914E+02  0.25748334619E+02  0.00000000000E+00 0.  1.
         11    1    1    2    0    0 -0.27244229498E+02 -0.89844328488E+02  0.27505120461E+03  0.29063278645E+03  0.00000000000E+00 0. -1.
</event>
<event>
 7    1  0.2899775E-009  0.9438359E+02  0.7561462E-02  0.1292570E+00
          1   -1    0    0  501    0  0.00000000000E+00  0.00000000000E+00  0.45978499328E+02  0.45978499328E+02  0.00000000000E+00 0. -1.
         -1   -1    0    0    0  501 -0.00000000000E+00 -0.00000000000E+00 -0.28512173533E+03  0.28512173533E+03  0.00000000000E+00 0.  1.
         25    2    1    2    0    0 -0.58233190676E+00 -0.13460239644E+02 -0.18758636387E+03  0.22586974039E+03  0.12508788331E+03 0.  0.
          5    1    3    3  502    0  0.49933468161E+02 -0.15502158700E+02 -0.15945960475E+03  0.16786454693E+03  0.41800000000E+01 0.  1.
         -5    1    3    3    0  502 -0.50515800067E+02  0.20419190560E+01 -0.28126759115E+02  0.58005193459E+02  0.41800000000E+01 0.  1.
        -11    1    1    2    0    0  0.38112868512E+02  0.25862895649E+02 -0.46381942537E+02  0.65366388236E+02  0.00000000000E+00 0.  1.
         11    1    1    2    0    0 -0.37530536605E+02 -0.12402656006E+02 -0.51749295990E+01  0.39864106038E+02  0.00000000000E+00 0. -1.
</event>
<event>
 7    1  0.2899775E-009  0.7136510E+02  0.7561462E-02  0.1355512E+00
          1   -1    0    0  501    0  0.00000000000E+00  0.00000000000E+00  0.59040398440E+02  0.59040398440E+02  0.00000000000E+00 0. -1.
         -1   -1    0    0    0  501 -0.00000000000E+00 -0.00000000000E+00 -0.26742224378E+03  0.26742224378E+03  0.00000000000E+00 0.  1.
         25    2    1    2    0    0  0.61672518672E+02 -0.15110258241E+02 -0.16681292136E+03  0.21795876711E+03  0.12509058303E+03 0.  0.
          5    1    3    3  502    0  0.23858493202E+02  0.82608473045E+01  0.15726675986E+02  0.30037810067E+02  0.41800000000E+01 0.  1.
         -5    1    3    3    0  502  0.37814025470E+02 -0.23371105546E+02 -0.18253959734E+03  0.18792095704E+03  0.41800000000E+01 0.  1.
        -11    1    1    2    0    0 -0.85584891034E+01  0.17330326621E+02 -0.50976199406E+02  0.54517528029E+02  0.00000000000E+00 0.  1.
         11    1    1    2    0    0 -0.53114029569E+02 -0.22200683800E+01  0.94072754228E+01  0.53986347085E+02  0.00000000000E+00 0. -1.
</event>
<event>
 7    1  0.2899775E-009  0.1431464E+03  0.7561462E-02  0.1209157E+00
          1   -1    0    0  501    0  0.00000000000E+00  0.00000000000E+00  0.38671503807E+03  0.38671503807E+03  0.00000000000E+00 0. -1.
         -1   -1    0    0    0  501 -0.00000000000E+00 -0.00000000000E+00 -0.65886371712E+02  0.65886371712E+02  0.00000000000E+00 0.  1.
         25    2    1    2    0    0 -0.10201076199E+02 -0.11490974498E+03  0.18941797606E+03  0.25463488333E+03  0.12510572612E+03 0.  0.
          5    1    3    3  502    0 -0.53373246187E+02 -0.61433220861E+02  0.41434627931E+02  0.91416873857E+02  0.41800000000E+01 0.  1.
         -5    1    3    3    0  502  0.43172169988E+02 -0.53476524123E+02  0.14798334813E+03  0.16321800948E+03  0.41800000000E+01 0.  1.
        -11    1    1    2    0    0 -0.20470348347E+02  0.99577822513E+02  0.12807081750E+03  0.16351425685E+03  0.00000000000E+00 0. -1.
         11    1    1    2    0    0  0.30671424546E+02  0.15331922471E+02  0.33398728001E+01  0.34452269602E+02  0.00000000000E+00 0.  1.
</event>
<event>
 7    1  0.2899775E-009  0.1968235E+03  0.7561462E-02  0.1152447E+00
          1   -1    0    0  501    0  0.00000000000E+00  0.00000000000E+00  0.16611947111E+03  0.16611947111E+03  0.00000000000E+00 0. -1.
         -1   -1    0    0    0  501 -0.00000000000E+00 -0.00000000000E+00 -0.24019044387E+03  0.24019044387E+03  0.00000000000E+00 0.  1.
         25    2    1    2    0    0  0.11370860690E+03  0.12035642789E+03 -0.13088931470E+02  0.20792840825E+03  0.12509031063E+03 0.  0.
          5    1    3    3  502    0  0.74106074004E+02 -0.55139901424E+01 -0.14857665089E+02  0.75896883358E+02  0.41800000000E+01 0.  1.
         -5    1    3    3    0  502  0.39602532900E+02  0.12587041803E+03  0.17687336188E+01  0.13203152489E+03  0.41800000000E+01 0.  1.
        -11    1    1    2    0    0 -0.62979019172E+02 -0.12106270625E+03 -0.55621958871E+02  0.14736464301E+03  0.00000000000E+00 0. -1.
         11    1    1    2    0    0 -0.50729587731E+02  0.70627836020E+00 -0.53600824170E+01  0.51016863722E+02  0.00000000000E+00 0.  1.
</event>
<event>
 7    1  0.2899775E-009  0.9382353E+02  0.7561462E-02  0.1293848E+00
          4   -1    0    0  501    0  0.00000000000E+00  0.00000000000E+00  0.42149944112E+03  0.42149944112E+03  0.00000000000E+00 0. -1.
         -4   -1    0    0    0  501 -0.00000000000E+00 -0.00000000000E+00 -0.39837212001E+02  0.39837212001E+02  0.00000000000E+00 0.  1.
         25    2    1    2    0    0 -0.56263520710E+02  0.36678258472E+02  0.25153302245E+03  0.28884891713E+03  0.12511577494E+03 0.  0.
          5    1    3    3  502    0  0.30789237607E+01 -0.15072677474E+02  0.18498443848E+03  0.18567008444E+03  0.41800000000E+01 0.  1.
         -5    1    3    3    0  502 -0.59342444471E+02  0.51750935946E+02  0.66548583968E+02  0.10317883269E+03  0.41800000000E+01 0.  1.
        -11    1    1    2    0    0 -0.14460967918E+02 -0.44102072078E+01 -0.55592896353E+01  0.16108234602E+02  0.00000000000E+00 0.  1.
         11    1    1    2    0    0  0.70724488628E+02 -0.32268051264E+02  0.13568849631E+03  0.15637950139E+03  0.00000000000E+00 0. -1.
</event>
<event>
 7    1  0.2899775E-009  0.1448436E+03  0.7561462E-02  0.1206956E+00
          1   -1    0    0  501    0  0.00000000000E+00  0.00000000000E+00  0.28518757962E+03  0.28518757962E+03  0.00000000000E+00 0. -1.
         -1   -1    0    0    0  501 -0.00000000000E+00 -0.00000000000E+00 -0.81539604834E+02  0.81539604834E+02  0.00000000000E+00 0.  1.
         25    2    1    2    0    0 -0.92156362647E+02 -0.39309947644E+02  0.64789992916E+02  0.17286869827E+03  0.12509107281E+03 0.  0.
          5    1    3    3  502    0 -0.10563862146E+03  0.75174322426E+01  0.22811402505E+02  0.10841523240E+03  0.41800000000E+01 0.  1.
         -5    1    3    3    0  502  0.13482258812E+02 -0.46827379887E+02  0.41978590411E+02  0.64453465870E+02  0.41800000000E+01 0.  1.
        -11    1    1    2    0    0  0.86757531121E+02 -0.80440386672E+01  0.81765447117E+02  0.11948708761E+03  0.00000000000E+00 0. -1.
         11    1    1    2    0    0  0.53988315263E+01  0.47353986312E+02  0.57092534758E+02  0.74371398578E+02  0.00000000000E+00 0.  1.
</event>
<event>
 7    1  0.2899775E-009  0.1105421E+03  0.7561462E-02  0.1259569E+00
         -1   -1    0    0    0  501 -0.00000000000E+00  0.00000000000E+00  0.41771781014E+02  0.41771781014E+02  0.00000000000E+00 0.  1.
          1   -1    0    0  501    0  0.00000000000E+00 -0.00000000000E+00 -0.69045521421E+03  0.69045521421E+03  0.00000000000E+00 0. -1.
         25    2    1    2    0    0  0.80402941257E+02 -0.31027162826E+02 -0.56661155086E+03  0.58662012835E+03  0.12508879893E+03 0.  0.
          5    1    3    3  502    0 -0.74162089964E+01  0.19848352777E+02 -0.16419341938E+02  0.27129770613E+02  0.41800000000E+01 0. -1.
         -5    1    3    3    0  502  0.87819150254E+02 -0.50875515603E+02 -0.55019220892E+03  0.55949035774E+03  0.41800000000E+01 0. -1.
        -11    1    1    2    0    0 -0.47704187932E+02  0.41857006838E+02 -0.90129283568E+02  0.11023151239E+03  0.00000000000E+00 0. -1.
         11    1    1    2    0    0 -0.32698753325E+02 -0.10829844012E+02  0.80574012327E+01  0.35375354485E+02  0.00000000000E+00 0.  1.
</event>
<event>
 7    1  0.2899775E-009  0.8058954E+02  0.7561462E-02  0.1327387E+00
         -1   -1    0    0    0  501 -0.00000000000E+00  0.00000000000E+00  0.23681090945E+03  0.23681090945E+03  0.00000000000E+00 0.  1.
          1   -1    0    0  501    0  0.00000000000E+00 -0.00000000000E+00 -0.35559055585E+02  0.35559055585E+02  0.00000000000E+00 0. -1.
         25    2    1    2    0    0  0.20714999253E+02  0.27088232657E+02  0.13523563563E+03  0.18734829814E+03  0.12509126320E+03 0.  0.
          5    1    3    3  502    0  0.57796606115E+02 -0.85891740430E+01  0.21425699229E+02  0.62375913433E+02  0.41800000000E+01 0. -1.
         -5    1    3    3    0  502 -0.37081606862E+02  0.35677406700E+02  0.11380993640E+03  0.12497238471E+03  0.41800000000E+01 0. -1.
        -11    1    1    2    0    0  0.57688569375E+01 -0.23556550275E+02  0.44647103328E+02  0.50809001238E+02  0.00000000000E+00 0.  1.
         11    1    1    2    0    0 -0.26483856191E+02 -0.35316823818E+01  0.21369114904E+02  0.34212665651E+02  0.00000000000E+00 0. -1.
</event>
<event>
 7    1  0.2899775E-009  0.6475905E+02  0.7561462E-02  0.1378880E+00
          2   -1    0    0  501    0  0.00000000000E+00  0.00000000000E+00  0.29405434512E+03  0.29405434512E+03  0.00000000000E+00 0. -1.
         -2   -1    0    0    0  501 -0.00000000000E+00 -0.00000000000E+00 -0.72878839481E+02  0.72878839481E+02  0.00000000000E+00 0.  1.
         25    2    1    2    0    0 -0.10306089238E+02 -0.30696964469E+02  0.36325802148E+01  0.12926576650E+03  0.12509166098E+03 0.  0.
          5    1    3    3  502    0 -0.14229944997E+02 -0.21833275317E+02  0.63346834353E+02  0.68625629820E+02  0.41800000000E+01 0. -1.
         -5    1    3    3    0  502  0.39238557593E+01 -0.88636891519E+01 -0.59714254138E+02  0.60640136681E+02  0.41800000000E+01 0. -1.
        -11    1    1    2    0    0  0.43748221569E+01  0.61269288199E+02  0.11339596913E+03  0.12896398939E+03  0.00000000000E+00 0.  1.
         11    1    1    2    0    0  0.59312670812E+01 -0.30572323729E+02  0.10414695630E+03  0.10870342871E+03  0.00000000000E+00 0. -1.
</event>
<event>
 7    1  0.3068048E-009  0.1540045E+03  0.7561462E-02  0.1195637E+00
          1   -1    0    0  501    0  0.00000000000E+00  0.00000000000E+00  0.73480289266E+03  0.73480289266E+03  0.00000000000E+00 0. -1.
         -1   -1    0    0    0  501 -0.00000000000E+00 -0.00000000000E+00 -0.39363902749E+02  0.39363902749E+02  0.00000000000E+00 0.  1.
         25    2    1    2    0    0 -0.74525597381E+02  0.10638702348E+03  0.40176627200E+03  0.44038235128E+03  0.12509282381E+03 0.  0.
          5    1    3    3  502    0 -0.91236685822E+02  0.79531751120E+02  0.18392146164E+03  0.22021355255E+03  0.41800000000E+01 0.  1.
         -5    1    3    3    0  502  0.16711088442E+02  0.26855272360E+02  0.21784481036E+03  0.22016879873E+03  0.41800000000E+01 0.  1.
        -11    1    1    2    0    0  0.75341252332E+02 -0.34089322877E+02  0.19174439687E+03  0.20881642648E+03  0.00000000000E+00 0.  1.
         11    1    1    2    0    0 -0.81565495119E+00 -0.72297700603E+02  0.10192832104E+03  0.12496801765E+03  0.00000000000E+00 0. -1.
</event>
<event>
 7    1  0.2899775E-009  0.1090608E+03  0.7561462E-02  0.1262319E+00
         -1   -1    0    0    0  501 -0.00000000000E+00  0.00000000000E+00  0.11745527064E+03  0.11745527064E+03  0.00000000000E+00 0.  1.
          1   -1    0    0  501    0  0.00000000000E+00 -0.00000000000E+00 -0.17854463384E+03  0.17854463384E+03  0.00000000000E+00 0. -1.
         25    2    1    2    0    0  0.75162133274E+02 -0.50842643745E+02 -0.93408948342E+01  0.15484055739E+03  0.12511604692E+03 0.  0.
          5    1    3    3  502    0  0.59822938407E+02 -0.76466968463E+02 -0.45880875327E+02  0.10746398628E+03  0.41800000000E+01 0. -1.
         -5    1    3    3    0  502  0.15339194867E+02  0.25624324719E+02  0.36539980493E+02  0.47376571118E+02  0.41800000000E+01 0. -1.
        -11    1    1    2    0    0 -0.25145655328E+02  0.15390507086E+02  0.27939411623E+02  0.40617513612E+02  0.00000000000E+00 0.  1.
         11    1    1    2    0    0 -0.50016477946E+02  0.35452136659E+02 -0.79687879994E+02  0.10054183347E+03  0.00000000000E+00 0. -1.
</event>
<event>
 7    1  0.2899775E-009  0.8932052E+02  0.7561462E-02  0.1304506E+00
          1   -1    0    0  501    0  0.00000000000E+00  0.00000000000E+00  0.11231028712E+03  0.11231028712E+03  0.00000000000E+00 0.  1.
         -1   -1    0    0    0  501 -0.00000000000E+00 -0.00000000000E+00 -0.13618651898E+03  0.13618651898E+03  0.00000000000E+00 0. -1.
         25    2    1    2    0    0 -0.47862240031E+02 -0.12773937782E+02 -0.42517846826E+02  0.14109643999E+03  0.12508585280E+03 0.  0.
          5    1    3    3  502    0 -0.85175032001E+02 -0.25535438468E+02 -0.47882683930E+02  0.10107951580E+03  0.41800000000E+01 0.  1.
         -5    1    3    3    0  502  0.37312791970E+02  0.12761500686E+02  0.53648371042E+01  0.40016924189E+02  0.41800000000E+01 0.  1.
        -11    1    1    2    0    0  0.34815787520E+02  0.62216246182E+01  0.56594298172E+02  0.66736513687E+02  0.00000000000E+00 0.  1.
         11    1    1    2    0    0  0.13046452511E+02  0.65523131637E+01 -0.37952683210E+02  0.40663852421E+02  0.00000000000E+00 0. -1.
</event>
<event>
 7    1  0.2954094E-009  0.1613381E+03  0.7561462E-02  0.1187194E+00
          2   -1    0    0  501    0  0.00000000000E+00  0.00000000000E+00  0.94171664566E+03  0.94171664566E+03  0.00000000000E+00 0. -1.
         -2   -1    0    0    0  501 -0.00000000000E+00 -0.00000000000E+00 -0.35512074931E+02  0.35512074931E+02  0.00000000000E+00 0.  1.
         25    2    1    2    0    0 -0.36874768379E+02 -0.13853292366E+03  0.56309795567E+03  0.59437168419E+03  0.12508905553E+03 0.  0.
          5    1    3    3  502    0 -0.22678439762E+02 -0.14993745927E+03  0.36327555072E+03  0.39367772540E+03  0.41800000000E+01 0.  1.
         -5    1    3    3    0  502 -0.14196328617E+02  0.11404535609E+02  0.19982240495E+03  0.20069395880E+03  0.41800000000E+01 0.  1.
        -11    1    1    2    0    0 -0.10482886151E+02  0.57398727415E+02  0.22225502721E+03  0.22978642678E+03  0.00000000000E+00 0. -1.
         11    1    1    2    0    0  0.47357654530E+02  0.81134196247E+02  0.12085158785E+03  0.15307060962E+03  0.00000000000E+00 0.  1.
</event>
<event>
 7    1  0.2899775E-009  0.1254719E+03  0.7561462E-02  0.1234334E+00
         -2   -1    0    0    0  501 -0.00000000000E+00  0.00000000000E+00  0.92581606823E+01  0.92581606823E+01  0.00000000000E+00 0.  1.
          2   -1    0    0  501    0  0.00000000000E+00 -0.00000000000E+00 -0.24301650567E+04  0.24301650567E+04  0.00000000000E+00 0. -1.
         25    2    1    2    0    0  0.29720049206E+02 -0.77505276403E+02 -0.18078810693E+04  0.18141036790E+04  0.12509135930E+03 0.  0.
          5    1    3    3  502    0  0.56223882294E+02 -0.13179404572E+02 -0.36710670869E+03  0.37164449358E+03  0.41800000000E+01 0.  1.
         -5    1    3    3    0  502 -0.26503833089E+02 -0.64325871831E+02 -0.14407743606E+04  0.14424591854E+04  0.41800000000E+01 0.  1.
        -11    1    1    2    0    0 -0.15816335735E+02 -0.19637396973E+02 -0.11919693815E+03  0.12183469908E+03  0.00000000000E+00 0.  1.
         11    1    1    2    0    0 -0.13903713471E+02  0.97142673376E+02 -0.49382888859E+03  0.50348483934E+03  0.00000000000E+00 0. -1.
</event>
<event>
 7    1  0.2899775E-009  0.1189585E+03  0.7561462E-02  0.1244825E+00
         -1   -1    0    0    0  501 -0.00000000000E+00  0.00000000000E+00  0.41403262126E+02  0.41403262126E+02  0.00000000000E+00 0.  1.
          1   -1    0    0  501    0  0.00000000000E+00 -0.00000000000E+00 -0.66375405025E+03  0.66375405025E+03  0.00000000000E+00 0. -1.
         25    2    1    2    0    0  0.83641122257E+02  0.40717048685E+02 -0.50644483392E+03  0.52989392456E+03  0.12508991204E+03 0.  0.
          5    1    3    3  502    0  0.10497335209E+03  0.52709769356E+02 -0.30397995883E+03  0.32591258369E+03  0.41800000000E+01 0.  1.
         -5    1    3    3    0  502 -0.21332229836E+02 -0.11992720671E+02 -0.20246487508E+03  0.20398134086E+03  0.41800000000E+01 0.  1.
        -11    1    1    2    0    0 -0.49916423893E+02 -0.12196999290E+02 -0.16899994845E+00  0.51385257876E+02  0.00000000000E+00 0. -1.
         11    1    1    2    0    0 -0.33724698364E+02 -0.28520049395E+02 -0.11573695426E+03  0.12387812994E+03  0.00000000000E+00 0.  1.
</event>
<event>
 7    1  0.2899775E-009  0.1412696E+03  0.7561462E-02  0.1211631E+00
          2   -1    0    0  501    0  0.00000000000E+00  0.00000000000E+00  0.10152249067E+03  0.10152249067E+03  0.00000000000E+00 0.  1.
         -2   -1    0    0    0  501 -0.00000000000E+00 -0.00000000000E+00 -0.22494087746E+03  0.22494087746E+03  0.00000000000E+00 0. -1.
         25    2    1    2    0    0 -0.41966586395E+02  0.88331463394E+02 -0.26402048215E+02  0.16096096170E+03  0.12509085195E+03 0.  0.
          5    1    3    3  502    0 -0.77429204683E+02  0.94818770981E+02 -0.20308609462E+02  0.12416035231E+03  0.41800000000E+01 0. -1.
         -5    1    3    3    0  502  0.35462618288E+02 -0.64873075866E+01 -0.60934387532E+01  0.36800609389E+02  0.41800000000E+01 0. -1.
        -11    1    1    2    0    0  0.63673412428E+02 -0.74573766776E+02 -0.99480548605E+02  0.13968510906E+03  0.00000000000E+00 0. -1.
         11    1    1    2    0    0 -0.21706826033E+02 -0.13757696618E+02  0.24642100231E+01  0.25817297374E+02  0.00000000000E+00 0.  1.
</event>
<event>
 7    1  0.2899775E-009  0.2201215E+03  0.7561462E-02  0.1133792E+00
         -1   -1    0    0    0  501 -0.00000000000E+00  0.00000000000E+00  0.67075834442E+02  0.67075834442E+02  0.00000000000E+00 0. -1.
          1   -1    0    0  501    0  0.00000000000E+00 -0.00000000000E+00 -0.13683372246E+04  0.13683372246E+04  0.00000000000E+00 0.  1.
         25    2    1    2    0    0 -0.42815951138E+02  0.19849231524E+03 -0.11281670360E+04  0.11531005221E+04  0.12509016018E+03 0.  0.
          5    1    3    3  502    0  0.18277362152E+02  0.16260201814E+03 -0.68490432681E+03  0.70419094538E+03  0.41800000000E+01 0.  1.
         -5    1    3    3    0  502 -0.61093313290E+02  0.35890297099E+02 -0.44326270917E+03  0.44890957675E+03  0.41800000000E+01 0.  1.
        -11    1    1    2    0    0  0.14273210729E+02 -0.13756170973E+03 -0.16381947691E+03  0.21439162658E+03  0.00000000000E+00 0.  1.
         11    1    1    2    0    0  0.28542740409E+02 -0.60930605505E+02 -0.92748772985E+01  0.67920910375E+02  0.00000000000E+00 0. -1.
</event>
<event>
 7    1  0.2899775E-009  0.7784790E+02  0.7561462E-02  0.1335272E+00
          2   -1    0    0  501    0  0.00000000000E+00  0.00000000000E+00  0.46917255636E+03  0.46917255636E+03  0.00000000000E+00 0.  1.
         -2   -1    0    0    0  501 -0.00000000000E+00 -0.00000000000E+00 -0.25968045620E+02  0.25968045620E+02  0.00000000000E+00 0. -1.
         25    2    1    2    0    0 -0.11746816447E+02  0.10679772692E+02  0.23610789219E+03  0.26767368357E+03  0.12510083486E+03 0.  0.
          5    1    3    3  502    0 -0.35176494259E+02 -0.26544492561E+00  0.58190525922E+01  0.35899721203E+02  0.41800000000E+01 0.  1.
         -5    1    3    3    0  502  0.23429677813E+02  0.10945217617E+02  0.23028883959E+03  0.23177396237E+03  0.41800000000E+01 0.  1.
        -11    1    1    2    0    0  0.28353275071E+02 -0.46573886089E+02  0.11830821328E+03  0.13026844745E+03  0.00000000000E+00 0.  1.
         11    1    1    2    0    0 -0.16606458625E+02  0.35894113397E+02  0.88788405276E+02  0.97198470955E+02  0.00000000000E+00 0. -1.
</event>
<event>
 7    1  0.2899775E-009  0.1060415E+03  0.7561462E-02  0.1268081E+00
          1   -1    0    0  501    0  0.00000000000E+00  0.00000000000E+00  0.94104406791E+03  0.94104406791E+03  0.00000000000E+00 0. -1.
         -1   -1    0    0    0  501 -0.00000000000E+00 -0.00000000000E+00 -0.30586954486E+02  0.30586954486E+02  0.00000000000E+00 0.  1.
         25    2    1    2    0    0  0.95878069921E+01 -0.54096670648E+02  0.82361459195E+03  0.83486969395E+03  0.12509210196E+03 0.  0.
          5    1    3    3  502    0 -0.45626835428E+02 -0.18727310502E+02  0.59344446993E+03  0.59550510624E+03  0.41800000000E+01 0.  1.
         -5    1    3    3    0  502  0.55214642420E+02 -0.35369360146E+02  0.23017012202E+03  0.23936458770E+03  0.41800000000E+01 0.  1.
        -11    1    1    2    0    0  0.23290985833E+02  0.59192141284E+02  0.80983348194E+02  0.10297806706E+03  0.00000000000E+00 0. -1.
         11    1    1    2    0    0 -0.32878792825E+02 -0.50954706363E+01  0.58591732769E+01  0.33783261390E+02  0.00000000000E+00 0.  1.
</event>
<event>
 7    1  0.2899775E-009  0.1353444E+03  0.7561462E-02  0.1219734E+00
         -2   -1    0    0    0  501 -0.00000000000E+00  0.00000000000E+00  0.38054676949E+03  0.38054676949E+03  0.00000000000E+00 0.  1.
          2   -1    0    0  501    0  0.00000000000E+00 -0.00000000000E+00 -0.70434058840E+02  0.70434058840E+02  0.00000000000E+00 0. -1.
         25    2    1    2    0    0 -0.10760645882E+03 -0.58788292549E+02  0.14132014717E+03  0.22505549219E+03  0.12507348739E+03 0.  0.
          5    1    3    3  502    0 -0.92419783372E+01 -0.45586801309E+01  0.10693690264E+03  0.10751357717E+03  0.41800000000E+01 0.  1.
         -5    1    3    3    0  502 -0.98364480481E+02 -0.54229612419E+02  0.34383244525E+02  0.11754191502E+03  0.41800000000E+01 0.  1.
        -11    1    1    2    0    0  0.51072695752E+02 -0.15904811568E+02  0.83924312599E+02  0.99522226299E+02  0.00000000000E+00 0.  1.
         11    1    1    2    0    0  0.56533763067E+02  0.74693104118E+02  0.84868250878E+02  0.12640310984E+03  0.00000000000E+00 0. -1.
</event>
<event>
 7    1  0.2899775E-009  0.8925279E+02  0.7561462E-02  0.1304671E+00
          2   -1    0    0  501    0  0.00000000000E+00  0.00000000000E+00  0.27221538381E+03  0.27221538381E+03  0.00000000000E+00 0. -1.
         -2   -1    0    0    0  501 -0.00000000000E+00 -0.00000000000E+00 -0.46559441771E+02  0.46559441771E+02  0.00000000000E+00 0.  1.
         25    2    1    2    0    0  0.18635795032E+02  0.11163782556E+02  0.15910576931E+03  0.20355249431E+03  0.12508816576E+03 0.  0.
          5    1    3    3  502    0 -0.36687591289E+01  0.49308882245E+02  0.13634370474E+02  0.51460607459E+02  0.41800000000E+01 0. -1.
         -5    1    3    3    0  502  0.22304554161E+02 -0.38145099689E+02  0.14547139883E+03  0.15209188685E+03  0.41800000000E+01 0. -1.
        -11    1    1    2    0    0  0.15861549682E+02  0.28078913286E+02  0.51646827642E+02  0.60888495918E+02  0.00000000000E+00 0.  1.
         11    1    1    2    0    0 -0.34497344715E+02 -0.39242695842E+02  0.14903345085E+02  0.54333835352E+02  0.00000000000E+00 0. -1.
</event>
<event>
 7    1  0.2899775E-009  0.1191713E+03  0.7561462E-02  0.1244470E+00
          1   -1    0    0  501    0  0.00000000000E+00  0.00000000000E+00  0.12937235211E+04  0.12937235211E+04  0.00000000000E+00 0. -1.
         -1   -1    0    0    0  501 -0.00000000000E+00 -0.00000000000E+00 -0.16658768565E+02  0.16658768565E+02  0.00000000000E+00 0.  1.
         25    2    1    2    0    0 -0.14055906762E+02 -0.98869553168E+02  0.68931110353E+03  0.70765174127E+03  0.12509369459E+03 0.  0.
          5    1    3    3  502    0  0.87911414173E+01 -0.49574239610E+02  0.72092829031E+02  0.88032595088E+02  0.41800000000E+01 0.  1.
         -5    1    3    3    0  502 -0.22847048179E+02 -0.49295313558E+02  0.61721827450E+03  0.61961914619E+03  0.41800000000E+01 0.  1.
        -11    1    1    2    0    0  0.51390243106E+02  0.65509374151E+02  0.35087631235E+03  0.36061977450E+03  0.00000000000E+00 0. -1.
         11    1    1    2    0    0 -0.37334336345E+02  0.33360179017E+02  0.23687733666E+03  0.24211077390E+03  0.00000000000E+00 0.  1.
</event>
<event>
 7    1  0.2899775E-009  0.1220862E+03  0.7561462E-02  0.1239695E+00
          1   -1    0    0  501    0  0.00000000000E+00  0.00000000000E+00  0.11644354831E+03  0.11644354831E+03  0.00000000000E+00 0. -1.
         -1   -1    0    0    0  501 -0.00000000000E+00 -0.00000000000E+00 -0.15642486704E+03  0.15642486704E+03  0.00000000000E+00 0.  1.
         25    2    1    2    0    0  0.51171853534E+02 -0.46364564564E+02  0.21481964685E+02  0.14450237087E+03  0.12510487177E+03 0.  0.
          5    1    3    3  502    0 -0.28588669418E+02  0.21175064772E+02 -0.60799467016E+01  0.36333641974E+02  0.41800000000E+01 0.  1.
         -5    1    3    3    0  502  0.79760522952E+02 -0.67539629336E+02  0.27561911387E+02  0.10816872890E+03  0.41800000000E+01 0.  1.
        -11    1    1    2    0    0 -0.63231525427E+02  0.82399262238E+01 -0.12209937447E+02  0.64924608312E+02  0.00000000000E+00 0. -1.
         11    1    1    2    0    0  0.12059671893E+02  0.38124638340E+02 -0.49253345963E+02  0.63441436170E+02  0.00000000000E+00 0.  1.
</event>
<event>
 7    1  0.3593874E-009  0.1010428E+03  0.7561462E-02  0.1278118E+00
          1   -1    0    0  501    0  0.00000000000E+00  0.00000000000E+00  0.39276161736E+03  0.39276161736E+03  0.00000000000E+00 0. -1.
         -1   -1    0    0    0  501 -0.00000000000E+00 -0.00000000000E+00 -0.46334419476E+02  0.46334419476E+02  0.00000000000E+00 0.  1.
         25    2    1    2    0    0  0.35586262788E+02 -0.71217902785E+02  0.19372755326E+03  0.24396289729E+03  0.12509659701E+03 0.  0.
          5    1    3    3  502    0  0.19223369635E+02 -0.73585369568E+02  0.34146712056E+02  0.83473438284E+02  0.41800000000E+01 0. -1.
         -5    1    3    3    0  502  0.16362893153E+02  0.23674667837E+01  0.15958084120E+03  0.16048945900E+03  0.41800000000E+01 0. -1.
        -11    1    1    2    0    0  0.43119618270E+01  0.68753138367E+02  0.13469992283E+03  0.15129327897E+03  0.00000000000E+00 0. -1.
         11    1    1    2    0    0 -0.39898224615E+02  0.24647644178E+01  0.17999721788E+02  0.43839860579E+02  0.00000000000E+00 0.  1.
</event>
<event>
 7    1  0.2899775E-009  0.7376063E+02  0.7561462E-02  0.1347752E+00
         -1   -1    0    0    0  501 -0.00000000000E+00  0.00000000000E+00  0.13913721377E+03  0.13913721377E+03  0.00000000000E+00 0.  1.
          1   -1    0    0  501    0  0.00000000000E+00 -0.00000000000E+00 -0.12493332953E+03  0.12493332953E+03  0.00000000000E+00 0. -1.
         25    2    1    2    0    0 -0.68200902528E+02 -0.24380958090E+02  0.10604866489E+02  0.14493503232E+03  0.12509159115E+03 0.  0.
          5    1    3    3  502    0 -0.65331971983E+02 -0.23088947599E+02  0.62120335059E+02  0.93154573115E+02  0.41800000000E+01 0. -1.
         -5    1    3    3    0  502 -0.28689305453E+01 -0.12920104903E+01 -0.51515468570E+02  0.51780459206E+02  0.41800000000E+01 0. -1.
        -11    1    1    2    0    0  0.24557384691E+02  0.12917823058E+02  0.48246555222E+02  0.55656674228E+02  0.00000000000E+00 0.  1.
         11    1    1    2    0    0  0.43643517838E+02  0.11463135032E+02 -0.44647537466E+02  0.63478836755E+02  0.00000000000E+00 0. -1.
</event>
<event>
 7    1  0.2899775E-009  0.8742964E+02  0.7561462E-02  0.1309198E+00
         -2   -1    0    0    0  501 -0.00000000000E+00  0.00000000000E+00  0.29426663516E+02  0.29426663516E+02  0.00000000000E+00 0. -1.
          2   -1    0    0  501    0  0.00000000000E+00 -0.00000000000E+00 -0.52395833108E+03  0.52395833108E+03  0.00000000000E+00 0.  1.
         25    2    1    2    0    0 -0.85642712719E+01  0.42276499128E+02 -0.36661104429E+03  0.38975908411E+03  0.12509131357E+03 0.  0.
          5    1    3    3  502    0 -0.52975498974E+02  0.20095231464E+02 -0.75885745939E+02  0.94796311404E+02  0.41800000000E+01 0. -1.
         -5    1    3    3    0  502  0.44411227703E+02  0.22181267664E+02 -0.29072529836E+03  0.29496277271E+03  0.41800000000E+01 0. -1.
        -11    1    1    2    0    0  0.24064045009E+01 -0.54493841453E+02 -0.13682827643E+03  0.14730019270E+03  0.00000000000E+00 0.  1.
         11    1    1    2    0    0  0.61578667709E+01  0.12217342325E+02  0.89076531513E+01  0.16325717789E+02  0.00000000000E+00 0. -1.
</event>
<event>
 7    1  0.2899775E-009  0.1973258E+03  0.7561462E-02  0.1152015E+00
         -1   -1    0    0    0  501 -0.00000000000E+00  0.00000000000E+00  0.32746817374E+03  0.32746817374E+03  0.00000000000E+00 0.  1.
          1   -1    0    0  501    0  0.00000000000E+00 -0.00000000000E+00 -0.15601802259E+03  0.15601802259E+03  0.00000000000E+00 0. -1.
         25    2    1    2    0    0 -0.93977966007E+02  0.15863396614E+03  0.11849669679E+02  0.22312398179E+03  0.12508918127E+03 0.  0.
          5    1    3    3  502    0 -0.33345886078E+02  0.22710659204E+02  0.54784091438E+02  0.68165176113E+02  0.41800000000E+01 0.  1.
         -5    1    3    3    0  502 -0.60632079929E+02  0.13592330693E+03 -0.42934421759E+02  0.15495880568E+03  0.41800000000E+01 0.  1.
        -11    1    1    2    0    0 -0.85824651157E+01 -0.67360381581E+02  0.61577737477E+02  0.91667319514E+02  0.00000000000E+00 0.  1.
         11    1    1    2    0    0  0.10256043112E+03 -0.91273584558E+02  0.98022743993E+02  0.16869489503E+03  0.00000000000E+00 0. -1.
</event>
<event>
 7    1  0.2899775E-009  0.1089042E+03  0.7561462E-02  0.1262613E+00
          2   -1    0    0  501    0  0.00000000000E+00  0.00000000000E+00  0.14521863686E+03  0.14521863686E+03  0.00000000000E+00 0. -1.
         -2   -1    0    0    0  501 -0.00000000000E+00 -0.00000000000E+00 -0.97111426775E+02  0.97111426775E+02  0.00000000000E+00 0.  1.
         25    2    1    2    0    0  0.13010930885E+02  0.45144698506E+02  0.45035507250E+02  0.14100394261E+03  0.12508631737E+03 0.  0.
          5    1    3    3  502    0  0.48503495134E+02  0.73133373695E+02  0.24683443494E+02  0.91256913004E+02  0.41800000000E+01 0.  1.
         -5    1    3    3    0  502 -0.35492564250E+02 -0.27988675190E+02  0.20352063756E+02  0.49747029610E+02  0.41800000000E+01 0.  1.
        -11    1    1    2    0    0 -0.40744629827E+02 -0.14547438760E+02 -0.26317977844E+02  0.50639794549E+02  0.00000000000E+00 0.  1.
         11    1    1    2    0    0  0.27733698942E+02 -0.30597259745E+02  0.29389680682E+02  0.50686326475E+02  0.00000000000E+00 0. -1.
</event>
<event>
 6    1  0.2899775E-009  0.1088370E+03  0.7561462E-02  0.1262739E+00
          1   -1    0    0  501    0  0.00000000000E+00  0.00000000000E+00  0.53237005630E+03  0.53237005630E+03  0.00000000000E+00 0. -1.
         -1   -1    0    0    0  501 -0.00000000000E+00 -0.00000000000E+00 -0.22655428267E+02  0.22655428267E+02  0.00000000000E+00 0.  1.
          5    1    1    2  502    0  0.59736935102E+02 -0.28211814824E+02  0.12722899398E+03  0.14341930561E+03  0.41800000000E+01 0.  1.
         -5    1    1    2    0  502 -0.57586450112E+02  0.12385994060E+02  0.14943636575E+03  0.16068077636E+03  0.41800000000E+01 0.  1.
        -11    1    1    2    0    0 -0.24441115028E+02  0.47661539789E+02  0.12092306776E+03  0.13225497645E+03  0.00000000000E+00 0. -1.
         11    1    1    2    0    0  0.22290630038E+02 -0.31835719026E+02  0.11212620054E+03  0.11867042615E+03  0.00000000000E+00 0.  1.
</event>
<event>
 7    1  0.2899775E-009  0.8875772E+02  0.7561462E-02  0.1305888E+00
          2   -1    0    0  501    0  0.00000000000E+00  0.00000000000E+00  0.12193943579E+03  0.12193943579E+03  0.00000000000E+00 0. -1.
         -2   -1    0    0    0  501 -0.00000000000E+00 -0.00000000000E+00 -0.16827753196E+03  0.16827753196E+03  0.00000000000E+00 0.  1.
         25    2    1    2    0    0 -0.81729461534E+02  0.80126966498E+01  0.19667761553E+02  0.15092675749E+03  0.12509259408E+03 0.  0.
          5    1    3    3  502    0 -0.61949440194E+02 -0.42882356338E+01  0.70990965338E+02  0.94410336642E+02  0.41800000000E+01 0. -1.
         -5    1    3    3    0  502 -0.19780021340E+02  0.12300932284E+02 -0.51323203785E+02  0.56516420853E+02  0.41800000000E+01 0. -1.
        -11    1    1    2    0    0  0.39181690182E+02 -0.24241472734E+02  0.13199033613E+02  0.47927740757E+02  0.00000000000E+00 0. -1.
         11    1    1    2    0    0  0.42547771353E+02  0.16228776084E+02 -0.79204891338E+02  0.91362469494E+02  0.00000000000E+00 0.  1.
</event>
<event>
 7    1  0.6405952E-009  0.1582291E+03  0.7561462E-02  0.1190711E+00
          1   -1    0    0  501    0  0.00000000000E+00  0.00000000000E+00  0.49610760196E+03  0.49610760196E+03  0.00000000000E+00 0. -1.
         -1   -1    0    0    0  501 -0.00000000000E+00 -0.00000000000E+00 -0.74944680268E+02  0.74944680268E+02  0.00000000000E+00 0.  1.
         25    2    1    2    0    0  0.23980177195E+01 -0.13509869994E+03  0.34543853230E+03  0.39146070710E+03  0.12512512293E+03 0.  0.
          5    1    3    3  502    0  0.59873508201E+02 -0.89723500373E+02  0.23842858946E+03  0.26172659050E+03  0.41800000000E+01 0. -1.
         -5    1    3    3    0  502 -0.57475490482E+02 -0.45375199571E+02  0.10700994284E+03  0.12973411660E+03  0.41800000000E+01 0. -1.
        -11    1    1    2    0    0  0.88069600876E+00  0.36351552847E+02 -0.20443245185E+02  0.41714952877E+02  0.00000000000E+00 0.  1.
         11    1    1    2    0    0 -0.32787137282E+01  0.98747147097E+02  0.96167634575E+02  0.13787662225E+03  0.00000000000E+00 0. -1.
</event>
<event>
 7    1  0.2899775E-009  0.1284325E+03  0.7561462E-02  0.1229800E+00
         -2   -1    0    0    0  501 -0.00000000000E+00  0.00000000000E+00  0.11779699478E+03  0.11779699478E+03  0.00000000000E+00 0.  1.
          2   -1    0    0  501    0  0.00000000000E+00 -0.00000000000E+00 -0.18335038172E+03  0.18335038172E+03  0.00000000000E+00 0. -1.
         25    2    1    2    0    0 -0.95273852880E+02  0.25977157026E+02 -0.54396290803E+02  0.16840036918E+03  0.12509119935E+03 0.  0.
          5    1    3    3  502    0 -0.12521821336E+03  0.25577305652E+02 -0.35364810985E+02  0.13267230976E+03  0.41800000000E+01 0. -1.
         -5    1    3    3    0  502  0.29944360478E+02  0.39985137496E+00 -0.19031479818E+02  0.35728059416E+02  0.41800000000E+01 0. -1.
        -11    1    1    2    0    0  0.40735015754E+02 -0.10662495671E+02  0.38769661495E+02  0.57237373933E+02  0.00000000000E+00 0.  1.
         11    1    1    2    0    0  0.54538837126E+02 -0.15314661356E+02 -0.49926757628E+02  0.75509633391E+02  0.00000000000E+00 0. -1.
</event>
<event>
 7    1  0.2899775E-009  0.8226842E+02  0.7561462E-02  0.1322735E+00
          4   -1    0    0  501    0  0.00000000000E+00  0.00000000000E+00  0.42788850718E+03  0.42788850718E+03  0.00000000000E+00 0. -1.
         -4   -1    0    0    0  501 -0.00000000000E+00 -0.00000000000E+00 -0.34008491922E+02  0.34008491922E+02  0.00000000000E+00 0.  1.
         25    2    1    2    0    0 -0.32674040494E+02  0.33877886131E+02  0.26588335216E+03  0.29758515241E+03  0.12509061471E+03 0.  0.
          5    1    3    3  502    0 -0.91292792499E+01 -0.11768778343E+02 -0.90106870275E+01  0.17902870273E+02  0.41800000000E+01 0. -1.
         -5    1    3    3    0  502 -0.23544761245E+02  0.45646664474E+02  0.27489403919E+03  0.27968228214E+03  0.41800000000E+01 0. -1.
        -11    1    1    2    0    0 -0.30934879903E+01  0.26866121709E+02  0.62450833433E+02  0.68054865807E+02  0.00000000000E+00 0. -1.
         11    1    1    2    0    0  0.35767528485E+02 -0.60744007840E+02  0.65545829660E+02  0.96256980881E+02  0.00000000000E+00 0.  1.
</event>
<event>
 7    1  0.2899775E-009  0.1073044E+03  0.7561462E-02  0.1265645E+00
         -2   -1    0    0    0  501 -0.00000000000E+00  0.00000000000E+00  0.47771185148E+02  0.47771185148E+02  0.00000000000E+00 0.  1.
          2   -1    0    0  501    0  0.00000000000E+00 -0.00000000000E+00 -0.48771066906E+03  0.48771066906E+03  0.00000000000E+00 0. -1.
         25    2    1    2    0    0 -0.98917534486E+02 -0.68771958408E+01 -0.30960877432E+03  0.34833565653E+03  0.12509261378E+03 0.  0.
          5    1    3    3  502    0  0.47434976695E+01 -0.47067655308E+01  0.97522149280E+01  0.12539238729E+02  0.41800000000E+01 0. -1.
         -5    1    3    3    0  502 -0.10366103216E+03 -0.21704303100E+01 -0.31936098924E+03  0.33579641780E+03  0.41800000000E+01 0. -1.
        -11    1    1    2    0    0  0.85044174720E+02  0.15750523457E+02 -0.39938965466E+02  0.95266529303E+02  0.00000000000E+00 0.  1.
         11    1    1    2    0    0  0.13873359766E+02 -0.88733276160E+01 -0.90391744127E+02  0.91879668373E+02  0.00000000000E+00 0. -1.
</event>
<event>
 7    1  0.2899775E-009  0.8780515E+02  0.7561462E-02  0.1308256E+00
         -3   -1    0    0    0  501 -0.00000000000E+00  0.00000000000E+00  0.22609392794E+02  0.22609392794E+02  0.00000000000E+00 0.  1.
          3   -1    0    0  501    0  0.00000000000E+00 -0.00000000000E+00 -0.54816610762E+03  0.54816610762E+03  0.00000000000E+00 0. -1.
         25    2    1    2    0    0 -0.20793170065E+02 -0.21541722639E+02 -0.34717429128E+03  0.37023548740E+03  0.12509166984E+03 0.  0.
          5    1    3    3  502    0  0.25750109510E+02 -0.31105051854E+02 -0.30141359740E+03  0.30413520265E+03  0.41800000000E+01 0. -1.
         -5    1    3    3    0  502 -0.46543279575E+02  0.95633292147E+01 -0.45760693879E+02  0.66100284746E+02  0.41800000000E+01 0. -1.
        -11    1    1    2    0    0 -0.23411186064E+02 -0.16786720141E+02 -0.32877465460E+02  0.43712759477E+02  0.00000000000E+00 0.  1.
         11    1    1    2    0    0  0.44204356129E+02  0.38328442780E+02 -0.14550495808E+03  0.15682725354E+03  0.00000000000E+00 0. -1.
</event>
<event>
 7    1  0.2899775E-009  0.1108527E+03  0.7561462E-02  0.1258999E+00
         -1   -1    0    0    0  501 -0.00000000000E+00  0.00000000000E+00  0.58431455540E+03  0.58431455540E+03  0.00000000000E+00 0.  1.
          1   -1    0    0  501    0  0.00000000000E+00 -0.00000000000E+00 -0.34462199535E+02  0.34462199535E+02  0.00000000000E+00 0. -1.
         25    2    1    2    0    0  0.66228498605E+02  0.63432169266E+02  0.33913640298E+03  0.37292256965E+03  0.12509152252E+03 0.  0.
          5    1    3    3  502    0  0.68483574260E+01  0.52391862555E+02  0.36657224583E+02  0.64444020479E+02  0.41800000000E+01 0.  1.
         -5    1    3    3    0  502  0.59380141179E+02  0.11040306712E+02  0.30247917839E+03  0.30847854917E+03  0.41800000000E+01 0.  1.
        -11    1    1    2    0    0 -0.31589078993E+02 -0.66261120333E+02  0.19372982696E+03  0.20717058631E+03  0.00000000000E+00 0.  1.
         11    1    1    2    0    0 -0.34639419612E+02  0.28289510665E+01  0.16986125932E+02  0.38683598972E+02  0.00000000000E+00 0. -1.
</event>
<event>
 7    1  0.3723176E-009  0.1815358E+03  0.7561462E-02  0.1166325E+00
          2   -1    0    0  501    0  0.00000000000E+00  0.00000000000E+00  0.10862312006E+04  0.10862312006E+04  0.00000000000E+00 0. -1.
         -2   -1    0    0    0  501 -0.00000000000E+00 -0.00000000000E+00 -0.41193149750E+02  0.41193149750E+02  0.00000000000E+00 0.  1.
         25    2    1    2    0    0 -0.16832773800E+03  0.67530924002E+02  0.55669025861E+03  0.59870427774E+03  0.12509242611E+03 0.  0.
          5    1    3    3  502    0 -0.10257283085E+03  0.41050128222E+02  0.48633125403E+03  0.49874027279E+03  0.41800000000E+01 0.  1.
         -5    1    3    3    0  502 -0.65754907148E+02  0.26480795781E+02  0.70359004582E+02  0.99964004947E+02  0.41800000000E+01 0.  1.
        -11    1    1    2    0    0  0.71881050000E+02 -0.32528529074E+02  0.33533568324E+03  0.34449239615E+03  0.00000000000E+00 0. -1.
         11    1    1    2    0    0  0.96446687999E+02 -0.35002394928E+02  0.15301210904E+03  0.18422767650E+03  0.00000000000E+00 0.  1.
</event>
<event>
 7    1  0.2899775E-009  0.1531257E+03  0.7561462E-02  0.1196684E+00
          2   -1    0    0  501    0  0.00000000000E+00  0.00000000000E+00  0.63366218006E+03  0.63366218006E+03  0.00000000000E+00 0. -1.
         -2   -1    0    0    0  501 -0.00000000000E+00 -0.00000000000E+00 -0.57287646777E+02  0.57287646777E+02  0.00000000000E+00 0.  1.
         25    2    1    2    0    0  0.11662200791E+03 -0.76563552955E+02  0.17508968378E+03  0.25644930388E+03  0.12508867945E+03 0.  0.
          5    1    3    3  502    0  0.57097400319E+02  0.12139880784E+02  0.94135390528E+01  0.59275432905E+02  0.41800000000E+01 0. -1.
         -5    1    3    3    0  502  0.59524607587E+02 -0.88703433740E+02  0.16567614472E+03  0.19717387098E+03  0.41800000000E+01 0. -1.
        -11    1    1    2    0    0 -0.25631844900E+02  0.78688802955E+01  0.12950530967E+02  0.29776282549E+02  0.00000000000E+00 0.  1.
         11    1    1    2    0    0 -0.90990163006E+02  0.68694672660E+02  0.38833431854E+03  0.40472424041E+03  0.00000000000E+00 0. -1.
</event>
<event>
 7    1  0.2899775E-009  0.1116059E+03  0.7561462E-02  0.1257625E+00
         -1   -1    0    0    0  501 -0.00000000000E+00  0.00000000000E+00  0.90832380307E+03  0.90832380307E+03  0.00000000000E+00 0.  1.
          1   -1    0    0  501    0  0.00000000000E+00 -0.00000000000E+00 -0.21255587969E+02  0.21255587969E+02  0.00000000000E+00 0. -1.
         25    2    1    2    0    0  0.39358228151E+02  0.70247876067E+02  0.58679779573E+03  0.60536153107E+03  0.12508835282E+03 0.  0.
          5    1    3    3  502    0  0.51996162982E+02  0.72572598609E+02  0.20882099750E+03  0.22714326851E+03  0.41800000000E+01 0.  1.
         -5    1    3    3    0  502 -0.12637934831E+02 -0.23247225424E+01  0.37797679823E+03  0.37821826256E+03  0.41800000000E+01 0.  1.
        -11    1    1    2    0    0  0.15461349367E+02 -0.63187812036E+02  0.13309048803E+03  0.14813787807E+03  0.00000000000E+00 0. -1.
         11    1    1    2    0    0 -0.54819577518E+02 -0.70600640304E+01  0.16717993134E+03  0.17607998190E+03  0.00000000000E+00 0.  1.
</event>
<event>
 7    1  0.2899775E-009  0.1237853E+03  0.7561462E-02  0.1236980E+00
          1   -1    0    0  501    0  0.00000000000E+00  0.00000000000E+00  0.11099185185E+04  0.11099185185E+04  0.00000000000E+00 0. -1.
         -1   -1    0    0    0  501 -0.00000000000E+00 -0.00000000000E+00 -0.14856718231E+02  0.14856718231E+02  0.00000000000E+00 0.  1.
         25    2    1    2    0    0  0.34674472914E+02  0.53954634574E+02  0.70844060272E+03  0.72225405008E+03  0.12509757632E+03 0.  0.
          5    1    3    3  502    0  0.81934077678E+02  0.35822472102E+02  0.47308277262E+03  0.48147816642E+03  0.41800000000E+01 0. -1.
         -5    1    3    3    0  502 -0.47259604764E+02  0.18132162472E+02  0.23535783011E+03  0.24077588366E+03  0.41800000000E+01 0. -1.
        -11    1    1    2    0    0  0.25644159439E+02  0.99550133700E+00  0.15115402548E+03  0.15331716588E+03  0.00000000000E+00 0. -1.
         11    1    1    2    0    0 -0.60318632353E+02 -0.54950135911E+02  0.23546717202E+03  0.24920402073E+03  0.00000000000E+00 0.  1.
</event>
<event>
 7    1  0.2899775E-009  0.2069028E+03  0.7561462E-02  0.1144042E+00
         -2   -1    0    0    0  501 -0.00000000000E+00  0.00000000000E+00  0.21662896120E+03  0.21662896120E+03  0.00000000000E+00 0.  1.
          2   -1    0    0  501    0  0.00000000000E+00 -0.00000000000E+00 -0.26327894753E+03  0.26327894753E+03  0.00000000000E+00 0. -1.
         25    2    1    2    0    0 -0.34012436144E+02 -0.19410202873E+03 -0.10341371831E+03  0.25529546584E+03  0.12509570087E+03 0.  0.
          5    1    3    3  502    0 -0.31030871290E+02 -0.20357606985E+03 -0.11783373673E+03  0.23729389604E+03  0.41800000000E+01 0. -1.
         -5    1    3    3    0  502 -0.29815648540E+01  0.94740411206E+01  0.14420018417E+02  0.18001569800E+02  0.41800000000E+01 0. -1.
        -11    1    1    2    0    0  0.80004615572E+01  0.46384908058E+02 -0.25511515235E+02  0.53538812933E+02  0.00000000000E+00 0.  1.
         11    1    1    2    0    0  0.26011974587E+02  0.14771712067E+03  0.82275247221E+02  0.17107362995E+03  0.00000000000E+00 0. -1.
</event>
<event>
 7    1  0.2899775E-009  0.9572456E+02  0.7561462E-02  0.1289552E+00
         -2   -1    0    0    0  501 -0.00000000000E+00  0.00000000000E+00  0.58329510890E+02  0.58329510890E+02  0.00000000000E+00 0.  1.
          2   -1    0    0  501    0  0.00000000000E+00 -0.00000000000E+00 -0.25560152723E+03  0.25560152723E+03  0.00000000000E+00 0. -1.
         25    2    1    2    0    0 -0.57198661042E+01 -0.51796321848E+02 -0.14469908509E+03  0.19824222025E+03  0.12508627757E+03 0.  0.
          5    1    3    3  502    0  0.59379134242E+02 -0.30504761757E+02 -0.71436916224E+02  0.97862799228E+02  0.41800000000E+01 0.  1.
         -5    1    3    3    0  502 -0.65099000346E+02 -0.21291560091E+02 -0.73262168865E+02  0.10037942102E+03  0.41800000000E+01 0.  1.
        -11    1    1    2    0    0 -0.63247777548E+01  0.33121536522E+02  0.20397731523E+02  0.39409471533E+02  0.00000000000E+00 0.  1.
         11    1    1    2    0    0  0.12044643859E+02  0.18674785326E+02 -0.72970662776E+02  0.76279346343E+02  0.00000000000E+00 0. -1.
</event>
<event>
 7    1  0.2899775E-009  0.1104933E+03  0.7561462E-02  0.1259659E+00
         -3   -1    0    0    0  501 -0.00000000000E+00  0.00000000000E+00  0.72322903280E+02  0.72322903280E+02  0.00000000000E+00 0.  1.
          3   -1    0    0  501    0  0.00000000000E+00 -0.00000000000E+00 -0.31440726652E+03  0.31440726652E+03  0.00000000000E+00 0. -1.
         25    2    1    2    0    0  0.72469105730E+02 -0.34589584009E+02 -0.21315230199E+03  0.25986494283E+03  0.12509066337E+03 0.  0.
          5    1    3    3  502    0  0.55014766444E+02 -0.57778946962E+02 -0.21609891965E+03  0.23039367768E+03  0.41800000000E+01 0. -1.
         -5    1    3    3    0  502  0.17454339286E+02  0.23189362953E+02  0.29466176652E+01  0.29471265153E+02  0.41800000000E+01 0. -1.
        -11    1    1    2    0    0  0.16908012315E+02  0.56257477244E+01  0.14864865547E+02  0.23205476631E+02  0.00000000000E+00 0.  1.
         11    1    1    2    0    0 -0.89377118045E+02  0.28963836285E+02 -0.43796926794E+02  0.10365975033E+03  0.00000000000E+00 0. -1.
</event>
<event>
 7    1  0.2899775E-009  0.1082939E+03  0.7561462E-02  0.1263762E+00
         -1   -1    0    0    0  501 -0.00000000000E+00  0.00000000000E+00  0.79381164574E+03  0.79381164574E+03  0.00000000000E+00 0.  1.
          1   -1    0    0  501    0  0.00000000000E+00 -0.00000000000E+00 -0.18531666387E+02  0.18531666387E+02  0.00000000000E+00 0. -1.
         25    2    1    2    0    0  0.15457258921E+02  0.83607835183E+02  0.48010848426E+03  0.50337687669E+03  0.12511964822E+03 0.  0.
          5    1    3    3  502    0  0.33455434469E+02 -0.62476817032E+01  0.29290124128E+03  0.29490152452E+03  0.41800000000E+01 0.  1.
         -5    1    3    3    0  502 -0.17998175548E+02  0.89855516886E+02  0.18720724298E+03  0.20847535217E+03  0.41800000000E+01 0.  1.
        -11    1    1    2    0    0 -0.24406674729E+02 -0.71178398265E+02  0.22900888704E+03  0.24105418581E+03  0.00000000000E+00 0.  1.
         11    1    1    2    0    0  0.89494158073E+01 -0.12429436918E+02  0.66162608051E+02  0.67912249628E+02  0.00000000000E+00 0. -1.
</event>
<event>
 7    1  0.2899775E-009  0.1020402E+03  0.7561462E-02  0.1276063E+00
         -4   -1    0    0    0  501 -0.00000000000E+00  0.00000000000E+00  0.24680269180E+03  0.24680269180E+03  0.00000000000E+00 0.  1.
          4   -1    0    0  501    0  0.00000000000E+00 -0.00000000000E+00 -0.51690919815E+02  0.51690919815E+02  0.00000000000E+00 0. -1.
         25    2    1    2    0    0  0.46675873433E+01 -0.41019915225E+01  0.66250658968E+02  0.14173398449E+03  0.12514295761E+03 0.  0.
          5    1    3    3  502    0  0.62455657143E+02  0.14854348387E+02  0.33606297156E+02  0.72582479867E+02  0.41800000000E+01 0.  1.
         -5    1    3    3    0  502 -0.57788069800E+02 -0.18956339910E+02  0.32644361812E+02  0.69151504626E+02  0.41800000000E+01 0.  1.
        -11    1    1    2    0    0 -0.17536882007E+02  0.38366109001E+02  0.31209771714E+02  0.52474283234E+02  0.00000000000E+00 0.  1.
         11    1    1    2    0    0  0.12869294664E+02 -0.34264117479E+02  0.97651341298E+02  0.10428534388E+03  0.00000000000E+00 0. -1.
</event>
<event>
 7    1  0.2899775E-009  0.9183091E+02  0.7561462E-02  0.1298477E+00
         -2   -1    0    0    0  501 -0.00000000000E+00  0.00000000000E+00  0.35973702381E+02  0.35973702381E+02  0.00000000000E+00 0. -1.
          2   -1    0    0  501    0  0.00000000000E+00 -0.00000000000E+00 -0.50632425485E+03  0.50632425485E+03  0.00000000000E+00 0.  1.
         25    2    1    2    0    0  0.46060845734E+02 -0.44971080263E+02 -0.35691680625E+03  0.38364226120E+03  0.12509108051E+03 0.  0.
          5    1    3    3  502    0 -0.37885758508E+01  0.23126205493E+02 -0.87383229214E+01  0.25357550650E+02  0.41800000000E+01 0.  1.
         -5    1    3    3    0  502  0.49849421584E+02 -0.68097285756E+02 -0.34817848333E+03  0.35828471055E+03  0.41800000000E+01 0.  1.
        -11    1    1    2    0    0 -0.31609348126E+02  0.50756427907E+02 -0.12546279982E+03  0.13898302055E+03  0.00000000000E+00 0.  1.
         11    1    1    2    0    0 -0.14451497608E+02 -0.57853476440E+01  0.12029053595E+02  0.19672675488E+02  0.00000000000E+00 0. -1.
</event>
<event>
 7    1  0.2899775E-009  0.8687910E+02  0.7561462E-02  0.1310590E+00
          1   -1    0    0  501    0  0.00000000000E+00  0.00000000000E+00  0.12395218163E+03  0.12395218163E+03  0.00000000000E+00 0. -1.
         -1   -1    0    0    0  501 -0.00000000000E+00 -0.00000000000E+00 -0.10418137518E+03  0.10418137518E+03  0.00000000000E+00 0.  1.
         25    2    1    2    0    0  0.20489381581E+02  0.29958547345E+01 -0.21006815982E+02  0.12852449945E+03  0.12509384773E+03 0.  0.
          5    1    3    3  502    0 -0.10382554437E+02  0.38869173984E+02  0.36115166347E+02  0.54225342443E+02  0.41800000000E+01 0.  1.
         -5    1    3    3    0  502  0.30871936018E+02 -0.35873319249E+02 -0.57121982328E+02  0.74299157011E+02  0.41800000000E+01 0.  1.
        -11    1    1    2    0    0  0.17605019766E+02  0.30404656876E+02  0.33280604380E+02  0.48393992485E+02  0.00000000000E+00 0. -1.
         11    1    1    2    0    0 -0.38094401347E+02 -0.33400511610E+02  0.74970180517E+01  0.51215064869E+02  0.00000000000E+00 0.  1.
</event>
<event>
 7    1  0.2899775E-009  0.1088977E+03  0.7561462E-02  0.1262625E+00
         -3   -1    0    0    0  501 -0.00000000000E+00  0.00000000000E+00  0.14978030986E+02  0.14978030986E+02  0.00000000000E+00 0.  1.
          3   -1    0    0  501    0  0.00000000000E+00 -0.00000000000E+00 -0.97756638195E+03  0.97756638195E+03  0.00000000000E+00 0. -1.
         25    2    1    2    0    0  0.29490604870E+02  0.66131282364E+01 -0.70491281535E+03  0.71656301106E+03  0.12508813824E+03 0.  0.
          5    1    3    3  502    0 -0.31507679389E+02  0.40458942504E+02 -0.18671054248E+03  0.19366971617E+03  0.41800000000E+01 0. -1.
         -5    1    3    3    0  502  0.60998284259E+02 -0.33845814268E+02 -0.51820227287E+03  0.52289329489E+03  0.41800000000E+01 0. -1.
        -11    1    1    2    0    0  0.19375039091E+02 -0.34959015606E+02 -0.13747864434E+03  0.14317088588E+03  0.00000000000E+00 0. -1.
         11    1    1    2    0    0 -0.48865643962E+02  0.28345887370E+02 -0.12019689127E+03  0.13281051600E+03  0.00000000000E+00 0.  1.
</event>
<event>
 7    1  0.2899775E-009  0.1611643E+03  0.7561462E-02  0.1187389E+00
         -1   -1    0    0    0  501 -0.00000000000E+00  0.00000000000E+00  0.94473958857E+02  0.94473958857E+02  0.00000000000E+00 0.  1.
          1   -1    0    0  501    0  0.00000000000E+00 -0.00000000000E+00 -0.33263535396E+03  0.33263535396E+03  0.00000000000E+00 0. -1.
         25    2    1    2    0    0 -0.12651185294E+03  0.51887640072E+02 -0.16847739541E+03  0.25045898249E+03  0.12508993973E+03 0.  0.
          5    1    3    3  502    0 -0.27116045508E+02  0.53939667000E+02 -0.71834295363E+01  0.60941296836E+02  0.41800000000E+01 0. -1.
         -5    1    3    3    0  502 -0.99395807428E+02 -0.20520269281E+01 -0.16129396588E+03  0.18951768566E+03  0.41800000000E+01 0. -1.
        -11    1    1    2    0    0  0.10214167080E+03  0.30708760288E+01 -0.42600762436E+02  0.11071213192E+03  0.00000000000E+00 0. -1.
         11    1    1    2    0    0  0.24370182134E+02 -0.54958516101E+02 -0.27083237260E+02  0.65938198411E+02  0.00000000000E+00 0.  1.
</event>
<event>
 7    1  0.2899775E-009  0.1192872E+03  0.7561462E-02  0.1244278E+00
          2   -1    0    0  501    0  0.00000000000E+00  0.00000000000E+00  0.39640668520E+03  0.39640668520E+03  0.00000000000E+00 0. -1.
         -2   -1    0    0    0  501 -0.00000000000E+00 -0.00000000000E+00 -0.55163521507E+02  0.55163521507E+02  0.00000000000E+00 0.  1.
         25    2    1    2    0    0  0.10034961429E+03 -0.62124733324E+01  0.17421383114E+03  0.23686979926E+03  0.12509277727E+03 0.  0.
          5    1    3    3  502    0 -0.14753791907E+02 -0.16318134254E+02  0.92792468591E+02  0.95456118234E+02  0.41800000000E+01 0.  1.
         -5    1    3    3    0  502  0.11510340620E+03  0.10105660922E+02  0.81421362549E+02  0.14141368102E+03  0.41800000000E+01 0.  1.
        -11    1    1    2    0    0 -0.25237310072E+02  0.23961395439E+01  0.12699321564E+03  0.12949880355E+03  0.00000000000E+00 0. -1.
         11    1    1    2    0    0 -0.75112304218E+02  0.38163337886E+01  0.40036116915E+02  0.85201603894E+02  0.00000000000E+00 0.  1.
</event>
<event>
 7    1  0.2899775E-009  0.6591023E+02  0.7561462E-02  0.1374580E+00
         -1   -1    0    0    0  501 -0.00000000000E+00  0.00000000000E+00  0.10492977820E+03  0.10492977820E+03  0.00000000000E+00 0.  1.
          1   -1    0    0  501    0  0.00000000000E+00 -0.00000000000E+00 -0.10032106780E+03  0.10032106780E+03  0.00000000000E+00 0. -1.
         25    2    1    2    0    0  0.12327834726E+02 -0.15747347497E+02 -0.14600671240E+02  0.12750743777E+03  0.12508002488E+03 0.  0.
          5    1    3    3  502    0  0.37603762755E+02 -0.22191373199E+02 -0.60393264252E+02  0.74641267305E+02  0.41800000000E+01 0. -1.
         -5    1    3    3    0  502 -0.25275928029E+02  0.64440257020E+01  0.45792593012E+02  0.52866170466E+02  0.41800000000E+01 0. -1.
        -11    1    1    2    0    0  0.17990003912E+02  0.24117474649E+02  0.31878826504E+02  0.43835515321E+02  0.00000000000E+00 0.  1.
         11    1    1    2    0    0 -0.30317838638E+02 -0.83701271516E+01 -0.12669444860E+02  0.33907892905E+02  0.00000000000E+00 0. -1.
</event>
<event>
 7    1  0.2899775E-009  0.1456636E+03  0.7561462E-02  0.1205905E+00
          2   -1    0    0  501    0  0.00000000000E+00  0.00000000000E+00  0.66982306906E+03  0.66982306906E+03  0.00000000000E+00 0. -1.
         -2   -1    0    0    0  501 -0.00000000000E+00 -0.00000000000E+00 -0.33706777406E+02  0.33706777406E+02  0.00000000000E+00 0.  1.
         25    2    1    2    0    0  0.86785422250E+02 -0.57189209537E+02  0.30147028336E+03  0.34254034654E+03  0.12508893658E+03 0.  0.
          5    1    3    3  502    0 -0.76493146844E+01 -0.64449546853E+02  0.92556168114E+02  0.11312105357E+03  0.41800000000E+01 0. -1.
         -5    1    3    3    0  502  0.94434736934E+02  0.72603373158E+01  0.20891411524E+03  0.22941929297E+03  0.41800000000E+01 0. -1.
        -11    1    1    2    0    0 -0.47490450992E+02 -0.14566844632E+02  0.87030435281E+02  0.10020894453E+03  0.00000000000E+00 0.  1.
         11    1    1    2    0    0 -0.39294971258E+02  0.71756054170E+02  0.24761557302E+03  0.26078055541E+03  0.00000000000E+00 0. -1.
</event>
<event>
 7    1  0.2899775E-009  0.1086588E+03  0.7561462E-02  0.1263074E+00
          2   -1    0    0  501    0  0.00000000000E+00  0.00000000000E+00  0.23627233750E+03  0.23627233750E+03  0.00000000000E+00 0. -1.
         -2   -1    0    0    0  501 -0.00000000000E+00 -0.00000000000E+00 -0.81851129925E+02  0.81851129925E+02  0.00000000000E+00 0.  1.
         25    2    1    2    0    0  0.23408463251E+02  0.53418858042E+02  0.10546800403E+02  0.13843054348E+03  0.12510095852E+03 0.  0.
          5    1    3    3  502    0 -0.42742812475E+02 -0.11702516355E+02  0.94435248551E+01  0.45503290749E+02  0.41800000000E+01 0.  1.
         -5    1    3    3    0  502  0.66151275726E+02  0.65121374397E+02  0.11032755481E+01  0.92927252733E+02  0.41800000000E+01 0.  1.
        -11    1    1    2    0    0  0.12975239727E+02 -0.38381803750E+02  0.13273199449E+03  0.13877788753E+03  0.00000000000E+00 0.  1.
         11    1    1    2    0    0 -0.36383702979E+02 -0.15037054292E+02  0.11142412677E+02  0.40915036411E+02  0.00000000000E+00 0. -1.
</event>
<event>
 7    1  0.2899775E-009  0.2920633E+03  0.7561462E-02  0.1089277E+00
         -2   -1    0    0    0  501 -0.00000000000E+00  0.00000000000E+00  0.12392200699E+03  0.12392200699E+03  0.00000000000E+00 0.  1.
          2   -1    0    0  501    0  0.00000000000E+00 -0.00000000000E+00 -0.11010911213E+04  0.11010911213E+04  0.00000000000E+00 0. -1.
         25    2    1    2    0    0  0.20659046617E+03  0.18371377455E+03 -0.13073007866E+03  0.33040557791E+03  0.12508845182E+03 0.  0.
          5    1    3    3  502    0  0.78858123608E+02 -0.76229521419E+00 -0.31407554567E+02  0.84988773593E+02  0.41800000000E+01 0.  1.
         -5    1    3    3    0  502  0.12773234256E+03  0.18447606976E+03 -0.99322524091E+02  0.24541680432E+03  0.41800000000E+01 0.  1.
        -11    1    1    2    0    0 -0.76887296657E+02 -0.38361997890E+02 -0.16723171509E+03  0.18801528076E+03  0.00000000000E+00 0. -1.
         11    1    1    2    0    0 -0.12970316951E+03 -0.14535177666E+03 -0.67920732052E+03  0.70659226957E+03  0.00000000000E+00 0.  1.
</event>
<event>
 7    1  0.2899775E-009  0.1082972E+03  0.7561462E-02  0.1263756E+00
          1   -1    0    0  501    0  0.00000000000E+00  0.00000000000E+00  0.53823374137E+03  0.53823374137E+03  0.00000000000E+00 0. -1.
         -1   -1    0    0    0  501 -0.00000000000E+00 -0.00000000000E+00 -0.26396214048E+02  0.26396214048E+02  0.00000000000E+00 0.  1.
         25    2    1    2    0    0 -0.50295765368E+02  0.82498284947E+01  0.31503835644E+03  0.34277412029E+03  0.12508879977E+03 0.  0.
          5    1    3    3  502    0  0.26349800554E+02 -0.36014823701E+02  0.81846381177E+02  0.93314961433E+02  0.41800000000E+01 0. -1.
         -5    1    3    3    0  502 -0.76645565922E+02  0.44264652196E+02  0.23319197527E+03  0.24945915886E+03  0.41800000000E+01 0. -1.
        -11    1    1    2    0    0  0.46254179496E+02  0.22999285931E+02  0.50638116398E+02  0.72336955331E+02  0.00000000000E+00 0.  1.
         11    1    1    2    0    0  0.40415858720E+01 -0.31249114426E+02  0.14616105448E+03  0.14951887980E+03  0.00000000000E+00 0. -1.
</event>
<event>
 7    1  0.2899775E-009  0.1045068E+03  0.7561462E-02  0.1271094E+00
         -2   -1    0    0    0  501 -0.00000000000E+00  0.00000000000E+00  0.22225582858E+03  0.22225582858E+03  0.00000000000E+00 0.  1.
          2   -1    0    0  501    0  0.00000000000E+00 -0.00000000000E+00 -0.55431672368E+02  0.55431672368E+02  0.00000000000E+00 0. -1.
         25    2    1    2    0    0 -0.22814095553E+02  0.67937799008E+01  0.12012595031E+03  0.17505175946E+03  0.12508491576E+03 0.  0.
          5    1    3    3  502    0  0.33460793812E+02 -0.40851425404E+02  0.42570898260E+02  0.67957468013E+02  0.41800000000E+01 0. -1.
         -5    1    3    3    0  502 -0.56274889366E+02  0.47645205305E+02  0.77555052047E+02  0.10709429144E+03  0.41800000000E+01 0. -1.
        -11    1    1    2    0    0  0.44602417899E+02  0.18950860641E+02  0.45794042626E+01  0.48677322696E+02  0.00000000000E+00 0. -1.
         11    1    1    2    0    0 -0.21788322346E+02 -0.25744640542E+02  0.42118801645E+02  0.53958418799E+02  0.00000000000E+00 0.  1.
</event>
<event>
 7    1  0.3896018E-009  0.5324325E+02  0.7561462E-02  0.1428594E+00
         -2   -1    0    0    0  501 -0.00000000000E+00  0.00000000000E+00  0.27515112384E+03  0.27515112384E+03  0.00000000000E+00 0.  1.
          2   -1    0    0  501    0  0.00000000000E+00 -0.00000000000E+00 -0.64876874955E+02  0.64876874955E+02  0.00000000000E+00 0. -1.
         25    2    1    2    0    0  0.37930310786E+01 -0.24491248514E+02  0.20928915101E+03  0.24507952452E+03  0.12509123179E+03 0.  0.
          5    1    3    3  502    0 -0.14102079073E+02  0.94041780978E+01 -0.11528538855E+02  0.20920965752E+02  0.41800000000E+01 0.  1.
         -5    1    3    3    0  502  0.17895110152E+02 -0.33895426611E+02  0.22081768986E+03  0.22415855877E+03  0.41800000000E+01 0.  1.
        -11    1    1    2    0    0 -0.92250773537E+01  0.36310614824E+02  0.39413514004E+02  0.54378193122E+02  0.00000000000E+00 0.  1.
         11    1    1    2    0    0  0.54320462751E+01 -0.11819366310E+02 -0.38428416127E+02  0.40570281152E+02  0.00000000000E+00 0. -1.
</event>
<event>
 7    1  0.2899775E-009  0.1084559E+03  0.7561462E-02  0.1263456E+00
          2   -1    0    0  501    0  0.00000000000E+00  0.00000000000E+00  0.69275774362E+02  0.69275774362E+02  0.00000000000E+00 0. -1.
         -2   -1    0    0    0  501 -0.00000000000E+00 -0.00000000000E+00 -0.17482168485E+03  0.17482168485E+03  0.00000000000E+00 0.  1.
         25    2    1    2    0    0  0.73012337841E+01  0.16630799278E+02 -0.71278235611E+02  0.14511293185E+03  0.12508910671E+03 0.  0.
          5    1    3    3  502    0  0.60369936921E+02  0.34812354826E+02 -0.34202810611E+02  0.77741456033E+02  0.41800000000E+01 0.  1.
         -5    1    3    3    0  502 -0.53068703137E+02 -0.18181555548E+02 -0.37075425000E+02  0.67371475817E+02  0.41800000000E+01 0.  1.
        -11    1    1    2    0    0  0.39980166871E+02  0.19912451055E+01 -0.49958976731E+01  0.40340275082E+02  0.00000000000E+00 0. -1.
         11    1    1    2    0    0 -0.47281400655E+02 -0.18622044383E+02 -0.29271777203E+02  0.58644252281E+02  0.00000000000E+00 0.  1.
</event>
<event>
 7    1  0.2899775E-009  0.1105526E+03  0.7561462E-02  0.1259550E+00
          1   -1    0    0  501    0  0.00000000000E+00  0.00000000000E+00  0.16490276227E+03  0.16490276227E+03  0.00000000000E+00 0. -1.
         -1   -1    0    0    0  501 -0.00000000000E+00 -0.00000000000E+00 -0.80543373924E+02  0.80543373924E+02  0.00000000000E+00 0.  1.
         25    2    1    2    0    0  0.27053006668E+02 -0.90325595509E+01  0.53155037977E+02  0.13887552433E+03  0.12508997120E+03 0.  0.
          5    1    3    3  502    0 -0.36958864523E+02 -0.42031757213E+02  0.24897309680E+02  0.61400119793E+02  0.41800000000E+01 0. -1.
         -5    1    3    3    0  502  0.64011871191E+02  0.32999197662E+02  0.28257728297E+02  0.77475404537E+02  0.41800000000E+01 0. -1.
        -11    1    1    2    0    0  0.31386782480E+02 -0.71731562188E+01 -0.94563753469E+01  0.33556032532E+02  0.00000000000E+00 0.  1.
         11    1    1    2    0    0 -0.58439789148E+02  0.16205715770E+02  0.40660725719E+02  0.73014579334E+02  0.00000000000E+00 0. -1.
</event>
<event>
 7    1  0.2899775E-009  0.1121532E+03  0.7561462E-02  0.1256634E+00
          1   -1    0    0  501    0  0.00000000000E+00  0.00000000000E+00  0.13772365051E+03  0.13772365051E+03  0.00000000000E+00 0. -1.
         -1   -1    0    0    0  501 -0.00000000000E+00 -0.00000000000E+00 -0.11700746111E+03  0.11700746111E+03  0.00000000000E+00 0.  1.
         25    2    1    2    0    0  0.45944180512E+01 -0.56965272038E+02  0.26010687221E+02  0.13996421689E+03  0.12508906933E+03 0.  0.
          5    1    3    3  502    0 -0.59458053844E+02 -0.18606929234E+02  0.16502289496E+02  0.64585415854E+02  0.41800000000E+01 0. -1.
         -5    1    3    3    0  502  0.64052471895E+02 -0.38358342804E+02  0.95083977253E+01  0.75378801037E+02  0.41800000000E+01 0. -1.
        -11    1    1    2    0    0  0.19230425098E+02  0.60059590633E+02 -0.38421083175E+02  0.73845401406E+02  0.00000000000E+00 0.  1.
         11    1    1    2    0    0 -0.23824843149E+02 -0.30943185954E+01  0.33126585349E+02  0.40921493320E+02  0.00000000000E+00 0. -1.
</event>
<event>
 7    1  0.2899775E-009  0.1146768E+03  0.7561462E-02  0.1252146E+00
          1   -1    0    0  501    0  0.00000000000E+00  0.00000000000E+00  0.36218510482E+03  0.36218510482E+03  0.00000000000E+00 0. -1.
         -1   -1    0    0    0  501 -0.00000000000E+00 -0.00000000000E+00 -0.44219425346E+02  0.44219425346E+02  0.00000000000E+00 0.  1.
         25    2    1    2    0    0 -0.15886516624E+02 -0.61441110670E+02  0.20331249940E+03  0.24700313169E+03  0.12508870116E+03 0.  0.
          5    1    3    3  502    0 -0.39582272264E+02  0.26908994236E+02  0.81576439200E+02  0.94673322963E+02  0.41800000000E+01 0.  1.
         -5    1    3    3    0  502  0.23695755640E+02 -0.88350104906E+02  0.12173606020E+03  0.15232980872E+03  0.41800000000E+01 0.  1.
        -11    1    1    2    0    0  0.40616752577E+02  0.36276388760E+02  0.11136367478E+03  0.12396598336E+03  0.00000000000E+00 0. -1.
         11    1    1    2    0    0 -0.24730235953E+02  0.25164721910E+02  0.32895052898E+01  0.35435415112E+02  0.00000000000E+00 0.  1.
</event>
<event>
 7    1  0.2899775E-009  0.6726474E+02  0.7561462E-02  0.1369649E+00
          2   -1    0    0  501    0  0.00000000000E+00  0.00000000000E+00  0.13137062620E+03  0.13137062620E+03  0.00000000000E+00 0.  1.
         -2   -1    0    0    0  501 -0.00000000000E+00 -0.00000000000E+00 -0.11338692656E+03  0.11338692656E+03  0.00000000000E+00 0. -1.
         25    2    1    2    0    0  0.35430154629E+02  0.21745583214E+02 -0.41812536848E+02  0.13828817123E+03  0.12508862386E+03 0.  0.
          5    1    3    3  502    0  0.40691640220E+02  0.15149863191E+01 -0.82644585360E+02  0.92226377228E+02  0.41800000000E+01 0. -1.
         -5    1    3    3    0  502 -0.52614855904E+01  0.20230596895E+02  0.40832048511E+02  0.46061794005E+02  0.41800000000E+01 0. -1.
        -11    1    1    2    0    0 -0.29137836650E+02  0.16522454072E+02 -0.19511895179E+01  0.33553124351E+02  0.00000000000E+00 0. -1.
         11    1    1    2    0    0 -0.62923179796E+01 -0.38268037285E+02  0.61747426006E+02  0.72916257183E+02  0.00000000000E+00 0.  1.
</event>
<event>
 7    1  0.2899775E-009  0.1001492E+03  0.7561462E-02  0.1279983E+00
          1   -1    0    0  501    0  0.00000000000E+00  0.00000000000E+00  0.11153994200E+04  0.11153994200E+04  0.00000000000E+00 0. -1.
         -1   -1    0    0    0  501 -0.00000000000E+00 -0.00000000000E+00 -0.15629229951E+02  0.15629229951E+02  0.00000000000E+00 0.  1.
         25    2    1    2    0    0  0.49879641704E+02  0.22610863529E+02  0.82772485462E+03  0.83891175760E+03  0.12508106283E+03 0.  0.
          5    1    3    3  502    0  0.72779264214E+02  0.56485740607E+02  0.64913025454E+03  0.65564854911E+03  0.41800000000E+01 0. -1.
         -5    1    3    3    0  502 -0.22899622511E+02 -0.33874877078E+02  0.17859460008E+03  0.18326320849E+03  0.41800000000E+01 0. -1.
        -11    1    1    2    0    0 -0.44491180178E+02 -0.79035875305E+00  0.26478402628E+03  0.26849705837E+03  0.00000000000E+00 0. -1.
         11    1    1    2    0    0 -0.53884615251E+01 -0.21820504776E+02  0.72613091370E+01  0.23619833968E+02  0.00000000000E+00 0.  1.
</event>
<event>
 7    1  0.2899775E-009  0.1513820E+03  0.7561462E-02  0.1198785E+00
          2   -1    0    0  501    0  0.00000000000E+00  0.00000000000E+00  0.57748240936E+02  0.57748240936E+02  0.00000000000E+00 0. -1.
         -2   -1    0    0    0  501 -0.00000000000E+00 -0.00000000000E+00 -0.48562497794E+03  0.48562497794E+03  0.00000000000E+00 0.  1.
         25    2    1    2    0    0 -0.87858997490E+02  0.90163648841E+02 -0.18848274639E+03  0.25888600379E+03  0.12509008856E+03 0.  0.
          5    1    3    3  502    0 -0.11439241755E+03  0.55244436404E+02 -0.16701524475E+03  0.20987886345E+03  0.41800000000E+01 0.  1.
         -5    1    3    3    0  502  0.26533420055E+02  0.34919212437E+02 -0.21467501647E+02  0.49007140337E+02  0.41800000000E+01 0.  1.
        -11    1    1    2    0    0  0.11758355074E+02 -0.36872583099E+02 -0.15230794839E+03  0.15714820216E+03  0.00000000000E+00 0.  1.
         11    1    1    2    0    0  0.76100642417E+02 -0.53291065742E+02 -0.87086042218E+02  0.12733901293E+03  0.00000000000E+00 0. -1.
</event>
<event>
 7    1  0.2899775E-009  0.1674763E+03  0.7561462E-02  0.1180505E+00
          2   -1    0    0  501    0  0.00000000000E+00  0.00000000000E+00  0.31773134304E+03  0.31773134304E+03  0.00000000000E+00 0. -1.
         -2   -1    0    0    0  501 -0.00000000000E+00 -0.00000000000E+00 -0.12236393797E+03  0.12236393797E+03  0.00000000000E+00 0.  1.
         25    2    1    2    0    0 -0.96336012930E+02 -0.86133892963E+02 -0.83603781809E+01  0.18004878720E+03  0.12509194596E+03 0.  0.
          5    1    3    3  502    0 -0.50882327850E+02 -0.11070456430E+03  0.15667524850E+02  0.12291238986E+03  0.41800000000E+01 0. -1.
         -5    1    3    3    0  502 -0.45453685081E+02  0.24570671341E+02 -0.24027903031E+02  0.57136397345E+02  0.41800000000E+01 0. -1.
        -11    1    1    2    0    0  0.13943379469E+01  0.63612914458E+02  0.71473330091E+02  0.95692131226E+02  0.00000000000E+00 0. -1.
         11    1    1    2    0    0  0.94941674983E+02  0.22520978504E+02  0.13225445316E+03  0.16435436259E+03  0.00000000000E+00 0.  1.
</event>
<event>
 7    1  0.2899775E-009  0.1463818E+03  0.7561462E-02  0.1204991E+00
          1   -1    0    0  501    0  0.00000000000E+00  0.00000000000E+00  0.88716196167E+03  0.88716196167E+03  0.00000000000E+00 0. -1.
         -1   -1    0    0    0  501 -0.00000000000E+00 -0.00000000000E+00 -0.34526608305E+02  0.34526608305E+02  0.00000000000E+00 0.  1.
         25    2    1    2    0    0  0.11410641927E+03 -0.32877286657E+02  0.63904766196E+03  0.66191424860E+03  0.12508943740E+03 0.  0.
          5    1    3    3  502    0 -0.25259429282E+02 -0.15934593029E+02  0.15473898588E+03  0.15765017023E+03  0.41800000000E+01 0.  1.
         -5    1    3    3    0  502  0.13936584855E+03 -0.16942693628E+02  0.48430867608E+03  0.50426407838E+03  0.41800000000E+01 0.  1.
        -11    1    1    2    0    0 -0.80918193820E+02  0.93182285617E+01  0.60756495312E+02  0.10161660887E+03  0.00000000000E+00 0.  1.
         11    1    1    2    0    0 -0.33188225445E+02  0.23559058095E+02  0.15283119610E+03  0.15815771251E+03  0.00000000000E+00 0. -1.
</event>
<event>
 7    1  0.2899775E-009  0.4759879E+02  0.7561462E-02  0.1458741E+00
         -2   -1    0    0    0  501 -0.00000000000E+00  0.00000000000E+00  0.75037325961E+02  0.75037325961E+02  0.00000000000E+00 0. -1.
          2   -1    0    0  501    0  0.00000000000E+00 -0.00000000000E+00 -0.17894833881E+03  0.17894833881E+03  0.00000000000E+00 0.  1.
         25    2    1    2    0    0 -0.64472890188E+01 -0.18357064716E+02 -0.18955278362E+02  0.12800581893E+03  0.12509051820E+03 0.  0.
          5    1    3    3  502    0  0.18906845972E+02  0.12552714030E+00  0.49192130085E+02  0.52866082170E+02  0.41800000000E+01 0.  1.
         -5    1    3    3    0  502 -0.25354134991E+02 -0.18482591856E+02 -0.68147408448E+02  0.75139736764E+02  0.41800000000E+01 0.  1.
        -11    1    1    2    0    0  0.17986277130E+02 -0.45313125943E+01 -0.96212769411E+02  0.97984365878E+02  0.00000000000E+00 0.  1.
         11    1    1    2    0    0 -0.11538988112E+02  0.22888377310E+02  0.11257034928E+02  0.27995479955E+02  0.00000000000E+00 0. -1.
</event>
<event>
 7    1  0.2899775E-009  0.9122253E+02  0.7561462E-02  0.1299918E+00
         -2   -1    0    0    0  501 -0.00000000000E+00  0.00000000000E+00  0.11997460788E+03  0.11997460788E+03  0.00000000000E+00 0.  1.
          2   -1    0    0  501    0  0.00000000000E+00 -0.00000000000E+00 -0.11826403389E+03  0.11826403389E+03  0.00000000000E+00 0. -1.
         25    2    1    2    0    0 -0.48077055203E+02 -0.88470278566E+01 -0.68371543119E+01  0.13447641011E+03  0.12508990790E+03 0.  0.
          5    1    3    3  502    0 -0.50933835505E+02 -0.46538694110E+02 -0.43485809276E+02  0.81661457598E+02  0.41800000000E+01 0. -1.
         -5    1    3    3    0  502  0.28567803023E+01  0.37691666253E+02  0.36648654964E+02  0.52814952516E+02  0.41800000000E+01 0. -1.
        -11    1    1    2    0    0 -0.12365540884E+02  0.82210876677E+01 -0.29016347258E+02  0.32595111474E+02  0.00000000000E+00 0. -1.
         11    1    1    2    0    0  0.60442596087E+02  0.62594018887E+00  0.37564075562E+02  0.71167120187E+02  0.00000000000E+00 0.  1.
</event>
<event>
 7    1  0.2899775E-009  0.1283678E+03  0.7561462E-02  0.1229898E+00
          1   -1    0    0  501    0  0.00000000000E+00  0.00000000000E+00  0.10663252005E+04  0.10663252005E+04  0.00000000000E+00 0. -1.
         -1   -1    0    0    0  501 -0.00000000000E+00 -0.00000000000E+00 -0.25563997220E+02  0.25563997220E+02  0.00000000000E+00 0.  1.
         25    2    1    2    0    0  0.99028939651E+02  0.34934974774E+02  0.77305686002E+03  0.79012095442E+03  0.12508809071E+03 0.  0.
          5    1    3    3  502    0  0.16324164652E+02  0.53405194401E+02  0.13079694148E+03  0.14228107900E+03  0.41800000000E+01 0.  1.
         -5    1    3    3    0  502  0.82704774999E+02 -0.18470219627E+02  0.64225991854E+03  0.64783987542E+03  0.41800000000E+01 0.  1.
        -11    1    1    2    0    0 -0.51128560481E+02  0.77717896381E+01  0.20724436099E+03  0.21359952148E+03  0.00000000000E+00 0.  1.
         11    1    1    2    0    0 -0.47900379170E+02 -0.42706764412E+02  0.60459982239E+02  0.88168721798E+02  0.00000000000E+00 0. -1.
</event>
<event>
 7    1  0.2899775E-009  0.8856928E+02  0.7561462E-02  0.1306354E+00
          1   -1    0    0  501    0  0.00000000000E+00  0.00000000000E+00  0.32993284897E+02  0.32993284897E+02  0.00000000000E+00 0. -1.
         -1   -1    0    0    0  501 -0.00000000000E+00 -0.00000000000E+00 -0.36881666988E+03  0.36881666988E+03  0.00000000000E+00 0.  1.
         25    2    1    2    0    0  0.44045317545E+01 -0.18486378776E+02 -0.19639090438E+03  0.23362172576E+03  0.12509427376E+03 0.  0.
          5    1    3    3  502    0 -0.12608257865E+02 -0.67439592476E+02 -0.75936948779E+02  0.10242538450E+03  0.41800000000E+01 0. -1.
         -5    1    3    3    0  502  0.17012789620E+02  0.48953213701E+02 -0.12045395560E+03  0.13119634127E+03  0.41800000000E+01 0. -1.
        -11    1    1    2    0    0  0.10884306219E+02  0.33353304624E+02 -0.14239906905E+03  0.14665744412E+03  0.00000000000E+00 0.  1.
         11    1    1    2    0    0 -0.15288837974E+02 -0.14866925849E+02  0.29665884465E+01  0.21530784886E+02  0.00000000000E+00 0. -1.
</event>
<event>
 7    1  0.2899775E-009  0.1641553E+03  0.7561462E-02  0.1184084E+00
         -1   -1    0    0    0  501 -0.00000000000E+00  0.00000000000E+00  0.26172708898E+02  0.26172708898E+02  0.00000000000E+00 0.  1.
          1   -1    0    0  501    0  0.00000000000E+00 -0.00000000000E+00 -0.10977220014E+04  0.10977220014E+04  0.00000000000E+00 0. -1.
         25    2    1    2    0    0  0.76590585703E+02  0.10817001743E+03 -0.59873825687E+03  0.62586257266E+03  0.12509831783E+03 0.  0.
          5    1    3    3  502    0  0.91528977555E+02  0.36066867954E+02 -0.23627856037E+03  0.25597539567E+03  0.41800000000E+01 0. -1.
         -5    1    3    3    0  502 -0.14938391852E+02  0.72103149480E+02 -0.36245969649E+03  0.36988717699E+03  0.41800000000E+01 0. -1.
        -11    1    1    2    0    0 -0.20260906080E+02 -0.96448766560E+02 -0.28128510465E+03  0.29805063158E+03  0.00000000000E+00 0.  1.
         11    1    1    2    0    0 -0.56329679622E+02 -0.11721250874E+02 -0.19152593099E+03  0.19998150607E+03  0.00000000000E+00 0. -1.
</event>
<event>
 7    1  0.2899775E-009  0.1232483E+03  0.7561462E-02  0.1237833E+00
          3   -1    0    0  501    0  0.00000000000E+00  0.00000000000E+00  0.19512015731E+03  0.19512015731E+03  0.00000000000E+00 0. -1.
         -3   -1    0    0    0  501 -0.00000000000E+00 -0.00000000000E+00 -0.10837789025E+03  0.10837789025E+03  0.00000000000E+00 0.  1.
         25    2    1    2    0    0 -0.52995045003E+02  0.67986069451E+02  0.91156154572E+02  0.17716539867E+03  0.12509018161E+03 0.  0.
          5    1    3    3  502    0 -0.21155477657E+02  0.99289553357E+02  0.40153918100E+02  0.10925099166E+03  0.41800000000E+01 0.  1.
         -5    1    3    3    0  502 -0.31839567346E+02 -0.31303483906E+02  0.51002236472E+02  0.67914407003E+02  0.41800000000E+01 0.  1.
        -11    1    1    2    0    0  0.36452818481E+02 -0.73394501862E+01  0.35873916066E+02  0.51668301290E+02  0.00000000000E+00 0. -1.
         11    1    1    2    0    0  0.16542226521E+02 -0.60646619265E+02 -0.40287803572E+02  0.74664347605E+02  0.00000000000E+00 0.  1.
</event>
<event>
 7    1  0.2899775E-009  0.1424891E+03  0.7561462E-02  0.1210018E+00
          4   -1    0    0  501    0  0.00000000000E+00  0.00000000000E+00  0.50041676030E+03  0.50041676030E+03  0.00000000000E+00 0. -1.
         -4   -1    0    0    0  501 -0.00000000000E+00 -0.00000000000E+00 -0.52664536534E+02  0.52664536534E+02  0.00000000000E+00 0.  1.
         25    2    1    2    0    0  0.68547024380E+02  0.98125272488E+02  0.21049990711E+03  0.27255157510E+03  0.12508751555E+03 0.  0.
          5    1    3    3  502    0  0.26071542905E+02  0.10653176170E+03  0.82334035865E+02  0.13720461895E+03  0.41800000000E+01 0. -1.
         -5    1    3    3    0  502  0.42475481476E+02 -0.84064892142E+01  0.12816587124E+03  0.13534695615E+03  0.41800000000E+01 0. -1.
        -11    1    1    2    0    0  0.17958044467E+00 -0.44628721725E+02  0.25115883423E+02  0.51210962226E+02  0.00000000000E+00 0.  1.
         11    1    1    2    0    0 -0.68726604825E+02 -0.53496550762E+02  0.21213643324E+03  0.22931875951E+03  0.00000000000E+00 0. -1.
</event>
<event>
 7    1  0.2899775E-009  0.1137918E+03  0.7561462E-02  0.1253705E+00
         -2   -1    0    0    0  501 -0.00000000000E+00  0.00000000000E+00  0.12200120645E+02  0.12200120645E+02  0.00000000000E+00 0.  1.
          2   -1    0    0  501    0  0.00000000000E+00 -0.00000000000E+00 -0.13297822077E+04  0.13297822077E+04  0.00000000000E+00 0. -1.
         25    2    1    2    0    0  0.45778506183E+02 -0.41353064109E+02 -0.84550260703E+03  0.85692951175E+03  0.12509109509E+03 0.  0.
          5    1    3    3  502    0 -0.30256850310E+02  0.11699501960E+01 -0.48743966311E+03  0.48839711644E+03  0.41800000000E+01 0.  1.
         -5    1    3    3    0  502  0.76035356493E+02 -0.42523014305E+02 -0.35806294392E+03  0.36853239531E+03  0.41800000000E+01 0.  1.
        -11    1    1    2    0    0 -0.69195514451E+02  0.49419461050E+02 -0.32701439891E+03  0.33788861988E+03  0.00000000000E+00 0.  1.
         11    1    1    2    0    0  0.23417008269E+02 -0.80663969419E+01 -0.14506508107E+03  0.14716419667E+03  0.00000000000E+00 0. -1.
</event>
<event>
 7    1  0.2899775E-009  0.8948418E+02  0.7561462E-02  0.1304106E+00
         -1   -1    0    0    0  501 -0.00000000000E+00  0.00000000000E+00  0.47460280884E+02  0.47460280884E+02  0.00000000000E+00 0.  1.
          1   -1    0    0  501    0  0.00000000000E+00 -0.00000000000E+00 -0.34864930553E+03  0.34864930553E+03  0.00000000000E+00 0. -1.
         25    2    1    2    0    0 -0.38379034165E+02 -0.42043921547E+02 -0.22384414812E+03  0.26266837130E+03  0.12509128278E+03 0.  0.
          5    1    3    3  502    0 -0.28229919257E+00  0.26022986942E+02 -0.15893242956E+03  0.16110327467E+03  0.41800000000E+01 0. -1.
         -5    1    3    3    0  502 -0.38096734973E+02 -0.68066908489E+02 -0.64911718563E+02  0.10156509663E+03  0.41800000000E+01 0. -1.
        -11    1    1    2    0    0  0.34425589293E+02  0.22429810867E+01  0.11208826235E+02  0.36273819042E+02  0.00000000000E+00 0.  1.
         11    1    1    2    0    0  0.39534448720E+01  0.39800940460E+02 -0.88553702761E+02  0.97167396078E+02  0.00000000000E+00 0. -1.
</event>
<event>
 7    1  0.2899775E-009  0.1150952E+03  0.7561462E-02  0.1251415E+00
         -2   -1    0    0    0  501 -0.00000000000E+00  0.00000000000E+00  0.82386819681E+01  0.82386819681E+01  0.00000000000E+00 0.  1.
          2   -1    0    0  501    0  0.00000000000E+00 -0.00000000000E+00 -0.19355064622E+04  0.19355064622E+04  0.00000000000E+00 0. -1.
         25    2    1    2    0    0  0.17938509140E+02 -0.41411292741E+02 -0.14248458409E+04  0.14310384999E+04  0.12509529435E+03 0.  0.
          5    1    3    3  502    0  0.28180077648E+02  0.38915183686E+02 -0.37942674542E+03  0.38247958879E+03  0.41800000000E+01 0. -1.
         -5    1    3    3    0  502 -0.10241568508E+02 -0.80326476427E+02 -0.10454190955E+04  0.10485589112E+04  0.41800000000E+01 0. -1.
        -11    1    1    2    0    0 -0.50332161280E+02  0.45968554251E+02 -0.37549883217E+03  0.38163569985E+03  0.00000000000E+00 0. -1.
         11    1    1    2    0    0  0.32393652140E+02 -0.45572615100E+01 -0.12692310711E+03  0.13107094434E+03  0.00000000000E+00 0.  1.
</event>
<event>
 7    1  0.2899775E-009  0.9696569E+02  0.7561462E-02  0.1286809E+00
          2   -1    0    0  501    0  0.00000000000E+00  0.00000000000E+00  0.73932150526E+02  0.73932150526E+02  0.00000000000E+00 0. -1.
         -2   -1    0    0    0  501 -0.00000000000E+00 -0.00000000000E+00 -0.17550603335E+03  0.17550603335E+03  0.00000000000E+00 0.  1.
         25    2    1    2    0    0  0.12272875500E+02  0.27688190004E+02 -0.36442250454E+02  0.13374938449E+03  0.12507438145E+03 0.  0.
          5    1    3    3  502    0  0.27165312990E+02 -0.42889759355E+02 -0.34398960191E+02  0.61467443005E+02  0.41800000000E+01 0.  1.
         -5    1    3    3    0  502 -0.14892437490E+02  0.70577949359E+02 -0.20432902634E+01  0.72281941488E+02  0.41800000000E+01 0.  1.
        -11    1    1    2    0    0 -0.37887935349E+02 -0.87589832247E+01  0.44724456835E+01  0.39143558889E+02  0.00000000000E+00 0. -1.
         11    1    1    2    0    0  0.25615059849E+02 -0.18929206779E+02 -0.69604078050E+02  0.76545240490E+02  0.00000000000E+00 0.  1.
</event>
<event>
 7    1  0.2899775E-009  0.9816230E+02  0.7561462E-02  0.1284209E+00
          1   -1    0    0  501    0  0.00000000000E+00  0.00000000000E+00  0.54438808839E+03  0.54438808839E+03  0.00000000000E+00 0. -1.
         -1   -1    0    0    0  501 -0.00000000000E+00 -0.00000000000E+00 -0.24749197757E+02  0.24749197757E+02  0.00000000000E+00 0.  1.
         25    2    1    2    0    0 -0.25304260548E+02  0.19035637815E+02  0.36648267130E+03  0.38853565812E+03  0.12509095954E+03 0.  0.
          5    1    3    3  502    0  0.30670453317E+02 -0.28019165782E+02  0.57926275954E+02  0.71405015256E+02  0.41800000000E+01 0.  1.
         -5    1    3    3    0  502 -0.55974713866E+02  0.47054803597E+02  0.30855639534E+03  0.31713064286E+03  0.41800000000E+01 0.  1.
        -11    1    1    2    0    0  0.37781666358E+02  0.18287156217E+02  0.30772375028E+02  0.52046262691E+02  0.00000000000E+00 0.  1.
         11    1    1    2    0    0 -0.12477405809E+02 -0.37322794032E+02  0.12238384431E+03  0.12855536534E+03  0.00000000000E+00 0. -1.
</event>
<event>
 7    1  0.2899775E-009  0.1355425E+03  0.7561462E-02  0.1219456E+00
          2   -1    0    0  501    0  0.00000000000E+00  0.00000000000E+00  0.27004283306E+03  0.27004283306E+03  0.00000000000E+00 0. -1.
         -2   -1    0    0    0  501 -0.00000000000E+00 -0.00000000000E+00 -0.82269343467E+02  0.82269343467E+02  0.00000000000E+00 0.  1.
         25    2    1    2    0    0 -0.54308090652E+02 -0.75008811331E+02  0.56682868725E+02  0.16563871488E+03  0.12509015059E+03 0.  0.
          5    1    3    3  502    0  0.29822677341E+02  0.84923633880E+01 -0.54215172876E+01  0.31754961335E+02  0.41800000000E+01 0.  1.
         -5    1    3    3    0  502 -0.84130767993E+02 -0.83501174719E+02  0.62104386013E+02  0.13388375355E+03  0.41800000000E+01 0.  1.
        -11    1    1    2    0    0  0.58514882696E+02  0.14172786751E+02  0.26886735301E+02  0.65937515243E+02  0.00000000000E+00 0.  1.
         11    1    1    2    0    0 -0.42067920441E+01  0.60836024579E+02  0.10420388557E+03  0.12073594640E+03  0.00000000000E+00 0. -1.
</event>
<event>
 7    1  0.2899775E-009  0.1051565E+03  0.7561462E-02  0.1269812E+00
         -1   -1    0    0    0  501 -0.00000000000E+00  0.00000000000E+00  0.80035814018E+02  0.80035814018E+02  0.00000000000E+00 0.  1.
          1   -1    0    0  501    0  0.00000000000E+00 -0.00000000000E+00 -0.16812796485E+03  0.16812796485E+03  0.00000000000E+00 0. -1.
         25    2    1    2    0    0 -0.18892390976E+02  0.15967768457E+02 -0.65554392513E+02  0.14337618195E+03  0.12508980417E+03 0.  0.
          5    1    3    3  502    0 -0.48410532264E+02 -0.36098107017E+02 -0.56305069647E+02  0.82670346753E+02  0.41800000000E+01 0. -1.
         -5    1    3    3    0  502  0.29518141288E+02  0.52065875475E+02 -0.92493228658E+01  0.60705835202E+02  0.41800000000E+01 0. -1.
        -11    1    1    2    0    0  0.45020619708E+02  0.16641766450E+02 -0.36963747887E+02  0.60581542134E+02  0.00000000000E+00 0. -1.
         11    1    1    2    0    0 -0.26128228732E+02 -0.32609534908E+02  0.14425989573E+02  0.44206054774E+02  0.00000000000E+00 0.  1.
</event>
<event>
 7    1  0.2899775E-009  0.3528504E+03  0.7561462E-02  0.1061451E+00
         -1   -1    0    0    0  501 -0.00000000000E+00  0.00000000000E+00  0.47818448615E+02  0.47818448615E+02  0.00000000000E+00 0. -1.
          1   -1    0    0  501    0  0.00000000000E+00 -0.00000000000E+00 -0.27245998686E+04  0.27245998686E+04  0.00000000000E+00 0.  1.
         25    2    1    2    0    0 -0.20670322057E+03  0.26797436001E+03 -0.11184517386E+04  0.11752099917E+04  0.12509098280E+03 0.  0.
          5    1    3    3  502    0  0.17569735618E+01 -0.84213469631E+01 -0.79872173827E+02  0.80442790806E+02  0.41800000000E+01 0.  1.
         -5    1    3    3    0  502 -0.20846019413E+03  0.27639570697E+03 -0.10385795648E+04  0.10947672009E+04  0.41800000000E+01 0.  1.
        -11    1    1    2    0    0  0.73806752520E+02 -0.34957593805E+02 -0.33455971507E+03  0.34438303243E+03  0.00000000000E+00 0. -1.
         11    1    1    2    0    0  0.13289646805E+03 -0.23301676620E+03 -0.12237699663E+04  0.12528252931E+04  0.00000000000E+00 0.  1.
</event>
<event>
 7    1  0.2899775E-009  0.1541417E+03  0.7561462E-02  0.1195474E+00
          2   -1    0    0  501    0  0.00000000000E+00  0.00000000000E+00  0.52461146370E+02  0.52461146370E+02  0.00000000000E+00 0.  1.
         -2   -1    0    0    0  501 -0.00000000000E+00 -0.00000000000E+00 -0.53235487368E+03  0.53235487368E+03  0.00000000000E+00 0. -1.
         25    2    1    2    0    0  0.97247692862E+02 -0.64086771547E+02 -0.16931853782E+03  0.24058396995E+03  0.12509057235E+03 0.  0.
          5    1    3    3  502    0  0.13845968097E+02 -0.83728758982E+02 -0.89470630723E+02  0.12338833849E+03  0.41800000000E+01 0. -1.
         -5    1    3    3    0  502  0.83401724766E+02  0.19641987436E+02 -0.79847907101E+02  0.11719563146E+03  0.41800000000E+01 0. -1.
        -11    1    1    2    0    0 -0.33998771098E+02  0.66009931224E+02 -0.23054961442E+03  0.24221137910E+03  0.00000000000E+00 0. -1.
         11    1    1    2    0    0 -0.63248921764E+02 -0.19231596770E+01 -0.80025575069E+02  0.10202067101E+03  0.00000000000E+00 0.  1.
</event>
<event>
 7    1  0.2899775E-009  0.1236229E+03  0.7561462E-02  0.1237237E+00
          2   -1    0    0  501    0  0.00000000000E+00  0.00000000000E+00  0.10092772551E+04  0.10092772551E+04  0.00000000000E+00 0. -1.
         -2   -1    0    0    0  501 -0.00000000000E+00 -0.00000000000E+00 -0.16697746214E+02  0.16697746214E+02  0.00000000000E+00 0.  1.
         25    2    1    2    0    0 -0.18024864216E+02  0.66828911600E+02  0.56101997033E+03  0.57894903340E+03  0.12509027545E+03 0.  0.
          5    1    3    3  502    0 -0.70188657156E+02  0.45093584764E+02  0.27652797357E+03  0.28886860603E+03  0.41800000000E+01 0.  1.
         -5    1    3    3    0  502  0.52163792940E+02  0.21735326836E+02  0.28449199676E+03  0.29008042738E+03  0.41800000000E+01 0.  1.
        -11    1    1    2    0    0  0.37623729542E+02 -0.22722277786E+00  0.76607532251E+02  0.85348173105E+02  0.00000000000E+00 0.  1.
         11    1    1    2    0    0 -0.19598865326E+02 -0.66601688823E+02  0.35495200633E+03  0.36167779483E+03  0.00000000000E+00 0. -1.
</event>
<event>
 7    1  0.2899775E-009  0.8856156E+02  0.7561462E-02  0.1306373E+00
         -2   -1    0    0    0  501 -0.00000000000E+00  0.00000000000E+00  0.31328291422E+03  0.31328291422E+03  0.00000000000E+00 0.  1.
          2   -1    0    0  501    0  0.00000000000E+00 -0.00000000000E+00 -0.59442789640E+02  0.59442789640E+02  0.00000000000E+00 0. -1.
         25    2    1    2    0    0 -0.46342166740E+02 -0.24123844251E+01  0.45000782638E+02  0.14080723140E+03  0.12509272545E+03 0.  0.
          5    1    3    3  502    0 -0.55078007175E+02  0.30328137584E+02 -0.21063409665E+02  0.66441872569E+02  0.41800000000E+01 0.  1.
         -5    1    3    3    0  502  0.87358404356E+01 -0.32740522009E+02  0.66064192303E+02  0.74365358832E+02  0.41800000000E+01 0.  1.
        -11    1    1    2    0    0  0.23513869460E+02  0.33787619510E+02  0.17700687239E+03  0.18173039966E+03  0.00000000000E+00 0.  1.
         11    1    1    2    0    0  0.22828297280E+02 -0.31375235085E+02  0.31832469560E+02  0.50188072802E+02  0.00000000000E+00 0. -1.
</event>
<event>
 7    1  0.2899775E-009  0.8572679E+02  0.7561462E-02  0.1313543E+00
          2   -1    0    0  501    0  0.00000000000E+00  0.00000000000E+00  0.17051449077E+03  0.17051449077E+03  0.00000000000E+00 0. -1.
         -2   -1    0    0    0  501 -0.00000000000E+00 -0.00000000000E+00 -0.97946071242E+02  0.97946071242E+02  0.00000000000E+00 0.  1.
         25    2    1    2    0    0 -0.51476700626E+02 -0.12561540358E+02 -0.74480682446E+01  0.13605348652E+03  0.12508970570E+03 0.  0.
          5    1    3    3  502    0 -0.53698657178E+02 -0.36817342738E+02  0.44194934037E+02  0.78801821702E+02  0.41800000000E+01 0.  1.
         -5    1    3    3    0  502  0.22219565521E+01  0.24255802380E+02 -0.51643002282E+02  0.57251664820E+02  0.41800000000E+01 0.  1.
        -11    1    1    2    0    0  0.55485069540E+02 -0.11869412340E+02  0.93198028750E+01  0.57500735793E+02  0.00000000000E+00 0.  1.
         11    1    1    2    0    0 -0.40083689141E+01  0.24430952698E+02  0.70696684902E+02  0.74906339699E+02  0.00000000000E+00 0. -1.
</event>
<event>
 7    1  0.2899775E-009  0.1105372E+03  0.7561462E-02  0.1259578E+00
         -1   -1    0    0    0  501 -0.00000000000E+00  0.00000000000E+00  0.26453006705E+02  0.26453006705E+02  0.00000000000E+00 0.  1.
          1   -1    0    0  501    0  0.00000000000E+00 -0.00000000000E+00 -0.77066826454E+03  0.77066826454E+03  0.00000000000E+00 0. -1.
         25    2    1    2    0    0 -0.42822730583E+02 -0.64457029456E+02 -0.55814508691E+03  0.57720167012E+03  0.12508930825E+03 0.  0.
          5    1    3    3  502    0  0.12189152452E+02 -0.57671654121E+02 -0.46493541696E+03  0.46867580423E+03  0.41800000000E+01 0. -1.
         -5    1    3    3    0  502 -0.55011883035E+02 -0.67853753355E+01 -0.93209669948E+02  0.10852586588E+03  0.41800000000E+01 0. -1.
        -11    1    1    2    0    0  0.35379751225E+02  0.80925950934E+02 -0.10667241810E+03  0.13849094236E+03  0.00000000000E+00 0.  1.
         11    1    1    2    0    0  0.74429793575E+01 -0.16468921478E+02 -0.79397752827E+02  0.81428658777E+02  0.00000000000E+00 0. -1.
</event>
<event>
 7    1  0.2899775E-009  0.4717617E+03  0.7561462E-02  0.1021424E+00
         -2   -1    0    0    0  501 -0.00000000000E+00  0.00000000000E+00  0.91599702252E+03  0.91599702252E+03  0.00000000000E+00 0. -1.
          2   -1    0    0  501    0  0.00000000000E+00 -0.00000000000E+00 -0.26328300861E+03  0.26328300861E+03  0.00000000000E+00 0.  1.
         25    2    1    2    0    0 -0.18907093765E+03  0.42593077337E+03  0.45683478836E+03  0.66446227494E+03  0.12508895952E+03 0.  0.
          5    1    3    3  502    0 -0.13476217839E+03  0.35294522656E+03  0.29730901805E+03  0.48077156976E+03  0.41800000000E+01 0.  1.
         -5    1    3    3    0  502 -0.54308759257E+02  0.72985546806E+02  0.15952577032E+03  0.18369070518E+03  0.41800000000E+01 0.  1.
        -11    1    1    2    0    0  0.16127299993E+03 -0.25686417048E+03  0.14439006503E+03  0.33591170486E+03  0.00000000000E+00 0.  1.
         11    1    1    2    0    0  0.27797937710E+02 -0.16906660289E+03  0.51489160511E+02  0.17890605133E+03  0.00000000000E+00 0. -1.
</event>
<event>
 6    1  0.2899775E-009  0.1268525E+03  0.7561462E-02  0.1232202E+00
         -2   -1    0    0    0  501 -0.00000000000E+00  0.00000000000E+00  0.68022916217E+02  0.68022916217E+02  0.00000000000E+00 0.  1.
          2   -1    0    0  501    0  0.00000000000E+00 -0.00000000000E+00 -0.26249027221E+03  0.26249027221E+03  0.00000000000E+00 0. -1.
          5    1    1    2  502    0 -0.61385772464E+02 -0.23709460010E+02 -0.82988466984E+02  0.10599485651E+03  0.41800000000E+01 0. -1.
         -5    1    1    2    0  502  0.60505451217E+02 -0.46800612243E+02 -0.67701216648E+02  0.10223567904E+03  0.41800000000E+01 0. -1.
        -11    1    1    2    0    0 -0.34550242584E+02  0.67216575311E+02 -0.16273023196E+02  0.77308463593E+02  0.00000000000E+00 0.  1.
         11    1    1    2    0    0  0.35430563832E+02  0.32934969426E+01 -0.27504649160E+02  0.44974189275E+02  0.00000000000E+00 0. -1.
</event>
<event>
 6    1  0.2899775E-009  0.1255903E+03  0.7561462E-02  0.1234150E+00
         -1   -1    0    0    0  501 -0.00000000000E+00  0.00000000000E+00  0.46002076991E+02  0.46002076991E+02  0.00000000000E+00 0.  1.
          1   -1    0    0  501    0  0.00000000000E+00 -0.00000000000E+00 -0.66357185644E+03  0.66357185644E+03  0.00000000000E+00 0. -1.
          5    1    1    2  502    0  0.20594586119E+02  0.87015426847E+01  0.11205208197E+02  0.25355135835E+02  0.41800000000E+01 0.  1.
         -5    1    1    2    0  502 -0.91612872749E+02 -0.57179601403E+02 -0.12444639751E+03  0.16482355269E+03  0.41800000000E+01 0.  1.
        -11    1    1    2    0    0  0.66744840421E+02 -0.47961064963E+01 -0.21504157626E+03  0.22521269032E+03  0.00000000000E+00 0.  1.
         11    1    1    2    0    0  0.42734462088E+01  0.53274165215E+02 -0.28928701388E+03  0.29418255458E+03  0.00000000000E+00 0. -1.
</event>
<event>
 7    1  0.2899775E-009  0.9988561E+02  0.7561462E-02  0.1280537E+00
         -1   -1    0    0    0  501 -0.00000000000E+00  0.00000000000E+00  0.31896724828E+02  0.31896724828E+02  0.00000000000E+00 0.  1.
          1   -1    0    0  501    0  0.00000000000E+00 -0.00000000000E+00 -0.43894477209E+03  0.43894477209E+03  0.00000000000E+00 0. -1.
         25    2    1    2    0    0 -0.97972398320E+01 -0.40657290114E+02 -0.17842072284E+03  0.22187782743E+03  0.12508722885E+03 0.  0.
          5    1    3    3  502    0 -0.10596166114E+02  0.43966473503E+02 -0.80137632202E+02  0.92113202221E+02  0.41800000000E+01 0.  1.
         -5    1    3    3    0  502  0.79892628209E+00 -0.84623763617E+02 -0.98283090634E+02  0.12976462521E+03  0.41800000000E+01 0.  1.
        -11    1    1    2    0    0 -0.12324801763E+02  0.45361272500E+02 -0.21966162193E+03  0.22463475673E+03  0.00000000000E+00 0. -1.
         11    1    1    2    0    0  0.22122041595E+02 -0.47039823853E+01 -0.89657024949E+01  0.24328912755E+02  0.00000000000E+00 0.  1.
</event>
<event>
 7    1  0.2899775E-009  0.1074318E+03  0.7561462E-02  0.1265401E+00
         -2   -1    0    0    0  501 -0.00000000000E+00  0.00000000000E+00  0.13762445108E+03  0.13762445108E+03  0.00000000000E+00 0.  1.
          2   -1    0    0  501    0  0.00000000000E+00 -0.00000000000E+00 -0.91772639854E+02  0.91772639854E+02  0.00000000000E+00 0. -1.
         25    2    1    2    0    0 -0.20708541628E+02  0.20325091460E+02  0.16293069306E+02  0.12944007233E+03  0.12508922886E+03 0.  0.
          5    1    3    3  502    0  0.50134690051E+02  0.96574521870E+01 -0.11465862100E+02  0.52494684712E+02  0.41800000000E+01 0. -1.
         -5    1    3    3    0  502 -0.70843231679E+02  0.10667639273E+02  0.27758931406E+02  0.76945387615E+02  0.41800000000E+01 0. -1.
        -11    1    1    2    0    0 -0.19562625964E+02 -0.41859705384E+02  0.28478966568E+02  0.54276908592E+02  0.00000000000E+00 0.  1.
         11    1    1    2    0    0  0.40271167592E+02  0.21534613924E+02  0.10797753502E+01  0.45680110014E+02  0.00000000000E+00 0. -1.
</event>
<event>
 7    1  0.2899775E-009  0.1070435E+03  0.7561462E-02  0.1266145E+00
         -1   -1    0    0    0  501 -0.00000000000E+00  0.00000000000E+00  0.35815644742E+02  0.35815644742E+02  0.00000000000E+00 0.  1.
          1   -1    0    0  501    0  0.00000000000E+00 -0.00000000000E+00 -0.44756834801E+03  0.44756834801E+03  0.00000000000E+00 0. -1.
         25    2    1    2    0    0 -0.16721026301E+01 -0.16564625524E+00 -0.35525636006E+03  0.37663967696E+03  0.12509013361E+03 0.  0.
          5    1    3    3  502    0  0.39133689544E+02 -0.47686932720E+02 -0.15955344697E+03  0.17111476865E+03  0.41800000000E+01 0. -1.
         -5    1    3    3    0  502 -0.40805792174E+02  0.47521286465E+02 -0.19570291309E+03  0.20552490831E+03  0.41800000000E+01 0. -1.
        -11    1    1    2    0    0 -0.43649572500E+02 -0.46841447488E+01 -0.35973650824E+02  0.56756761228E+02  0.00000000000E+00 0.  1.
         11    1    1    2    0    0  0.45321675130E+02  0.48497910040E+01 -0.20522692388E+02  0.49987554573E+02  0.00000000000E+00 0. -1.
</event>
<event>
 7    1  0.2959569E-009  0.1668809E+03  0.7561462E-02  0.1181140E+00
          2   -1    0    0  501    0  0.00000000000E+00  0.00000000000E+00  0.28808543304E+03  0.28808543304E+03  0.00000000000E+00 0. -1.
         -2   -1    0    0    0  501 -0.00000000000E+00 -0.00000000000E+00 -0.11289281571E+03  0.11289281571E+03  0.00000000000E+00 0.  1.
         25    2    1    2    0    0 -0.29597275489E+02  0.12672541690E+03  0.25154611433E+02  0.18225181631E+03  0.12509052748E+03 0.  0.
          5    1    3    3  502    0  0.40397902898E+02  0.14708593432E+02 -0.12265246581E+02  0.44902582921E+02  0.41800000000E+01 0. -1.
         -5    1    3    3    0  502 -0.69995178387E+02  0.11201682347E+03  0.37419858014E+02  0.13734923339E+03  0.41800000000E+01 0. -1.
        -11    1    1    2    0    0  0.58709194918E+02 -0.52789648404E+02  0.85316053833E+02  0.11624261520E+03  0.00000000000E+00 0.  1.
         11    1    1    2    0    0 -0.29111919429E+02 -0.73935768501E+02  0.64721952066E+02  0.10248381724E+03  0.00000000000E+00 0. -1.
</event>
<event>
 7    1  0.2899775E-009  0.1017431E+03  0.7561462E-02  0.1276673E+00
          3   -1    0    0  501    0  0.00000000000E+00  0.00000000000E+00  0.80938913121E+02  0.80938913121E+02  0.00000000000E+00 0.  1.
         -3   -1    0    0    0  501 -0.00000000000E+00 -0.00000000000E+00 -0.28417601882E+03  0.28417601882E+03  0.00000000000E+00 0. -1.
         25    2    1    2    0    0  0.89163403318E+02  0.35114801216E+02 -0.54039806463E+02  0.16658824880E+03  0.12509269443E+03 0.  0.
          5    1    3    3  502    0  0.24976236939E+02  0.17437559664E+02 -0.86933968128E+02  0.92210997789E+02  0.41800000000E+01 0.  1.
         -5    1    3    3    0  502  0.64187166379E+02  0.17677241552E+02  0.32894161665E+02  0.74377251013E+02  0.41800000000E+01 0.  1.
        -11    1    1    2    0    0 -0.36368218384E+02 -0.38710086667E+02 -0.13295640281E+03  0.14317305321E+03  0.00000000000E+00 0. -1.
         11    1    1    2    0    0 -0.52795184934E+02  0.35952854507E+01 -0.16240896431E+02  0.55353629931E+02  0.00000000000E+00 0.  1.
</event>
<event>
 7    1  0.2899775E-009  0.1615448E+03  0.7561462E-02  0.1186964E+00
         -1   -1    0    0    0  501 -0.00000000000E+00  0.00000000000E+00  0.23956509829E+03  0.23956509829E+03  0.00000000000E+00 0.  1.
          1   -1    0    0  501    0  0.00000000000E+00 -0.00000000000E+00 -0.14303604028E+03  0.14303604028E+03  0.00000000000E+00 0. -1.
         25    2    1    2    0    0  0.73537893163E+02 -0.12922911098E+03  0.69911878249E+02  0.20651741816E+03  0.12511510071E+03 0.  0.
          5    1    3    3  502    0  0.57251983214E+02 -0.12471672395E+03  0.29454384045E+01  0.13732515728E+03  0.41800000000E+01 0. -1.
         -5    1    3    3    0  502  0.16285909949E+02 -0.45123870279E+01  0.66966439844E+02  0.69192260875E+02  0.41800000000E+01 0. -1.
        -11    1    1    2    0    0 -0.16943031179E+02  0.10577743269E+03 -0.48056139459E+01  0.10723350921E+03  0.00000000000E+00 0. -1.
         11    1    1    2    0    0 -0.56594861984E+02  0.23451678294E+02  0.31422793714E+02  0.68850211202E+02  0.00000000000E+00 0.  1.
</event>
<event>
 7    1  0.2899775E-009  0.5362181E+02  0.7561462E-02  0.1426731E+00
          1   -1    0    0  501    0  0.00000000000E+00  0.00000000000E+00  0.11530656732E+03  0.11530656732E+03  0.00000000000E+00 0. -1.
         -1   -1    0    0    0  501 -0.00000000000E+00 -0.00000000000E+00 -0.14862960185E+03  0.14862960185E+03  0.00000000000E+00 0.  1.
         25    2    1    2    0    0  0.47821748695E-02 -0.31619610230E+02  0.49626747642E+02  0.13823964256E+03  0.12509030706E+03 0.  0.
          5    1    3    3  502    0 -0.19820304899E+02 -0.46994242252E+01 -0.38574419954E+02  0.43822224374E+02  0.41800000000E+01 0. -1.
         -5    1    3    3    0  502  0.19825087073E+02 -0.26920186004E+02  0.88201167596E+02  0.94417418188E+02  0.41800000000E+01 0. -1.
        -11    1    1    2    0    0  0.23075951581E+01  0.42029577228E+02 -0.98341719122E+02  0.10697151059E+03  0.00000000000E+00 0.  1.
         11    1    1    2    0    0 -0.23123773329E+01 -0.10409966999E+02  0.15391936946E+02  0.18725016016E+02  0.00000000000E+00 0. -1.
</event>
<event>
 7    1  0.2899775E-009  0.8163918E+02  0.7561462E-02  0.1324463E+00
         -1   -1    0    0    0  501 -0.00000000000E+00  0.00000000000E+00  0.22597659495E+02  0.22597659495E+02  0.00000000000E+00 0.  1.
          1   -1    0    0  501    0  0.00000000000E+00 -0.00000000000E+00 -0.58412656410E+03  0.58412656410E+03  0.00000000000E+00 0. -1.
         25    2    1    2    0    0  0.29335593996E+02 -0.16216689336E+01 -0.39010251669E+03  0.41071805237E+03  0.12508452396E+03 0.  0.
          5    1    3    3  502    0  0.14614892500E+02  0.31788066621E+02 -0.23670646683E+02  0.42448182254E+02  0.41800000000E+01 0.  1.
         -5    1    3    3    0  502  0.14720701496E+02 -0.33409735555E+02 -0.36643187000E+03  0.36826987012E+03  0.41800000000E+01 0.  1.
        -11    1    1    2    0    0 -0.51640161231E+02 -0.24322360768E+02 -0.13194469189E+03  0.14376260016E+03  0.00000000000E+00 0. -1.
         11    1    1    2    0    0  0.22304567235E+02  0.25944029702E+02 -0.39481696024E+02  0.52243571065E+02  0.00000000000E+00 0.  1.
</event>
<event>
 7    1  0.2899775E-009  0.1200821E+03  0.7561462E-02  0.1242962E+00
          1   -1    0    0  501    0  0.00000000000E+00  0.00000000000E+00  0.97362857107E+03  0.97362857107E+03  0.00000000000E+00 0. -1.
         -1   -1    0    0    0  501 -0.00000000000E+00 -0.00000000000E+00 -0.15639156035E+02  0.15639156035E+02  0.00000000000E+00 0.  1.
         25    2    1    2    0    0  0.28012833636E+02  0.50843966472E+02  0.50698718269E+03  0.52540875984E+03  0.12509409949E+03 0.  0.
          5    1    3    3  502    0  0.47704864172E+02 -0.28027980245E+02  0.23753311061E+03  0.24392780239E+03  0.41800000000E+01 0.  1.
         -5    1    3    3    0  502 -0.19692030536E+02  0.78871946716E+02  0.26945407208E+03  0.28148095745E+03  0.41800000000E+01 0.  1.
        -11    1    1    2    0    0 -0.67585589303E+01  0.24280510910E+02  0.59002989055E+02  0.64160533401E+02  0.00000000000E+00 0.  1.
         11    1    1    2    0    0 -0.21254274705E+02 -0.75124477381E+02  0.39199924329E+03  0.39969843387E+03  0.00000000000E+00 0. -1.
</event>
<event>
 7    1  0.3753871E-009  0.9478306E+02  0.7561462E-02  0.1291665E+00
         -1   -1    0    0    0  501 -0.00000000000E+00  0.00000000000E+00  0.24349199647E+03  0.24349199647E+03  0.00000000000E+00 0.  1.
          1   -1    0    0  501    0  0.00000000000E+00 -0.00000000000E+00 -0.61472058726E+02  0.61472058726E+02  0.00000000000E+00 0. -1.
         25    2    1    2    0    0 -0.50443363106E+02  0.19548443591E+02  0.12562180535E+03  0.18534889133E+03  0.12508676592E+03 0.  0.
          5    1    3    3  502    0 -0.86928908619E+02  0.90873239740E+01  0.50373104820E+02  0.10096601755E+03  0.41800000000E+01 0. -1.
         -5    1    3    3    0  502  0.36485545513E+02  0.10461119618E+02  0.75248700530E+02  0.84382873775E+02  0.41800000000E+01 0. -1.
        -11    1    1    2    0    0  0.27714633261E+02  0.73406533391E+01  0.74643515809E+02  0.79960243500E+02  0.00000000000E+00 0.  1.
         11    1    1    2    0    0  0.22728729845E+02 -0.26889096931E+02 -0.18245383412E+02  0.39654920375E+02  0.00000000000E+00 0. -1.
</event>
<event>
 7    1  0.2899775E-009  0.1243128E+03  0.7561462E-02  0.1236147E+00
         -2   -1    0    0    0  501 -0.00000000000E+00  0.00000000000E+00  0.70938295427E+02  0.70938295427E+02  0.00000000000E+00 0.  1.
          2   -1    0    0  501    0  0.00000000000E+00 -0.00000000000E+00 -0.36099824314E+03  0.36099824314E+03  0.00000000000E+00 0. -1.
         25    2    1    2    0    0  0.99515878356E+02  0.53434805825E+01 -0.23504792010E+03  0.28429958906E+03  0.12508704476E+03 0.  0.
          5    1    3    3  502    0 -0.21165620684E+02  0.16964153376E+02 -0.11099253669E+02  0.29604591379E+02  0.41800000000E+01 0. -1.
         -5    1    3    3    0  502  0.12068149904E+03 -0.11620672794E+02 -0.22394866643E+03  0.25469499768E+03  0.41800000000E+01 0. -1.
        -11    1    1    2    0    0 -0.47889808253E+02 -0.58060526217E+01 -0.77529110709E+02  0.91312140425E+02  0.00000000000E+00 0. -1.
         11    1    1    2    0    0 -0.51626070102E+02  0.46257203921E+00  0.22517083096E+02  0.56324809083E+02  0.00000000000E+00 0.  1.
</event>
<event>
 7    1  0.2899775E-009  0.1057535E+03  0.7561462E-02  0.1268642E+00
          1   -1    0    0  501    0  0.00000000000E+00  0.00000000000E+00  0.74827366401E+03  0.74827366401E+03  0.00000000000E+00 0. -1.
         -1   -1    0    0    0  501 -0.00000000000E+00 -0.00000000000E+00 -0.35394366249E+02  0.35394366249E+02  0.00000000000E+00 0.  1.
         25    2    1    2    0    0 -0.31467828830E+02  0.68776801398E+02  0.60832562188E+03  0.62564213592E+03  0.12509015689E+03 0.  0.
          5    1    3    3  502    0 -0.35983718102E+02 -0.46956696261E+01  0.44439999357E+03  0.44589875978E+03  0.41800000000E+01 0.  1.
         -5    1    3    3    0  502  0.45158892713E+01  0.73472471024E+02  0.16392562830E+03  0.17974337615E+03  0.41800000000E+01 0.  1.
        -11    1    1    2    0    0 -0.17088270243E+02 -0.43007812293E+02  0.89937477441E+02  0.10114559183E+03  0.00000000000E+00 0.  1.
         11    1    1    2    0    0  0.48556099073E+02 -0.25768989105E+02  0.14616198450E+02  0.56880302512E+02  0.00000000000E+00 0. -1.
</event>
<event>
 7    1  0.2899775E-009  0.1680999E+03  0.7561462E-02  0.1179844E+00
          4   -1    0    0  501    0  0.00000000000E+00  0.00000000000E+00  0.25564905478E+03  0.25564905478E+03  0.00000000000E+00 0. -1.
         -4   -1    0    0    0  501 -0.00000000000E+00 -0.00000000000E+00 -0.11810675651E+03  0.11810675651E+03  0.00000000000E+00 0.  1.
         25    2    1    2    0    0  0.10757220883E+02  0.12656179083E+03  0.25620593939E+02  0.18010418498E+03  0.12508995928E+03 0.  0.
          5    1    3    3  502    0 -0.55348697135E+02  0.79558547533E+02  0.11946001542E+02  0.97740575571E+02  0.41800000000E+01 0. -1.
         -5    1    3    3    0  502  0.66105918018E+02  0.47003243301E+02  0.13674592398E+02  0.82363609410E+02  0.41800000000E+01 0. -1.
        -11    1    1    2    0    0  0.39990659304E+02 -0.78388529303E+02  0.65027912741E+02  0.10941957683E+03  0.00000000000E+00 0.  1.
         11    1    1    2    0    0 -0.50747880187E+02 -0.48173261531E+02  0.46893791591E+02  0.84232049481E+02  0.00000000000E+00 0. -1.
</event>
<event>
 7    1  0.2899775E-009  0.1056669E+03  0.7561462E-02  0.1268811E+00
         -1   -1    0    0    0  501 -0.00000000000E+00  0.00000000000E+00  0.15833235747E+03  0.15833235747E+03  0.00000000000E+00 0.  1.
          1   -1    0    0  501    0  0.00000000000E+00 -0.00000000000E+00 -0.89714487130E+02  0.89714487130E+02  0.00000000000E+00 0. -1.
         25    2    1    2    0    0  0.19680209892E+02 -0.28627107586E+02  0.77245785183E+02  0.15106118349E+03  0.12508296398E+03 0.  0.
          5    1    3    3  502    0  0.68171846857E+02 -0.36738266817E+02  0.62379068448E+02  0.99527491343E+02  0.41800000000E+01 0. -1.
         -5    1    3    3    0  502 -0.48491636965E+02  0.81111592308E+01  0.14866716735E+02  0.51533692145E+02  0.41800000000E+01 0. -1.
        -11    1    1    2    0    0  0.17430798064E+02 -0.17858567363E+02  0.19034332900E+02  0.31385776689E+02  0.00000000000E+00 0.  1.
         11    1    1    2    0    0 -0.37111007957E+02  0.46485674949E+02 -0.27662247739E+02  0.65599884428E+02  0.00000000000E+00 0. -1.
</event>
<event>
 7    1  0.2899775E-009  0.1057116E+03  0.7561462E-02  0.1268724E+00
          2   -1    0    0  501    0  0.00000000000E+00  0.00000000000E+00  0.61159654487E+03  0.61159654487E+03  0.00000000000E+00 0. -1.
         -2   -1    0    0    0  501 -0.00000000000E+00 -0.00000000000E+00 -0.19282402031E+02  0.19282402031E+02  0.00000000000E+00 0.  1.
         25    2    1    2    0    0 -0.83013831387E+01 -0.77435122310E+01  0.30924575285E+03  0.33378209695E+03  0.12509467471E+03 0.  0.
          5    1    3    3  502    0  0.58377019317E+02 -0.26245687838E+01  0.14710322297E+03  0.15834012553E+03  0.41800000000E+01 0. -1.
         -5    1    3    3    0  502 -0.66678402456E+02 -0.51189434472E+01  0.16214252988E+03  0.17544197141E+03  0.41800000000E+01 0. -1.
        -11    1    1    2    0    0  0.44367158628E+02  0.18688942925E+02  0.11170687218E+03  0.12163941238E+03  0.00000000000E+00 0.  1.
         11    1    1    2    0    0 -0.36065775490E+02 -0.10945430694E+02  0.17136151781E+03  0.17545743758E+03  0.00000000000E+00 0. -1.
</event>
<event>
 7    1  0.2899775E-009  0.1027596E+03  0.7561462E-02  0.1274598E+00
          1   -1    0    0  501    0  0.00000000000E+00  0.00000000000E+00  0.34361079111E+02  0.34361079111E+02  0.00000000000E+00 0. -1.
         -1   -1    0    0    0  501 -0.00000000000E+00 -0.00000000000E+00 -0.46990454102E+03  0.46990454102E+03  0.00000000000E+00 0.  1.
         25    2    1    2    0    0 -0.95123016765E+01  0.69076707864E+01 -0.10977952255E+03  0.16684351243E+03  0.12508802607E+03 0.  0.
          5    1    3    3  502    0  0.56465217565E+02  0.16065063285E+02 -0.49255534717E+02  0.76746251721E+02  0.41800000000E+01 0.  1.
         -5    1    3    3    0  502 -0.65977519242E+02 -0.91573924985E+01 -0.60523987837E+02  0.90097260704E+02  0.41800000000E+01 0.  1.
        -11    1    1    2    0    0  0.29708974631E+02  0.27203052414E+02 -0.23429422041E+03  0.23773180467E+03  0.00000000000E+00 0.  1.
         11    1    1    2    0    0 -0.20196672955E+02 -0.34110723200E+02 -0.91469718946E+02  0.99690303038E+02  0.00000000000E+00 0. -1.
</event>
<event>
 7    1  0.2899775E-009  0.1008976E+03  0.7561462E-02  0.1278420E+00
         -2   -1    0    0    0  501 -0.00000000000E+00  0.00000000000E+00  0.26912665496E+02  0.26912665496E+02  0.00000000000E+00 0.  1.
          2   -1    0    0  501    0  0.00000000000E+00 -0.00000000000E+00 -0.51458219534E+03  0.51458219534E+03  0.00000000000E+00 0. -1.
         25    2    1    2    0    0  0.31017381279E+02  0.19854526350E+02 -0.22688313426E+03  0.26168699801E+03  0.12509135924E+03 0.  0.
          5    1    3    3  502    0 -0.41617173921E+01 -0.49316714643E+02 -0.62282164025E+02  0.79661776220E+02  0.41800000000E+01 0. -1.
         -5    1    3    3    0  502  0.35179098671E+02  0.69171240993E+02 -0.16460097024E+03  0.18202522179E+03  0.41800000000E+01 0. -1.
        -11    1    1    2    0    0  0.12191539521E+02 -0.27911347948E+02 -0.23459453194E+02  0.38445063718E+02  0.00000000000E+00 0.  1.
         11    1    1    2    0    0 -0.43208920800E+02  0.80568215980E+01 -0.23732694239E+03  0.24136279911E+03  0.00000000000E+00 0. -1.
</event>
<event>
 7    1  0.2899775E-009  0.7404621E+02  0.7561462E-02  0.1346850E+00
          3   -1    0    0  501    0  0.00000000000E+00  0.00000000000E+00  0.45130808255E+02  0.45130808255E+02  0.00000000000E+00 0. -1.
         -3   -1    0    0    0  501 -0.00000000000E+00 -0.00000000000E+00 -0.32104597614E+03  0.32104597614E+03  0.00000000000E+00 0.  1.
         25    2    1    2    0    0  0.37159769690E+02  0.16291678725E+02 -0.20705851563E+03  0.24529651317E+03  0.12510348995E+03 0.  0.
          5    1    3    3  502    0 -0.18242453492E+02  0.60517086816E+01 -0.18272977990E+03  0.18378535075E+03  0.41800000000E+01 0. -1.
         -5    1    3    3    0  502  0.55402223181E+02  0.10239970044E+02 -0.24328735727E+02  0.61511162418E+02  0.41800000000E+01 0. -1.
        -11    1    1    2    0    0  0.16199803745E+02 -0.22385110868E+00 -0.62764690116E+02  0.64821987597E+02  0.00000000000E+00 0.  1.
         11    1    1    2    0    0 -0.53359573435E+02 -0.16067827617E+02 -0.60919621480E+01  0.56058283637E+02  0.00000000000E+00 0. -1.
</event>
<event>
 7    1  0.2899775E-009  0.2253418E+03  0.7561462E-02  0.1129962E+00
         -1   -1    0    0    0  501 -0.00000000000E+00  0.00000000000E+00  0.39278326062E+03  0.39278326062E+03  0.00000000000E+00 0.  1.
          1   -1    0    0  501    0  0.00000000000E+00 -0.00000000000E+00 -0.13484279231E+03  0.13484279231E+03  0.00000000000E+00 0. -1.
         25    2    1    2    0    0 -0.13248230917E+03  0.14771881080E+03  0.81616770254E+02  0.24835606792E+03  0.12508808889E+03 0.  0.
          5    1    3    3  502    0  0.22343047754E+02  0.38852907829E+02  0.11360310133E+02  0.46425093172E+02  0.41800000000E+01 0.  1.
         -5    1    3    3    0  502 -0.15482535692E+03  0.10886590297E+03  0.70256460121E+02  0.20193097475E+03  0.41800000000E+01 0.  1.
        -11    1    1    2    0    0  0.77200083616E+02 -0.14088745256E+03  0.12542678664E+03  0.20381610831E+03  0.00000000000E+00 0.  1.
         11    1    1    2    0    0  0.55282225555E+02 -0.68313582374E+01  0.50896911422E+02  0.75453876706E+02  0.00000000000E+00 0. -1.
</event>
<event>
 7    1  0.2899775E-009  0.5326858E+02  0.7561462E-02  0.1428469E+00
         -2   -1    0    0    0  501 -0.00000000000E+00  0.00000000000E+00  0.33726428697E+02  0.33726428697E+02  0.00000000000E+00 0.  1.
          2   -1    0    0  501    0  0.00000000000E+00 -0.00000000000E+00 -0.40987355559E+03  0.40987355559E+03  0.00000000000E+00 0. -1.
         25    2    1    2    0    0 -0.56143310542E+01  0.70255343041E+01 -0.30444216789E+03  0.32926220847E+03  0.12509072502E+03 0.  0.
          5    1    3    3  502    0  0.32474552881E+02 -0.42675772059E+01 -0.13634493194E+02  0.35723670090E+02  0.41800000000E+01 0.  1.
         -5    1    3    3    0  502 -0.38088883936E+02  0.11293111510E+02 -0.29080767470E+03  0.29353853838E+03  0.41800000000E+01 0.  1.
        -11    1    1    2    0    0 -0.47903321681E+01  0.11424997629E+02  0.18174947700E+02  0.21995603583E+02  0.00000000000E+00 0.  1.
         11    1    1    2    0    0  0.10404663222E+02 -0.18450531933E+02 -0.89879906701E+02  0.92342172240E+02  0.00000000000E+00 0. -1.
</event>
<event>
 7    1  0.2899775E-009  0.1582254E+03  0.7561462E-02  0.1190715E+00
          2   -1    0    0  501    0  0.00000000000E+00  0.00000000000E+00  0.19242028777E+03  0.19242028777E+03  0.00000000000E+00 0. -1.
         -2   -1    0    0    0  501 -0.00000000000E+00 -0.00000000000E+00 -0.17200670595E+03  0.17200670595E+03  0.00000000000E+00 0.  1.
         25    2    1    2    0    0 -0.14477847820E+03 -0.75416538865E+01 -0.10874319047E+02  0.19178317604E+03  0.12507938082E+03 0.  0.
          5    1    3    3  502    0 -0.76696051331E+02 -0.35675883983E+02 -0.59423435406E+02  0.10345854273E+03  0.41800000000E+01 0.  1.
         -5    1    3    3    0  502 -0.68082426867E+02  0.28134230096E+02  0.48549116359E+02  0.88324633316E+02  0.41800000000E+01 0.  1.
        -11    1    1    2    0    0  0.34020323282E+02  0.29537546920E+02  0.38820532670E+02  0.59471697731E+02  0.00000000000E+00 0. -1.
         11    1    1    2    0    0  0.11075815492E+03 -0.21995893033E+02 -0.75326317996E+01  0.11317211994E+03  0.00000000000E+00 0.  1.
</event>
<event>
 7    1  0.2899775E-009  0.1029965E+03  0.7561462E-02  0.1274118E+00
          2   -1    0    0  501    0  0.00000000000E+00  0.00000000000E+00  0.99359276224E+02  0.99359276224E+02  0.00000000000E+00 0. -1.
         -2   -1    0    0    0  501 -0.00000000000E+00 -0.00000000000E+00 -0.16354803040E+03  0.16354803040E+03  0.00000000000E+00 0.  1.
         25    2    1    2    0    0  0.20555108005E+02  0.48472866312E+02  0.68101453117E+01  0.13588907328E+03  0.12508929180E+03 0.  0.
          5    1    3    3  502    0  0.54084354051E+02  0.25515347955E+02  0.48806162635E+02  0.77302420696E+02  0.41800000000E+01 0. -1.
         -5    1    3    3    0  502 -0.33529246046E+02  0.22957518358E+02 -0.41996017323E+02  0.58586652580E+02  0.41800000000E+01 0. -1.
        -11    1    1    2    0    0  0.29315830659E+01  0.26484008004E+02 -0.15321393515E+02  0.30736654965E+02  0.00000000000E+00 0. -1.
         11    1    1    2    0    0 -0.23486691070E+02 -0.74956874316E+02 -0.55677505973E+02  0.96281578384E+02  0.00000000000E+00 0.  1.
</event>
<event>
 7    1  0.2899775E-009  0.8690536E+02  0.7561462E-02  0.1310524E+00
         -1   -1    0    0    0  501 -0.00000000000E+00  0.00000000000E+00  0.68192498027E+02  0.68192498027E+02  0.00000000000E+00 0.  1.
          1   -1    0    0  501    0  0.00000000000E+00 -0.00000000000E+00 -0.24683074296E+03  0.24683074296E+03  0.00000000000E+00 0. -1.
         25    2    1    2    0    0  0.38341489256E+01 -0.42647296102E+02 -0.30912529465E+02  0.13577999193E+03  0.12508848535E+03 0.  0.
          5    1    3    3  502    0 -0.27042832543E+02 -0.28843945034E+02 -0.72091418344E+02  0.82328202677E+02  0.41800000000E+01 0.  1.
         -5    1    3    3    0  502  0.30876981469E+02 -0.13803351068E+02  0.41178888879E+02  0.53451789256E+02  0.41800000000E+01 0.  1.
        -11    1    1    2    0    0  0.41846909914E+02  0.79188041001E+01 -0.47866771421E+02  0.64071047549E+02  0.00000000000E+00 0.  1.
         11    1    1    2    0    0 -0.45681058840E+02  0.34728492002E+02 -0.99858944044E+02  0.11517220150E+03  0.00000000000E+00 0. -1.
</event>
<event>
 7    1  0.2899775E-009  0.1106453E+03  0.7561462E-02  0.1259380E+00
          1   -1    0    0  501    0  0.00000000000E+00  0.00000000000E+00  0.15821674161E+03  0.15821674161E+03  0.00000000000E+00 0. -1.
         -1   -1    0    0    0  501 -0.00000000000E+00 -0.00000000000E+00 -0.11382779114E+03  0.11382779114E+03  0.00000000000E+00 0.  1.
         25    2    1    2    0    0 -0.15492968981E+02  0.89166511713E+02  0.25358642128E+02  0.15646573337E+03  0.12509103121E+03 0.  0.
          5    1    3    3  502    0  0.37236262141E+02  0.36083036864E+02  0.55159811549E+02  0.75819535594E+02  0.41800000000E+01 0. -1.
         -5    1    3    3    0  502 -0.52729231123E+02  0.53083474849E+02 -0.29801169421E+02  0.80646197776E+02  0.41800000000E+01 0. -1.
        -11    1    1    2    0    0  0.19299758844E+02 -0.34474865103E+02 -0.23697201935E+02  0.46071188337E+02  0.00000000000E+00 0.  1.
         11    1    1    2    0    0 -0.38067898623E+01 -0.54691646610E+02  0.42727510285E+02  0.69507611045E+02  0.00000000000E+00 0. -1.
</event>
<event>
 7    1  0.2899775E-009  0.7368691E+02  0.7561462E-02  0.1347986E+00
         -1   -1    0    0    0  501 -0.00000000000E+00  0.00000000000E+00  0.42459004236E+02  0.42459004236E+02  0.00000000000E+00 0.  1.
          1   -1    0    0  501    0  0.00000000000E+00 -0.00000000000E+00 -0.34054864832E+03  0.34054864832E+03  0.00000000000E+00 0. -1.
         25    2    1    2    0    0  0.21138116922E+02 -0.24570573326E+02 -0.23742275887E+03  0.27031056630E+03  0.12509077809E+03 0.  0.
          5    1    3    3  502    0 -0.32961572134E+02  0.23218111237E+02 -0.15706754357E+03  0.16221353695E+03  0.41800000000E+01 0. -1.
         -5    1    3    3    0  502  0.54099689055E+02 -0.47788684563E+02 -0.80355215308E+02  0.10809702935E+03  0.41800000000E+01 0. -1.
        -11    1    1    2    0    0 -0.80544251634E+01  0.18365728387E+02  0.21420087350E+02  0.29342697319E+02  0.00000000000E+00 0.  1.
         11    1    1    2    0    0 -0.13083691758E+02  0.62048449393E+01 -0.82086972558E+02  0.83354388934E+02  0.00000000000E+00 0. -1.
</event>
<event>
 7    1  0.2899775E-009  0.1602341E+03  0.7561462E-02  0.1188433E+00
          1   -1    0    0  501    0  0.00000000000E+00  0.00000000000E+00  0.38739061997E+02  0.38739061997E+02  0.00000000000E+00 0. -1.
         -1   -1    0    0    0  501 -0.00000000000E+00 -0.00000000000E+00 -0.72252323058E+03  0.72252323058E+03  0.00000000000E+00 0.  1.
         25    2    1    2    0    0 -0.12247166401E+03  0.33270250746E+02 -0.37668823899E+03  0.41671032631E+03  0.12508896269E+03 0.  0.
          5    1    3    3  502    0 -0.55343362311E+02  0.70533236370E+02 -0.12744763314E+03  0.15587878874E+03  0.41800000000E+01 0.  1.
         -5    1    3    3    0  502 -0.67128301702E+02 -0.37262985624E+02 -0.24924060584E+03  0.26083153757E+03  0.41800000000E+01 0.  1.
        -11    1    1    2    0    0 -0.12698093414E+02 -0.11068733702E+02 -0.18042640226E+02  0.24683907884E+02  0.00000000000E+00 0. -1.
         11    1    1    2    0    0  0.13516975743E+03 -0.22201517044E+02 -0.28905328937E+03  0.31986805839E+03  0.00000000000E+00 0.  1.
</event>
<event>
 7    1  0.2899775E-009  0.1360277E+03  0.7561462E-02  0.1218776E+00
         -1   -1    0    0    0  501 -0.00000000000E+00  0.00000000000E+00  0.48934556538E+03  0.48934556538E+03  0.00000000000E+00 0.  1.
          1   -1    0    0  501    0  0.00000000000E+00 -0.00000000000E+00 -0.49171039637E+02  0.49171039637E+02  0.00000000000E+00 0. -1.
         25    2    1    2    0    0 -0.90363211257E+02 -0.38131065616E+02  0.14601961015E+03  0.21584474904E+03  0.12509093103E+03 0.  0.
          5    1    3    3  502    0 -0.74197457660E+02 -0.79902120451E+02  0.77355504276E+02  0.13375708586E+03  0.41800000000E+01 0.  1.
         -5    1    3    3    0  502 -0.16165753597E+02  0.41771054835E+02  0.68664105874E+02  0.82087663183E+02  0.41800000000E+01 0.  1.
        -11    1    1    2    0    0  0.77939321262E+02  0.56153660471E+02  0.28138313846E+03  0.29732850854E+03  0.00000000000E+00 0.  1.
         11    1    1    2    0    0  0.12423889995E+02 -0.18022594854E+02  0.12771777135E+02  0.25343347432E+02  0.00000000000E+00 0. -1.
</event>
<event>
 7    1  0.2899775E-009  0.3742855E+03  0.7561462E-02  0.1053066E+00
         -1   -1    0    0    0  501 -0.00000000000E+00  0.00000000000E+00  0.14427138803E+03  0.14427138803E+03  0.00000000000E+00 0.  1.
          1   -1    0    0  501    0  0.00000000000E+00 -0.00000000000E+00 -0.11128408269E+04  0.11128408269E+04  0.00000000000E+00 0. -1.
         25    2    1    2    0    0  0.34778733277E+03  0.10157208485E+03 -0.28135817227E+03  0.47548288205E+03  0.12509449535E+03 0.  0.
          5    1    3    3  502    0  0.14626023563E+03 -0.83790405855E+01 -0.15534159051E+03  0.21356672726E+03  0.41800000000E+01 0.  1.
         -5    1    3    3    0  502  0.20152709714E+03  0.10995112544E+03 -0.12601658176E+03  0.26191615480E+03  0.41800000000E+01 0.  1.
        -11    1    1    2    0    0 -0.23571407681E+03 -0.25806360921E+02 -0.43658984034E+03  0.49682771959E+03  0.00000000000E+00 0.  1.
         11    1    1    2    0    0 -0.11207325596E+03 -0.75765723929E+02 -0.25062142628E+03  0.28480161329E+03  0.00000000000E+00 0. -1.
</event>
<event>
 7    1  0.2899775E-009  0.4204063E+03  0.7561462E-02  0.1036934E+00
          1   -1    0    0  501    0  0.00000000000E+00  0.00000000000E+00  0.85396603860E+03  0.85396603860E+03  0.00000000000E+00 0. -1.
         -1   -1    0    0    0  501 -0.00000000000E+00 -0.00000000000E+00 -0.22036170283E+03  0.22036170283E+03  0.00000000000E+00 0.  1.
         25    2    1    2    0    0  0.38793493636E+03 -0.15987008768E+03  0.33498387945E+03  0.55128353940E+03  0.12508949412E+03 0.  0.
          5    1    3    3  502    0  0.66060818624E+02 -0.21219400959E+02  0.12409705319E+03  0.14223869285E+03  0.41800000000E+01 0.  1.
         -5    1    3    3    0  502  0.32187411773E+03 -0.13865068672E+03  0.21088682626E+03  0.40904484655E+03  0.41800000000E+01 0.  1.
        -11    1    1    2    0    0 -0.35459515713E+03  0.15547263530E+03  0.24020351589E+03  0.45563932537E+03  0.00000000000E+00 0.  1.
         11    1    1    2    0    0 -0.33339779233E+02  0.43974523809E+01  0.58416940432E+02  0.67404876649E+02  0.00000000000E+00 0. -1.
</event>
<event>
 7    1  0.2899775E-009  0.3632971E+03  0.7561462E-02  0.1057286E+00
          1   -1    0    0  501    0  0.00000000000E+00  0.00000000000E+00  0.11516777848E+03  0.11516777848E+03  0.00000000000E+00 0. -1.
         -1   -1    0    0    0  501 -0.00000000000E+00 -0.00000000000E+00 -0.17834187113E+04  0.17834187113E+04  0.00000000000E+00 0.  1.
         25    2    1    2    0    0  0.33875375553E+03 -0.85972365951E+02 -0.28184259733E+03  0.46607796249E+03  0.12509221738E+03 0.  0.
          5    1    3    3  502    0  0.20372814563E+03  0.96949298837E+01 -0.17741709102E+03  0.27035799521E+03  0.41800000000E+01 0. -1.
         -5    1    3    3    0  502  0.13502560990E+03 -0.95667295835E+02 -0.10442550631E+03  0.19571996727E+03  0.41800000000E+01 0. -1.
        -11    1    1    2    0    0 -0.11037172502E+03 -0.67352287890E+01 -0.34304288339E+03  0.36042433441E+03  0.00000000000E+00 0. -1.
         11    1    1    2    0    0 -0.22838203051E+03  0.92707594740E+02 -0.10433654521E+04  0.10720841928E+04  0.00000000000E+00 0.  1.
</event>
<event>
 7    1  0.2899775E-009  0.1290547E+03  0.7561462E-02  0.1228865E+00
         -1   -1    0    0    0  501 -0.00000000000E+00  0.00000000000E+00  0.12504454188E+03  0.12504454188E+03  0.00000000000E+00 0.  1.
          1   -1    0    0  501    0  0.00000000000E+00 -0.00000000000E+00 -0.16328683257E+03  0.16328683257E+03  0.00000000000E+00 0. -1.
         25    2    1    2    0    0  0.89168219601E+02 -0.22045744890E+01  0.77348741718E+01  0.15382185126E+03  0.12508198157E+03 0.  0.
          5    1    3    3  502    0  0.11025495528E+03 -0.10995377130E+01 -0.26411883089E+02  0.11345670591E+03  0.41800000000E+01 0. -1.
         -5    1    3    3    0  502 -0.21086735683E+02 -0.11050367760E+01  0.34146757261E+02  0.40365145354E+02  0.41800000000E+01 0. -1.
        -11    1    1    2    0    0 -0.26174614065E+02 -0.41859154930E+02 -0.21329793221E+02  0.53779729934E+02  0.00000000000E+00 0. -1.
         11    1    1    2    0    0 -0.62993605536E+02  0.44063729419E+02 -0.24647371640E+02  0.80729793246E+02  0.00000000000E+00 0.  1.
</event>
<event>
 7    1  0.2899775E-009  0.9615166E+02  0.7561462E-02  0.1288603E+00
         -2   -1    0    0    0  501 -0.00000000000E+00  0.00000000000E+00  0.15118316411E+03  0.15118316411E+03  0.00000000000E+00 0.  1.
          2   -1    0    0  501    0  0.00000000000E+00 -0.00000000000E+00 -0.10401031914E+03  0.10401031914E+03  0.00000000000E+00 0. -1.
         25    2    1    2    0    0 -0.53769735498E+02  0.58511412915E+00 -0.42318887394E+01  0.13622292182E+03  0.12508896327E+03 0.  0.
          5    1    3    3  502    0  0.61910059009E+01 -0.40261884295E+02  0.34794046461E+02  0.53734960223E+02  0.41800000000E+01 0.  1.
         -5    1    3    3    0  502 -0.59960741399E+02  0.40846998424E+02 -0.39025935201E+02  0.82487961593E+02  0.41800000000E+01 0.  1.
        -11    1    1    2    0    0  0.19475389081E+02 -0.28461701235E+02 -0.16278558756E+02  0.38135950128E+02  0.00000000000E+00 0. -1.
         11    1    1    2    0    0  0.34294346417E+02  0.27876587105E+02  0.67683292469E+02  0.80834611302E+02  0.00000000000E+00 0.  1.
</event>
<event>
 7    1  0.2899775E-009  0.2830515E+03  0.7561462E-02  0.1094034E+00
          2   -1    0    0  501    0  0.00000000000E+00  0.00000000000E+00  0.27929984904E+04  0.27929984904E+04  0.00000000000E+00 0. -1.
         -2   -1    0    0    0  501 -0.00000000000E+00 -0.00000000000E+00 -0.32642496722E+02  0.32642496722E+02  0.00000000000E+00 0.  1.
         25    2    1    2    0    0 -0.73511277647E+02 -0.26082995967E+03  0.17481005121E+04  0.17733976190E+04  0.12509012302E+03 0.  0.
          5    1    3    3  502    0  0.22479988150E+02 -0.60626857220E+02  0.22327621790E+03  0.23248808047E+03  0.41800000000E+01 0. -1.
         -5    1    3    3    0  502 -0.95991265797E+02 -0.20020310245E+03  0.15248242942E+04  0.15409095385E+04  0.41800000000E+01 0. -1.
        -11    1    1    2    0    0  0.85630135964E+02  0.20599492643E+03  0.89275038819E+03  0.92020089411E+03  0.00000000000E+00 0. -1.
         11    1    1    2    0    0 -0.12118858317E+02  0.54835033244E+02  0.11950509337E+03  0.13204247399E+03  0.00000000000E+00 0.  1.
</event>
<event>
 7    1  0.2899775E-009  0.9726739E+02  0.7561462E-02  0.1286149E+00
         -2   -1    0    0    0  501 -0.00000000000E+00  0.00000000000E+00  0.80373779660E+01  0.80373779660E+01  0.00000000000E+00 0.  1.
          2   -1    0    0  501    0  0.00000000000E+00 -0.00000000000E+00 -0.17081344410E+04  0.17081344410E+04  0.00000000000E+00 0. -1.
         25    2    1    2    0    0  0.35802151972E+02  0.24416913525E+02 -0.11798408029E+04  0.11872447265E+04  0.12509092905E+03 0.  0.
          5    1    3    3  502    0  0.63000970556E+02  0.31788030079E+02 -0.35811482954E+03  0.36502507405E+03  0.41800000000E+01 0. -1.
         -5    1    3    3    0  502 -0.27198818584E+02 -0.73711165534E+01 -0.82172597340E+03  0.82221965243E+03  0.41800000000E+01 0. -1.
        -11    1    1    2    0    0 -0.50113267985E+02  0.15899830451E+02 -0.28102952486E+03  0.28590512077E+03  0.00000000000E+00 0. -1.
         11    1    1    2    0    0  0.14311116013E+02 -0.40316743977E+02 -0.23922673518E+03  0.24302197167E+03  0.00000000000E+00 0.  1.
</event>
<event>
 7    1  0.2899775E-009  0.1949579E+03  0.7561462E-02  0.1154064E+00
         -1   -1    0    0    0  501 -0.00000000000E+00  0.00000000000E+00  0.55715953577E+03  0.55715953577E+03  0.00000000000E+00 0.  1.
          1   -1    0    0  501    0  0.00000000000E+00 -0.00000000000E+00 -0.86515313650E+02  0.86515313650E+02  0.00000000000E+00 0. -1.
         25    2    1    2    0    0 -0.99491391503E+02 -0.13116158117E+03  0.33428274499E+03  0.39305824763E+03  0.12509170664E+03 0.  0.
          5    1    3    3  502    0  0.13057701636E+02 -0.25643494494E+02  0.14950197882E+03  0.15230366526E+03  0.41800000000E+01 0. -1.
         -5    1    3    3    0  502 -0.11254909314E+03 -0.10551808667E+03  0.18478076618E+03  0.24075458237E+03  0.41800000000E+01 0. -1.
        -11    1    1    2    0    0  0.71616980399E+02 -0.80889911720E+00  0.25513863909E+02  0.76030279829E+02  0.00000000000E+00 0.  1.
         11    1    1    2    0    0  0.27874411104E+02  0.13197048028E+03  0.11084761322E+03  0.17458632197E+03  0.00000000000E+00 0. -1.
</event>
<event>
 7    1  0.2899775E-009  0.1259359E+03  0.7561462E-02  0.1233614E+00
         -1   -1    0    0    0  501 -0.00000000000E+00  0.00000000000E+00  0.53295361548E+03  0.53295361548E+03  0.00000000000E+00 0.  1.
          1   -1    0    0  501    0  0.00000000000E+00 -0.00000000000E+00 -0.36074935773E+02  0.36074935773E+02  0.00000000000E+00 0. -1.
         25    2    1    2    0    0 -0.73291623986E+02 -0.40451074984E+02  0.30706475438E+03  0.34197174688E+03  0.12509180894E+03 0.  0.
          5    1    3    3  502    0  0.34469085203E+02 -0.19339137545E+02  0.66015026429E+02  0.77055669423E+02  0.41800000000E+01 0. -1.
         -5    1    3    3    0  502 -0.10776070919E+03 -0.21111937439E+02  0.24104972795E+03  0.26491607745E+03  0.41800000000E+01 0. -1.
        -11    1    1    2    0    0 -0.99388635196E+01  0.85289801408E+01 -0.40263949076E+01  0.13701692095E+02  0.00000000000E+00 0. -1.
         11    1    1    2    0    0  0.83230487505E+02  0.31922094843E+02  0.19384032023E+03  0.21335511228E+03  0.00000000000E+00 0.  1.
</event>
<event>
 7    1  0.2899775E-009  0.1167413E+03  0.7561462E-02  0.1248572E+00
         -1   -1    0    0    0  501 -0.00000000000E+00  0.00000000000E+00  0.28540864242E+03  0.28540864242E+03  0.00000000000E+00 0.  1.
          1   -1    0    0  501    0  0.00000000000E+00 -0.00000000000E+00 -0.11199655158E+03  0.11199655158E+03  0.00000000000E+00 0. -1.
         25    2    1    2    0    0 -0.16245606613E+02 -0.99565201109E+02 -0.18876555125E+02  0.16180542424E+03  0.12509005546E+03 0.  0.
          5    1    3    3  502    0 -0.44001361948E+02 -0.36622129762E+02 -0.58789372735E+02  0.82164243976E+02  0.41800000000E+01 0.  1.
         -5    1    3    3    0  502  0.27755755335E+02 -0.62943071347E+02  0.39912817610E+02  0.79641180268E+02  0.41800000000E+01 0.  1.
        -11    1    1    2    0    0 -0.11009014951E+02  0.42833066005E+02  0.13783017419E+02  0.46323228760E+02  0.00000000000E+00 0. -1.
         11    1    1    2    0    0  0.27254621564E+02  0.56732135104E+02  0.17850562855E+03  0.18927654100E+03  0.00000000000E+00 0.  1.
</event>
<event>
 7    1  0.2899775E-009  0.1022477E+03  0.7561462E-02  0.1275639E+00
         -1   -1    0    0    0  501 -0.00000000000E+00  0.00000000000E+00  0.38173586653E+03  0.38173586653E+03  0.00000000000E+00 0.  1.
          1   -1    0    0  501    0  0.00000000000E+00 -0.00000000000E+00 -0.40370557624E+02  0.40370557624E+02  0.00000000000E+00 0. -1.
         25    2    1    2    0    0 -0.57475852250E+02 -0.66965281714E+01  0.16593873450E+03  0.21571068146E+03  0.12508843833E+03 0.  0.
          5    1    3    3  502    0  0.19080334521E+02 -0.72807923383E+01  0.12887451850E+03  0.13054954240E+03  0.41800000000E+01 0.  1.
         -5    1    3    3    0  502 -0.76556186771E+02  0.58426416687E+00  0.37064216003E+02  0.85161139057E+02  0.41800000000E+01 0.  1.
        -11    1    1    2    0    0 -0.87596669454E+01 -0.30001924355E+02  0.35530825320E+02  0.47321102881E+02  0.00000000000E+00 0.  1.
         11    1    1    2    0    0  0.66235519196E+02  0.36698452526E+02  0.13989574908E+03  0.15907463982E+03  0.00000000000E+00 0. -1.
</event>
<event>
 7    1  0.2899775E-009  0.1451397E+03  0.7561462E-02  0.1206576E+00
          2   -1    0    0  501    0  0.00000000000E+00  0.00000000000E+00  0.21380620870E+04  0.21380620870E+04  0.00000000000E+00 0. -1.
         -2   -1    0    0    0  501 -0.00000000000E+00 -0.00000000000E+00 -0.14952123739E+02  0.14952123739E+02  0.00000000000E+00 0.  1.
         25    2    1    2    0    0  0.10401852203E+03  0.36311679014E+02  0.16608958727E+04  0.16692397070E+04  0.12509080219E+03 0.  0.
          5    1    3    3  502    0 -0.12513408301E+01  0.47845522691E+02  0.26451811102E+03  0.26884579846E+03  0.41800000000E+01 0. -1.
         -5    1    3    3    0  502  0.10526986286E+03 -0.11533843678E+02  0.13963777616E+04  0.14003939086E+04  0.41800000000E+01 0. -1.
        -11    1    1    2    0    0 -0.24323930459E+02 -0.49802022985E+02  0.26320588920E+03  0.26897813144E+03  0.00000000000E+00 0.  1.
         11    1    1    2    0    0 -0.79694591573E+02  0.13490343972E+02  0.19900820139E+03  0.21479637224E+03  0.00000000000E+00 0. -1.
</event>
<event>
 7    1  0.2899775E-009  0.1730621E+03  0.7561462E-02  0.1174692E+00
          1   -1    0    0  501    0  0.00000000000E+00  0.00000000000E+00  0.38769252138E+03  0.38769252138E+03  0.00000000000E+00 0. -1.
         -1   -1    0    0    0  501 -0.00000000000E+00 -0.00000000000E+00 -0.98081340638E+02  0.98081340638E+02  0.00000000000E+00 0.  1.
         25    2    1    2    0    0 -0.89640388082E+02 -0.13083062312E+03  0.18385495906E+03  0.27313318904E+03  0.12508813637E+03 0.  0.
          5    1    3    3  502    0 -0.83234960470E+02 -0.42425231413E+02  0.15275087043E+03  0.17910404719E+03  0.41800000000E+01 0. -1.
         -5    1    3    3    0  502 -0.64054276126E+01 -0.88405391710E+02  0.31104088634E+02  0.94029141845E+02  0.41800000000E+01 0. -1.
        -11    1    1    2    0    0  0.57938243183E+02  0.11423614176E+03  0.11865737464E+03  0.17460328939E+03  0.00000000000E+00 0. -1.
         11    1    1    2    0    0  0.31702144899E+02  0.16594481363E+02 -0.12901152962E+02  0.38037383594E+02  0.00000000000E+00 0.  1.
</event>
<event>
 7    1  0.2899775E-009  0.8391284E+02  0.7561462E-02  0.1318300E+00
         -1   -1    0    0    0  501 -0.00000000000E+00  0.00000000000E+00  0.30583412502E+02  0.30583412502E+02  0.00000000000E+00 0.  1.
          1   -1    0    0  501    0  0.00000000000E+00 -0.00000000000E+00 -0.39929596842E+03  0.39929596842E+03  0.00000000000E+00 0. -1.
         25    2    1    2    0    0  0.27964221906E+02  0.31101386565E+01 -0.20602255901E+03  0.24265527752E+03  0.12507844827E+03 0.  0.
          5    1    3    3  502    0 -0.17334636824E+02  0.38289205439E+02 -0.17784857074E+02  0.45829318434E+02  0.41800000000E+01 0. -1.
         -5    1    3    3    0  502  0.45298858730E+02 -0.35179066783E+02 -0.18823770193E+03  0.19682595909E+03  0.41800000000E+01 0. -1.
        -11    1    1    2    0    0 -0.24262414417E+02 -0.31326308951E+02 -0.15158185986E+03  0.15667502234E+03  0.00000000000E+00 0. -1.
         11    1    1    2    0    0 -0.37018074885E+01  0.28216170294E+02 -0.11108137046E+02  0.30549081056E+02  0.00000000000E+00 0.  1.
</event>
<event>
 7    1  0.2899775E-009  0.1001374E+03  0.7561462E-02  0.1280007E+00
         -2   -1    0    0    0  501 -0.00000000000E+00  0.00000000000E+00  0.59890117127E+02  0.59890117127E+02  0.00000000000E+00 0. -1.
          2   -1    0    0  501    0  0.00000000000E+00 -0.00000000000E+00 -0.21733381173E+03  0.21733381173E+03  0.00000000000E+00 0.  1.
         25    2    1    2    0    0  0.20792309815E+02  0.23785383503E+02 -0.76236064756E+02  0.14985531886E+03  0.12508642774E+03 0.  0.
          5    1    3    3  502    0 -0.18482116456E+02  0.65788241915E+02 -0.25509241143E+02  0.73060763661E+02  0.41800000000E+01 0. -1.
         -5    1    3    3    0  502  0.39274426271E+02 -0.42002858413E+02 -0.50726823613E+02  0.76794555195E+02  0.41800000000E+01 0. -1.
        -11    1    1    2    0    0 -0.40638877194E+02  0.30795757803E+01 -0.84490951635E+02  0.93806838955E+02  0.00000000000E+00 0.  1.
         11    1    1    2    0    0  0.19846567379E+02 -0.26864959283E+02  0.32833217841E+01  0.33561771049E+02  0.00000000000E+00 0. -1.
</event>
<event>
 7    1  0.2899775E-009  0.1022117E+03  0.7561462E-02  0.1275713E+00
          1   -1    0    0  501    0  0.00000000000E+00  0.00000000000E+00  0.42948238439E+03  0.42948238439E+03  0.00000000000E+00 0. -1.
         -1   -1    0    0    0  501 -0.00000000000E+00 -0.00000000000E+00 -0.59200786916E+02  0.59200786916E+02  0.00000000000E+00 0.  1.
         25    2    1    2    0    0  0.41902509041E+01  0.58526608330E+02  0.30497782762E+03  0.33481602285E+03  0.12508945492E+03 0.  0.
          5    1    3    3  502    0 -0.13793529062E+02  0.24900000912E+02  0.29331182221E+03  0.29471947499E+03  0.41800000000E+01 0.  1.
         -5    1    3    3    0  502  0.17983779966E+02  0.33626607418E+02  0.11666005413E+02  0.40096547864E+02  0.41800000000E+01 0.  1.
        -11    1    1    2    0    0  0.59911434808E+02 -0.31949624370E+02  0.19220052225E+02  0.70566060721E+02  0.00000000000E+00 0.  1.
         11    1    1    2    0    0 -0.64101685712E+02 -0.26576983960E+02  0.46083717631E+02  0.83301087737E+02  0.00000000000E+00 0. -1.
</event>
<event>
 7    1  0.2899775E-009  0.1087387E+03  0.7561462E-02  0.1262924E+00
         -2   -1    0    0    0  501 -0.00000000000E+00  0.00000000000E+00  0.69812905253E+02  0.69812905253E+02  0.00000000000E+00 0.  1.
          2   -1    0    0  501    0  0.00000000000E+00 -0.00000000000E+00 -0.21459394039E+03  0.21459394039E+03  0.00000000000E+00 0. -1.
         25    2    1    2    0    0  0.62090867683E+02  0.75101591791E+00 -0.80875982777E+02  0.16138590163E+03  0.12509454337E+03 0.  0.
          5    1    3    3  502    0 -0.19099110970E+02  0.25986724655E+02 -0.67889998789E+02  0.75276890436E+02  0.41800000000E+01 0.  1.
         -5    1    3    3    0  502  0.81189978654E+02 -0.25235708737E+02 -0.12985983987E+02  0.86109011197E+02  0.41800000000E+01 0.  1.
        -11    1    1    2    0    0  0.14659571335E+02  0.15550042062E+02 -0.31645402478E+02  0.38185577616E+02  0.00000000000E+00 0. -1.
         11    1    1    2    0    0 -0.76750439018E+02 -0.16301057979E+02 -0.32259649884E+02  0.84835366395E+02  0.00000000000E+00 0.  1.
</event>
<event>
 7    1  0.2899775E-009  0.9812209E+02  0.7561462E-02  0.1284295E+00
         -1   -1    0    0    0  501 -0.00000000000E+00  0.00000000000E+00  0.53300785904E+03  0.53300785904E+03  0.00000000000E+00 0.  1.
          1   -1    0    0  501    0  0.00000000000E+00 -0.00000000000E+00 -0.25066830780E+02  0.25066830780E+02  0.00000000000E+00 0. -1.
         25    2    1    2    0    0 -0.92362681458E+00  0.28559682512E+02  0.35612999666E+03  0.37854446184E+03  0.12510326341E+03 0.  0.
          5    1    3    3  502    0  0.35336058361E+02  0.66415801555E+02  0.22409601582E+03  0.23642375605E+03  0.41800000000E+01 0.  1.
         -5    1    3    3    0  502 -0.36259685176E+02 -0.37856119043E+02  0.13203398084E+03  0.14212070579E+03  0.41800000000E+01 0.  1.
        -11    1    1    2    0    0 -0.19052328004E+02  0.12405192971E+02  0.12415551451E+03  0.12621993424E+03  0.00000000000E+00 0.  1.
         11    1    1    2    0    0  0.19975954818E+02 -0.40964875483E+02  0.27655517094E+02  0.53310293752E+02  0.00000000000E+00 0. -1.
</event>
<event>
 7    1  0.3434327E-009  0.1694028E+03  0.7561462E-02  0.1178472E+00
         -1   -1    0    0    0  501 -0.00000000000E+00  0.00000000000E+00  0.18007942180E+03  0.18007942180E+03  0.00000000000E+00 0.  1.
          1   -1    0    0  501    0  0.00000000000E+00 -0.00000000000E+00 -0.20124028641E+03  0.20124028641E+03  0.00000000000E+00 0. -1.
         25    2    1    2    0    0 -0.15625570060E+03  0.16943180125E+01 -0.12069155760E+02  0.20053321313E+03  0.12509672404E+03 0.  0.
          5    1    3    3  502    0 -0.11543167811E+03  0.17383859005E+02 -0.63450841813E+02  0.13292912620E+03  0.41800000000E+01 0.  1.
         -5    1    3    3    0  502 -0.40824022489E+02 -0.15689540993E+02  0.51381686053E+02  0.67604086935E+02  0.41800000000E+01 0.  1.
        -11    1    1    2    0    0  0.93651242552E+02 -0.43008953064E+02  0.95502154147E+01  0.10349653081E+03  0.00000000000E+00 0. -1.
         11    1    1    2    0    0  0.62604458046E+02  0.41314635051E+02 -0.18641924264E+02  0.77289964270E+02  0.00000000000E+00 0.  1.
</event>
<event>
 7    1  0.2899775E-009  0.1196013E+03  0.7561462E-02  0.1243756E+00
          1   -1    0    0  501    0  0.00000000000E+00  0.00000000000E+00  0.10578096289E+03  0.10578096289E+03  0.00000000000E+00 0. -1.
         -1   -1    0    0    0  501 -0.00000000000E+00 -0.00000000000E+00 -0.21593658612E+03  0.21593658612E+03  0.00000000000E+00 0.  1.
         25    2    1    2    0    0 -0.41317424663E+02  0.27129061027E+02  0.22200253709E+02  0.13632133328E+03  0.12509012395E+03 0.  0.
          5    1    3    3  502    0  0.39312554050E+02 -0.16242357671E+02  0.96428839418E+01  0.43814936944E+02  0.41800000000E+01 0.  1.
         -5    1    3    3    0  502 -0.80629978713E+02  0.43371418699E+02  0.12557369767E+02  0.92506396334E+02  0.41800000000E+01 0.  1.
        -11    1    1    2    0    0  0.45696133723E+02 -0.57883560266E+02 -0.13540174263E+03  0.15418260309E+03  0.00000000000E+00 0.  1.
         11    1    1    2    0    0 -0.43787090601E+01  0.30754499238E+02  0.30458656898E+01  0.31213612643E+02  0.00000000000E+00 0. -1.
</event>
<event>
 7    1  0.2899775E-009  0.1512137E+03  0.7561462E-02  0.1198990E+00
          2   -1    0    0  501    0  0.00000000000E+00  0.00000000000E+00  0.68674481221E+02  0.68674481221E+02  0.00000000000E+00 0.  1.
         -2   -1    0    0    0  501 -0.00000000000E+00 -0.00000000000E+00 -0.42975058679E+03  0.42975058679E+03  0.00000000000E+00 0. -1.
         25    2    1    2    0    0  0.10645711804E+03  0.54200715869E+02 -0.10759486371E+03  0.20370002386E+03  0.12508480899E+03 0.  0.
          5    1    3    3  502    0  0.18988332996E+02  0.67222192949E+02 -0.79819010392E+01  0.70431265494E+02  0.41800000000E+01 0. -1.
         -5    1    3    3    0  502  0.87468785047E+02 -0.13021477080E+02 -0.99612962675E+02  0.13326875836E+03  0.41800000000E+01 0. -1.
        -11    1    1    2    0    0 -0.59050639169E+02 -0.72144284776E+02 -0.20200685498E+03  0.22248268533E+03  0.00000000000E+00 0. -1.
         11    1    1    2    0    0 -0.47406478875E+02  0.17943568907E+02 -0.51474386873E+02  0.72242358823E+02  0.00000000000E+00 0.  1.
</event>
<event>
 7    1  0.2899775E-009  0.2152467E+03  0.7561462E-02  0.1137477E+00
          2   -1    0    0  501    0  0.00000000000E+00  0.00000000000E+00  0.37808393322E+03  0.37808393322E+03  0.00000000000E+00 0.  1.
         -2   -1    0    0    0  501 -0.00000000000E+00 -0.00000000000E+00 -0.15601910473E+03  0.15601910473E+03  0.00000000000E+00 0. -1.
         25    2    1    2    0    0  0.36442239105E+02  0.19363937513E+03  0.14860146081E+02  0.23387135063E+03  0.12510291888E+03 0.  0.
          5    1    3    3  502    0  0.45718172670E+02  0.20952205236E+03  0.14896139444E+02  0.21500932330E+03  0.41800000000E+01 0. -1.
         -5    1    3    3    0  502 -0.92759335652E+01 -0.15882677229E+02 -0.35993363317E-01  0.18862027329E+02  0.41800000000E+01 0. -1.
        -11    1    1    2    0    0 -0.29608437673E+02 -0.14239940229E+03  0.20109202983E+03  0.24817786730E+03  0.00000000000E+00 0.  1.
         11    1    1    2    0    0 -0.68338014315E+01 -0.51239972836E+02  0.61126525765E+01  0.52053820031E+02  0.00000000000E+00 0. -1.
</event>
<event>
 7    1  0.2899775E-009  0.3694986E+03  0.7561462E-02  0.1054885E+00
          2   -1    0    0  501    0  0.00000000000E+00  0.00000000000E+00  0.22938523589E+04  0.22938523589E+04  0.00000000000E+00 0.  1.
         -2   -1    0    0    0  501 -0.00000000000E+00 -0.00000000000E+00 -0.71474678789E+02  0.71474678789E+02  0.00000000000E+00 0. -1.
         25    2    1    2    0    0 -0.17219057666E+03  0.32598853959E+03  0.75379808441E+03  0.84839705192E+03  0.12509149858E+03 0.  0.
          5    1    3    3  502    0 -0.14786041363E+03  0.29339855963E+03  0.73131503515E+03  0.80173846717E+03  0.41800000000E+01 0.  1.
         -5    1    3    3    0  502 -0.24330163030E+02  0.32589979960E+02  0.22483049264E+02  0.46658584752E+02  0.41800000000E+01 0.  1.
        -11    1    1    2    0    0  0.67016764129E+02 -0.15381261450E+03  0.84594947844E+03  0.86242685900E+03  0.00000000000E+00 0.  1.
         11    1    1    2    0    0  0.10517381253E+03 -0.17217592509E+03  0.62263011724E+03  0.65450312674E+03  0.00000000000E+00 0. -1.
</event>
<event>
 7    1  0.2899775E-009  0.1021929E+03  0.7561462E-02  0.1275751E+00
          1   -1    0    0  501    0  0.00000000000E+00  0.00000000000E+00  0.80337071189E+03  0.80337071189E+03  0.00000000000E+00 0. -1.
         -1   -1    0    0    0  501 -0.00000000000E+00 -0.00000000000E+00 -0.15363467664E+02  0.15363467664E+02  0.00000000000E+00 0.  1.
         25    2    1    2    0    0 -0.95187113993E+01 -0.19732957455E+02  0.54123295184E+03  0.55593225404E+03  0.12509023722E+03 0.  0.
          5    1    3    3  502    0 -0.18843103972E+01  0.48648720472E+02  0.12839917803E+03  0.13738293179E+03  0.41800000000E+01 0.  1.
         -5    1    3    3    0  502 -0.76344010021E+01 -0.68381677928E+02  0.41283377381E+03  0.41854932225E+03  0.41800000000E+01 0.  1.
        -11    1    1    2    0    0  0.45192519575E+02  0.23103238061E+02  0.18002103463E+03  0.18703929091E+03  0.00000000000E+00 0.  1.
         11    1    1    2    0    0 -0.35673808175E+02 -0.33702806051E+01  0.66753257747E+02  0.75762634596E+02  0.00000000000E+00 0. -1.
</event>
<event>
 7    1  0.2899775E-009  0.1259652E+03  0.7561462E-02  0.1233568E+00
         -1   -1    0    0    0  501 -0.00000000000E+00  0.00000000000E+00  0.23064232555E+03  0.23064232555E+03  0.00000000000E+00 0.  1.
          1   -1    0    0  501    0  0.00000000000E+00 -0.00000000000E+00 -0.80440349771E+02  0.80440349771E+02  0.00000000000E+00 0. -1.
         25    2    1    2    0    0 -0.17524567950E+02 -0.79257912397E+02  0.94481853563E+02  0.17653338254E+03  0.12509311468E+03 0.  0.
          5    1    3    3  502    0 -0.33753653260E+01  0.33457118674E+02  0.11472869116E+02  0.35775284860E+02  0.41800000000E+01 0.  1.
         -5    1    3    3    0  502 -0.14149202624E+02 -0.11271503107E+03  0.83008984446E+02  0.14075809768E+03  0.41800000000E+01 0.  1.
        -11    1    1    2    0    0 -0.39951635053E+01  0.82507750506E+02  0.70203570951E+02  0.10840678761E+03  0.00000000000E+00 0.  1.
         11    1    1    2    0    0  0.21519731455E+02 -0.32498381087E+01 -0.14483448732E+02  0.26142505175E+02  0.00000000000E+00 0. -1.
</event>
<event>
 7    1  0.2899775E-009  0.8414297E+02  0.7561462E-02  0.1317689E+00
         -1   -1    0    0    0  501 -0.00000000000E+00  0.00000000000E+00  0.77416340487E+02  0.77416340487E+02  0.00000000000E+00 0.  1.
          1   -1    0    0  501    0  0.00000000000E+00 -0.00000000000E+00 -0.20268585144E+03  0.20268585144E+03  0.00000000000E+00 0. -1.
         25    2    1    2    0    0 -0.45262044773E+02  0.33045724371E+02 -0.40534962167E+02  0.14293933337E+03  0.12509155555E+03 0.  0.
          5    1    3    3  502    0 -0.47774144756E+02  0.11518215090E+02  0.37426563112E+02  0.61913312078E+02  0.41800000000E+01 0. -1.
         -5    1    3    3    0  502  0.25120999831E+01  0.21527509281E+02 -0.77961525279E+02  0.81026021289E+02  0.41800000000E+01 0. -1.
        -11    1    1    2    0    0 -0.20648653031E+02 -0.21804483924E+02 -0.10511062845E+01  0.30048414527E+02  0.00000000000E+00 0.  1.
         11    1    1    2    0    0  0.65910697804E+02 -0.11241240447E+02 -0.83683442505E+02  0.10711444404E+03  0.00000000000E+00 0. -1.
</event>
<event>
 7    1  0.2899775E-009  0.8187484E+02  0.7561462E-02  0.1323814E+00
         -1   -1    0    0    0  501 -0.00000000000E+00  0.00000000000E+00  0.41038414532E+02  0.41038414532E+02  0.00000000000E+00 0.  1.
          1   -1    0    0  501    0  0.00000000000E+00 -0.00000000000E+00 -0.28858371147E+03  0.28858371147E+03  0.00000000000E+00 0. -1.
         25    2    1    2    0    0  0.55123624312E+01  0.37524622015E+01 -0.12329890762E+03  0.17574963247E+03  0.12506336626E+03 0.  0.
          5    1    3    3  502    0  0.33106836619E+02  0.27986696657E+02  0.34813623884E+01  0.43691075802E+02  0.41800000000E+01 0.  1.
         -5    1    3    3    0  502 -0.27594474188E+02 -0.24234234455E+02 -0.12678027001E+03  0.13205855667E+03  0.41800000000E+01 0.  1.
        -11    1    1    2    0    0  0.19429732595E+02 -0.36929031373E+02 -0.31567854470E+02  0.52323964899E+02  0.00000000000E+00 0.  1.
         11    1    1    2    0    0 -0.24942095026E+02  0.33176569172E+02 -0.92678534852E+02  0.10154852864E+03  0.00000000000E+00 0. -1.
</event>
<event>
 7    1  0.2899775E-009  0.1124871E+03  0.7561462E-02  0.1256032E+00
         -1   -1    0    0    0  501 -0.00000000000E+00  0.00000000000E+00  0.21253793672E+03  0.21253793672E+03  0.00000000000E+00 0.  1.
          1   -1    0    0  501    0  0.00000000000E+00 -0.00000000000E+00 -0.64848448326E+02  0.64848448326E+02  0.00000000000E+00 0. -1.
         25    2    1    2    0    0 -0.65468493700E+02 -0.97757469333E+01  0.58674816621E+02  0.15321031160E+03  0.12509586955E+03 0.  0.
          5    1    3    3  502    0 -0.94650333835E+02  0.19635962004E+02  0.25749358667E+02  0.10012371633E+03  0.41800000000E+01 0.  1.
         -5    1    3    3    0  502  0.29181840135E+02 -0.29411708937E+02  0.32925457954E+02  0.53086595274E+02  0.41800000000E+01 0.  1.
        -11    1    1    2    0    0  0.47322364744E+02 -0.20265531833E+02  0.53542495126E+02  0.74275815510E+02  0.00000000000E+00 0.  1.
         11    1    1    2    0    0  0.18146128956E+02  0.30041278766E+02  0.35472176644E+02  0.49900257934E+02  0.00000000000E+00 0. -1.
</event>
<event>
 7    1  0.2899775E-009  0.1726691E+03  0.7561462E-02  0.1175093E+00
         -1   -1    0    0    0  501 -0.00000000000E+00  0.00000000000E+00  0.50176450075E+03  0.50176450075E+03  0.00000000000E+00 0.  1.
          1   -1    0    0  501    0  0.00000000000E+00 -0.00000000000E+00 -0.11748860402E+03  0.11748860402E+03  0.00000000000E+00 0. -1.
         25    2    1    2    0    0  0.55558503131E+01  0.14377414279E+03 -0.95840958742E+01  0.19089637729E+03  0.12509076850E+03 0.  0.
          5    1    3    3  502    0 -0.48906590149E+02  0.67906819623E+02  0.30516484615E+02  0.89173532758E+02  0.41800000000E+01 0.  1.
         -5    1    3    3    0  502  0.54462440462E+02  0.75867323163E+02 -0.40100580489E+02  0.10172284454E+03  0.41800000000E+01 0.  1.
        -11    1    1    2    0    0  0.39164586272E+02 -0.89806486803E+02  0.24311850361E+03  0.26211767717E+03  0.00000000000E+00 0.  1.
         11    1    1    2    0    0 -0.44720436585E+02 -0.53967655983E+02  0.15074148900E+03  0.16623905031E+03  0.00000000000E+00 0. -1.
</event>
<event>
 7    1  0.2899775E-009  0.1024709E+03  0.7561462E-02  0.1275184E+00
         -1   -1    0    0    0  501 -0.00000000000E+00  0.00000000000E+00  0.21791002113E+03  0.21791002113E+03  0.00000000000E+00 0.  1.
          1   -1    0    0  501    0  0.00000000000E+00 -0.00000000000E+00 -0.85888328969E+02  0.85888328969E+02  0.00000000000E+00 0. -1.
         25    2    1    2    0    0  0.74499474311E+01 -0.14705536279E+02  0.16025678276E+03  0.20396418792E+03  0.12508956399E+03 0.  0.
          5    1    3    3  502    0  0.13731798129E+02  0.46259858363E+02  0.23065340980E+02  0.53647172620E+02  0.41800000000E+01 0.  1.
         -5    1    3    3    0  502 -0.62818506979E+01 -0.60965394642E+02  0.13719144178E+03  0.15031701530E+03  0.41800000000E+01 0.  1.
        -11    1    1    2    0    0 -0.89101700243E+01 -0.39681241217E+02 -0.62189096969E+01  0.41142032913E+02  0.00000000000E+00 0. -1.
         11    1    1    2    0    0  0.14602225932E+01  0.54386777496E+02 -0.22016180899E+02  0.58692129266E+02  0.00000000000E+00 0.  1.
</event>
<event>
 7    1  0.2899775E-009  0.8892654E+02  0.7561462E-02  0.1305472E+00
          4   -1    0    0  501    0  0.00000000000E+00  0.00000000000E+00  0.13968486937E+04  0.13968486937E+04  0.00000000000E+00 0. -1.
         -4   -1    0    0    0  501 -0.00000000000E+00 -0.00000000000E+00 -0.87292446330E+01  0.87292446330E+01  0.00000000000E+00 0.  1.
         25    2    1    2    0    0  0.13417224284E+02  0.16264871219E+02  0.86055635205E+03  0.86985552367E+03  0.12508728580E+03 0.  0.
          5    1    3    3  502    0  0.40165192182E+02  0.33778904048E+02  0.79556653839E+03  0.79730662009E+03  0.41800000000E+01 0. -1.
         -5    1    3    3    0  502 -0.26747967898E+02 -0.17514032829E+02  0.64989813655E+02  0.72548903586E+02  0.41800000000E+01 0. -1.
        -11    1    1    2    0    0 -0.48541520382E+02  0.94217111778E+01  0.29722462961E+03  0.30130968835E+03  0.00000000000E+00 0. -1.
         11    1    1    2    0    0  0.35124296098E+02 -0.25686582397E+02  0.23033846738E+03  0.23441272629E+03  0.00000000000E+00 0.  1.
</event>
<event>
 7    1  0.2899775E-009  0.1053081E+03  0.7561462E-02  0.1269514E+00
         -3   -1    0    0    0  501 -0.00000000000E+00  0.00000000000E+00  0.45748834649E+03  0.45748834649E+03  0.00000000000E+00 0.  1.
          3   -1    0    0  501    0  0.00000000000E+00 -0.00000000000E+00 -0.32052534193E+02  0.32052534193E+02  0.00000000000E+00 0. -1.
         25    2    1    2    0    0 -0.18218265502E+02 -0.40276457868E+02  0.17785921579E+03  0.22188916767E+03  0.12508718493E+03 0.  0.
          5    1    3    3  502    0 -0.47050244851E+02 -0.58262193903E+02  0.17133777710E+03  0.18703559832E+03  0.41800000000E+01 0.  1.
         -5    1    3    3    0  502  0.28831979348E+02  0.17985736035E+02  0.65214386889E+01  0.34853569350E+02  0.41800000000E+01 0.  1.
        -11    1    1    2    0    0  0.54930075246E+02  0.15471365412E+02  0.14992890805E+03  0.16042242295E+03  0.00000000000E+00 0. -1.
         11    1    1    2    0    0 -0.36711809744E+02  0.24805092456E+02  0.97647688456E+02  0.10722929006E+03  0.00000000000E+00 0.  1.
</event>
<event>
 7    1  0.2899775E-009  0.1153416E+03  0.7561462E-02  0.1250986E+00
         -1   -1    0    0    0  501 -0.00000000000E+00  0.00000000000E+00  0.68721803551E+03  0.68721803551E+03  0.00000000000E+00 0.  1.
          1   -1    0    0  501    0  0.00000000000E+00 -0.00000000000E+00 -0.21768280933E+02  0.21768280933E+02  0.00000000000E+00 0. -1.
         25    2    1    2    0    0  0.33576547485E+02 -0.21808910814E+02  0.25774902089E+03  0.28928408745E+03  0.12509081643E+03 0.  0.
          5    1    3    3  502    0  0.15886108169E+02  0.52340214779E+02  0.11439652169E+03  0.12686963029E+03  0.41800000000E+01 0.  1.
         -5    1    3    3    0  502  0.17690439316E+02 -0.74149125593E+02  0.14335249920E+03  0.16241445716E+03  0.41800000000E+01 0.  1.
        -11    1    1    2    0    0 -0.51207070695E+02 -0.19321632915E+02  0.23637982535E+03  0.24263328588E+03  0.00000000000E+00 0.  1.
         11    1    1    2    0    0  0.17630523211E+02  0.41130543729E+02  0.17132090834E+03  0.17706894310E+03  0.00000000000E+00 0. -1.
</event>
<event>
 7    1  0.2899775E-009  0.1603616E+03  0.7561462E-02  0.1188289E+00
         -1   -1    0    0    0  501 -0.00000000000E+00  0.00000000000E+00  0.94223958550E+02  0.94223958550E+02  0.00000000000E+00 0.  1.
          1   -1    0    0  501    0  0.00000000000E+00 -0.00000000000E+00 -0.32552859633E+03  0.32552859633E+03  0.00000000000E+00 0. -1.
         25    2    1    2    0    0 -0.98137876449E+02 -0.97251357666E+02 -0.10371687964E+03  0.21329484689E+03  0.12509448920E+03 0.  0.
          5    1    3    3  502    0 -0.64639702143E+02 -0.11738172385E+03 -0.42679645270E+02  0.14069749361E+03  0.41800000000E+01 0.  1.
         -5    1    3    3    0  502 -0.33498174306E+02  0.20130366183E+02 -0.61037234374E+02  0.72597353288E+02  0.41800000000E+01 0.  1.
        -11    1    1    2    0    0  0.57022267765E+02  0.21085116472E+02 -0.11859104666E+02  0.61941581520E+02  0.00000000000E+00 0.  1.
         11    1    1    2    0    0  0.41115608684E+02  0.76166241194E+02 -0.11572865347E+03  0.14451612647E+03  0.00000000000E+00 0. -1.
</event>
<event>
 7    1  0.2899775E-009  0.1015000E+03  0.7561462E-02  0.1277173E+00
         -2   -1    0    0    0  501 -0.00000000000E+00  0.00000000000E+00  0.43532160774E+02  0.43532160774E+02  0.00000000000E+00 0.  1.
          2   -1    0    0  501    0  0.00000000000E+00 -0.00000000000E+00 -0.37826360832E+03  0.37826360832E+03  0.00000000000E+00 0. -1.
         25    2    1    2    0    0  0.25896770195E+02  0.60753667407E+02 -0.22406294664E+03  0.26497986093E+03  0.12509385210E+03 0.  0.
          5    1    3    3  502    0  0.34985010042E+02 -0.28708368142E+02 -0.42027096253E+02  0.61902104556E+02  0.41800000000E+01 0. -1.
         -5    1    3    3    0  502 -0.90882398467E+01  0.89462035548E+02 -0.18203585039E+03  0.20307775638E+03  0.41800000000E+01 0. -1.
        -11    1    1    2    0    0 -0.25547281581E+02 -0.44786303296E+02 -0.12508843447E+03  0.13529816332E+03  0.00000000000E+00 0. -1.
         11    1    1    2    0    0 -0.34948861475E+00 -0.15967364110E+02  0.14419933568E+02  0.21517744841E+02  0.00000000000E+00 0.  1.
</event>
<event>
 7    1  0.2899775E-009  0.1272327E+03  0.7561462E-02  0.1231621E+00
         -1   -1    0    0    0  501 -0.00000000000E+00  0.00000000000E+00  0.45642677645E+02  0.45642677645E+02  0.00000000000E+00 0.  1.
          1   -1    0    0  501    0  0.00000000000E+00 -0.00000000000E+00 -0.39092755120E+03  0.39092755120E+03  0.00000000000E+00 0. -1.
         25    2    1    2    0    0  0.55132943679E+02  0.51283586375E+02 -0.21694783913E+03  0.26150171181E+03  0.12508849935E+03 0.  0.
          5    1    3    3  502    0  0.51549426461E+02  0.87428606492E+02 -0.19207378981E+03  0.21728073484E+03  0.41800000000E+01 0. -1.
         -5    1    3    3    0  502  0.35835172178E+01 -0.36145020116E+02 -0.24874049314E+02  0.44220976970E+02  0.41800000000E+01 0. -1.
        -11    1    1    2    0    0 -0.19797197475E+02 -0.72468122162E+02 -0.64096680398E+02  0.98751922490E+02  0.00000000000E+00 0.  1.
         11    1    1    2    0    0 -0.35335746204E+02  0.21184535786E+02 -0.64240354029E+02  0.76316594539E+02  0.00000000000E+00 0. -1.
</event>
<event>
 7    1  0.2899775E-009  0.1335000E+03  0.7561462E-02  0.1222353E+00
          2   -1    0    0  501    0  0.00000000000E+00  0.00000000000E+00  0.36824606766E+02  0.36824606766E+02  0.00000000000E+00 0. -1.
         -2   -1    0    0    0  501 -0.00000000000E+00 -0.00000000000E+00 -0.60129318806E+03  0.60129318806E+03  0.00000000000E+00 0.  1.
         25    2    1    2    0    0 -0.51594242196E+02 -0.67187548457E+02 -0.18522300865E+03  0.23902220636E+03  0.12509164521E+03 0.  0.
          5    1    3    3  502    0  0.31994915940E+02  0.60368079050E+01 -0.15969236235E+02  0.36504884627E+02  0.41800000000E+01 0. -1.
         -5    1    3    3    0  502 -0.83589158136E+02 -0.73224356362E+02 -0.16925377242E+03  0.20251732173E+03  0.41800000000E+01 0. -1.
        -11    1    1    2    0    0  0.61699549578E+02  0.83474335654E+02 -0.29603731818E+03  0.31370829266E+03  0.00000000000E+00 0. -1.
         11    1    1    2    0    0 -0.10105307382E+02 -0.16286787196E+02 -0.83208254466E+02  0.85387295810E+02  0.00000000000E+00 0.  1.
</event>
<event>
 7    1  0.2899775E-009  0.1457810E+03  0.7561462E-02  0.1205755E+00
         -1   -1    0    0    0  501 -0.00000000000E+00  0.00000000000E+00  0.12738733822E+03  0.12738733822E+03  0.00000000000E+00 0.  1.
          1   -1    0    0  501    0  0.00000000000E+00 -0.00000000000E+00 -0.17880323898E+03  0.17880323898E+03  0.00000000000E+00 0. -1.
         25    2    1    2    0    0 -0.95801091727E+02 -0.31154427958E+02 -0.58462836323E+02  0.17095037139E+03  0.12513064649E+03 0.  0.
          5    1    3    3  502    0 -0.12437964933E+03 -0.30019981578E+02 -0.61238744555E+02  0.14191248253E+03  0.41800000000E+01 0. -1.
         -5    1    3    3    0  502  0.28578557605E+02 -0.11344463807E+01  0.27759082318E+01  0.29037888868E+02  0.41800000000E+01 0. -1.
        -11    1    1    2    0    0  0.45230336897E+02 -0.30757285394E+02  0.80944288898E+01  0.55292981107E+02  0.00000000000E+00 0. -1.
         11    1    1    2    0    0  0.50570754831E+02  0.61911713353E+02 -0.10474933285E+01  0.79947224697E+02  0.00000000000E+00 0.  1.
</event>
<event>
 7    1  0.2899775E-009  0.1028408E+03  0.7561462E-02  0.1274433E+00
         -4   -1    0    0    0  501 -0.00000000000E+00  0.00000000000E+00  0.10762947703E+03  0.10762947703E+03  0.00000000000E+00 0.  1.
          4   -1    0    0  501    0  0.00000000000E+00 -0.00000000000E+00 -0.14206945459E+03  0.14206945459E+03  0.00000000000E+00 0. -1.
         25    2    1    2    0    0  0.43121066357E+02  0.30158586311E+02  0.67784126967E+01  0.13587559242E+03  0.12508902048E+03 0.  0.
          5    1    3    3  502    0  0.38307755474E+02 -0.30344507742E+02 -0.36563963101E+02  0.61177357554E+02  0.41800000000E+01 0. -1.
         -5    1    3    3    0  502  0.48133108828E+01  0.60503094053E+02  0.43342375797E+02  0.74698234862E+02  0.41800000000E+01 0. -1.
        -11    1    1    2    0    0 -0.17629426110E+02  0.27549647030E+02 -0.38720908538E+02  0.50686176365E+02  0.00000000000E+00 0. -1.
         11    1    1    2    0    0 -0.25491640247E+02 -0.57708233341E+02 -0.24974817187E+01  0.63137162850E+02  0.00000000000E+00 0.  1.
</event>
<event>
 7    1  0.2899775E-009  0.1125476E+03  0.7561462E-02  0.1255923E+00
          2   -1    0    0  501    0  0.00000000000E+00  0.00000000000E+00  0.33566457756E+03  0.33566457756E+03  0.00000000000E+00 0. -1.
         -2   -1    0    0    0  501 -0.00000000000E+00 -0.00000000000E+00 -0.43431990301E+02  0.43431990301E+02  0.00000000000E+00 0.  1.
         25    2    1    2    0    0  0.14132776847E+02 -0.34529305180E+02  0.22246772702E+03  0.25793752997E+03  0.12509145256E+03 0.  0.
          5    1    3    3  502    0  0.62161627721E+02 -0.45509151992E+02  0.16485791182E+03  0.18201855500E+03  0.41800000000E+01 0. -1.
         -5    1    3    3    0  502 -0.48028850874E+02  0.10979846812E+02  0.57609815199E+02  0.75918974965E+02  0.41800000000E+01 0. -1.
        -11    1    1    2    0    0  0.36188571468E+02 -0.21102955942E+01  0.31988258841E+02  0.48345783230E+02  0.00000000000E+00 0. -1.
         11    1    1    2    0    0 -0.50321348316E+02  0.36639600774E+02  0.37776601395E+02  0.72813254660E+02  0.00000000000E+00 0.  1.
</event>
<event>
 7    1  0.3663646E-009  0.7151546E+02  0.7561462E-02  0.1355014E+00
         -2   -1    0    0    0  501 -0.00000000000E+00  0.00000000000E+00  0.19944408298E+03  0.19944408298E+03  0.00000000000E+00 0.  1.
          2   -1    0    0  501    0  0.00000000000E+00 -0.00000000000E+00 -0.62264171807E+02  0.62264171807E+02  0.00000000000E+00 0. -1.
         25    2    1    2    0    0 -0.14582411177E+02 -0.57527063255E+01  0.53754655162E+02  0.13705102931E+03  0.12509069245E+03 0.  0.
          5    1    3    3  502    0 -0.42829633173E+02 -0.11994816255E+02  0.83906035900E+02  0.95057605457E+02  0.41800000000E+01 0.  1.
         -5    1    3    3    0  502  0.28247221996E+02  0.62421099298E+01 -0.30151380738E+02  0.41993423858E+02  0.41800000000E+01 0.  1.
        -11    1    1    2    0    0  0.22926833746E+02  0.33252573558E+02  0.44727431248E+01  0.40637160148E+02  0.00000000000E+00 0.  1.
         11    1    1    2    0    0 -0.83444225695E+01 -0.27499867233E+02  0.78952512889E+02  0.84020065325E+02  0.00000000000E+00 0. -1.
</event>
<event>
 7    1  0.2899775E-009  0.2120175E+03  0.7561462E-02  0.1139978E+00
         -3   -1    0    0    0  501 -0.00000000000E+00  0.00000000000E+00  0.26134059654E+03  0.26134059654E+03  0.00000000000E+00 0.  1.
          3   -1    0    0  501    0  0.00000000000E+00 -0.00000000000E+00 -0.19772526411E+03  0.19772526411E+03  0.00000000000E+00 0. -1.
         25    2    1    2    0    0  0.10429572476E+03  0.16737897550E+03  0.27216100333E+02  0.23511914944E+03  0.12508788380E+03 0.  0.
          5    1    3    3  502    0  0.16050442565E+02  0.10276699867E+03  0.60900303838E+02  0.12060262074E+03  0.41800000000E+01 0. -1.
         -5    1    3    3    0  502  0.88245282194E+02  0.64611976828E+02 -0.33684203506E+02  0.11451652870E+03  0.41800000000E+01 0. -1.
        -11    1    1    2    0    0 -0.16386066216E+02 -0.95605755670E+02 -0.17075565239E+02  0.98491312366E+02  0.00000000000E+00 0. -1.
         11    1    1    2    0    0 -0.87909658543E+02 -0.71773219830E+02  0.53474797337E+02  0.12545539885E+03  0.00000000000E+00 0.  1.
</event>
<event>
 7    1  0.2899775E-009  0.1503644E+03  0.7561462E-02  0.1200026E+00
         -2   -1    0    0    0  501 -0.00000000000E+00  0.00000000000E+00  0.16282960670E+03  0.16282960670E+03  0.00000000000E+00 0.  1.
          2   -1    0    0  501    0  0.00000000000E+00 -0.00000000000E+00 -0.18392613575E+03  0.18392613575E+03  0.00000000000E+00 0. -1.
         25    2    1    2    0    0  0.12175106520E+03  0.38534592594E+02 -0.50184322603E+02  0.18567532532E+03  0.12509445828E+03 0.  0.
          5    1    3    3  502    0  0.10545666321E+03  0.62607160626E+02 -0.77854346182E+02  0.14532562058E+03  0.41800000000E+01 0. -1.
         -5    1    3    3    0  502  0.16294401992E+02 -0.24072568032E+02  0.27670023579E+02  0.40349704742E+02  0.41800000000E+01 0. -1.
        -11    1    1    2    0    0 -0.13133098546E+02 -0.37812863636E+02  0.33753065106E+02  0.52359911553E+02  0.00000000000E+00 0.  1.
         11    1    1    2    0    0 -0.10861796666E+03 -0.72172895778E+00 -0.46652715609E+01  0.10872050557E+03  0.00000000000E+00 0. -1.
</event>
<event>
 7    1  0.2899775E-009  0.1126376E+03  0.7561462E-02  0.1255762E+00
          2   -1    0    0  501    0  0.00000000000E+00  0.00000000000E+00  0.76577494849E+02  0.76577494849E+02  0.00000000000E+00 0. -1.
         -2   -1    0    0    0  501 -0.00000000000E+00 -0.00000000000E+00 -0.19763616760E+03  0.19763616760E+03  0.00000000000E+00 0.  1.
         25    2    1    2    0    0  0.41220988544E+02 -0.12878687155E+02 -0.24062797687E+02  0.13451348874E+03  0.12509928034E+03 0.  0.
          5    1    3    3  502    0 -0.39266313893E+02 -0.29289864060E+02 -0.16746940133E+02  0.51939117697E+02  0.41800000000E+01 0.  1.
         -5    1    3    3    0  502  0.80487302437E+02  0.16411176905E+02 -0.73158575542E+01  0.82574371040E+02  0.41800000000E+01 0.  1.
        -11    1    1    2    0    0 -0.15039809001E+02 -0.35665034253E+02 -0.16395791133E+02  0.42035847677E+02  0.00000000000E+00 0. -1.
         11    1    1    2    0    0 -0.26181179543E+02  0.48543721407E+02 -0.80600083934E+02  0.97664326038E+02  0.00000000000E+00 0.  1.
</event>
<event>
 7    1  0.2899775E-009  0.1105636E+03  0.7561462E-02  0.1259530E+00
          1   -1    0    0  501    0  0.00000000000E+00  0.00000000000E+00  0.97192929446E+03  0.97192929446E+03  0.00000000000E+00 0. -1.
         -1   -1    0    0    0  501 -0.00000000000E+00 -0.00000000000E+00 -0.15225251976E+02  0.15225251976E+02  0.00000000000E+00 0.  1.
         25    2    1    2    0    0  0.11112464732E+02  0.52928773368E+02  0.68859405286E+03  0.70195008063E+03  0.12508878498E+03 0.  0.
          5    1    3    3  502    0 -0.15875320843E+02  0.84944649451E+02  0.56005410729E+03  0.56669718084E+03  0.41800000000E+01 0. -1.
         -5    1    3    3    0  502  0.26987785575E+02 -0.32015876084E+02  0.12853994557E+03  0.13525289978E+03  0.41800000000E+01 0. -1.
        -11    1    1    2    0    0  0.21131114398E+02 -0.56276186966E+02  0.21246933731E+03  0.22080931256E+03  0.00000000000E+00 0. -1.
         11    1    1    2    0    0 -0.32243579130E+02  0.33474135979E+01  0.55640652304E+02  0.64395153247E+02  0.00000000000E+00 0.  1.
</event>
<event>
 7    1  0.2899775E-009  0.9801992E+02  0.7561462E-02  0.1284516E+00
         -1   -1    0    0    0  501 -0.00000000000E+00  0.00000000000E+00  0.23606637833E+02  0.23606637833E+02  0.00000000000E+00 0.  1.
          1   -1    0    0  501    0  0.00000000000E+00 -0.00000000000E+00 -0.80826870112E+03  0.80826870112E+03  0.00000000000E+00 0. -1.
         25    2    1    2    0    0 -0.55904761282E+02  0.40612218489E+02 -0.28407648576E+03  0.31800102983E+03  0.12510200072E+03 0.  0.
          5    1    3    3  502    0 -0.30316526979E+02  0.53926186685E+02 -0.43683283062E+02  0.75847393083E+02  0.41800000000E+01 0. -1.
         -5    1    3    3    0  502 -0.25588234303E+02 -0.13313968196E+02 -0.24039320270E+03  0.24215363674E+03  0.41800000000E+01 0. -1.
        -11    1    1    2    0    0 -0.10792756306E+02  0.14702529713E+02 -0.28039287713E+02  0.33449209619E+02  0.00000000000E+00 0.  1.
         11    1    1    2    0    0  0.66697517588E+02 -0.55314748202E+02 -0.47254628981E+03  0.48042509951E+03  0.00000000000E+00 0. -1.
</event>
<event>
 7    1  0.2899775E-009  0.1331405E+03  0.7561462E-02  0.1222869E+00
         -1   -1    0    0    0  501 -0.00000000000E+00  0.00000000000E+00  0.66371117818E+02  0.66371117818E+02  0.00000000000E+00 0.  1.
          1   -1    0    0  501    0  0.00000000000E+00 -0.00000000000E+00 -0.48915380449E+03  0.48915380449E+03  0.00000000000E+00 0. -1.
         25    2    1    2    0    0 -0.58831136533E+02  0.77217753020E+02 -0.61722366574E+02  0.16994114787E+03  0.12508660678E+03 0.  0.
          5    1    3    3  502    0  0.17811301084E+01  0.86904752628E+02 -0.64945412123E+01  0.87265456622E+02  0.41800000000E+01 0. -1.
         -5    1    3    3    0  502 -0.60612266641E+02 -0.96869996082E+01 -0.55227825362E+02  0.82675691246E+02  0.41800000000E+01 0. -1.
        -11    1    1    2    0    0  0.63599251173E+01 -0.63068517030E+02 -0.28584761406E+03  0.29279164085E+03  0.00000000000E+00 0. -1.
         11    1    1    2    0    0  0.52471211416E+02 -0.14149235990E+02 -0.75212706038E+02  0.92792133590E+02  0.00000000000E+00 0.  1.
</event>
<event>
 7    1  0.2899775E-009  0.1552934E+03  0.7561462E-02  0.1194115E+00
          1   -1    0    0  501    0  0.00000000000E+00  0.00000000000E+00  0.56067542869E+03  0.56067542869E+03  0.00000000000E+00 0. -1.
         -1   -1    0    0    0  501 -0.00000000000E+00 -0.00000000000E+00 -0.89683536179E+02  0.89683536179E+02  0.00000000000E+00 0.  1.
         25    2    1    2    0    0 -0.10997582631E+03  0.15946987277E+02  0.10341011547E+02  0.16764017141E+03  0.12508917529E+03 0.  0.
          5    1    3    3  502    0 -0.37826553737E+02  0.67704527541E+02 -0.31434354843E+01  0.77730977119E+02  0.41800000000E+01 0. -1.
         -5    1    3    3    0  502 -0.72149272575E+02 -0.51757540263E+02  0.13484447031E+02  0.89909194296E+02  0.41800000000E+01 0. -1.
        -11    1    1    2    0    0 -0.11097637623E+02  0.15380703579E+02  0.71043941216E+02  0.73532069105E+02  0.00000000000E+00 0.  1.
         11    1    1    2    0    0  0.12107346394E+03 -0.31327690856E+02  0.38960693975E+03  0.40918672435E+03  0.00000000000E+00 0. -1.
</event>
<event>
 7    1  0.2899775E-009  0.1175570E+03  0.7561462E-02  0.1247182E+00
          2   -1    0    0  501    0  0.00000000000E+00  0.00000000000E+00  0.53408077478E+03  0.53408077478E+03  0.00000000000E+00 0. -1.
         -2   -1    0    0    0  501 -0.00000000000E+00 -0.00000000000E+00 -0.33059585517E+02  0.33059585517E+02  0.00000000000E+00 0.  1.
         25    2    1    2    0    0 -0.29565540879E+02 -0.64547339738E+02  0.33258242232E+03  0.36235152245E+03  0.12508828048E+03 0.  0.
          5    1    3    3  502    0  0.23051872192E+02  0.24196035761E+02  0.13822681787E+03  0.14227073676E+03  0.41800000000E+01 0. -1.
         -5    1    3    3    0  502 -0.52617413072E+02 -0.88743375499E+02  0.19435560444E+03  0.22008078569E+03  0.41800000000E+01 0. -1.
        -11    1    1    2    0    0 -0.15850682232E+02 -0.36298768855E+01 -0.13031675067E+01  0.16313135167E+02  0.00000000000E+00 0.  1.
         11    1    1    2    0    0  0.45416223112E+02  0.68177216624E+02  0.16974193445E+03  0.18847570268E+03  0.00000000000E+00 0. -1.
</event>
<event>
 7    1  0.2899775E-009  0.2452880E+03  0.7561462E-02  0.1116319E+00
          1   -1    0    0  501    0  0.00000000000E+00  0.00000000000E+00  0.43064948698E+03  0.43064948698E+03  0.00000000000E+00 0. -1.
         -1   -1    0    0    0  501 -0.00000000000E+00 -0.00000000000E+00 -0.15460265904E+03  0.15460265904E+03  0.00000000000E+00 0.  1.
         25    2    1    2    0    0 -0.85780453015E+01  0.22963183274E+03  0.19183739815E+03  0.32442268245E+03  0.12507648894E+03 0.  0.
          5    1    3    3  502    0 -0.53230193032E+02  0.45298249654E+02  0.35023711043E+02  0.78291235826E+02  0.41800000000E+01 0. -1.
         -5    1    3    3    0  502  0.44652147731E+02  0.18433358308E+03  0.15681368711E+03  0.24613144662E+03  0.41800000000E+01 0. -1.
        -11    1    1    2    0    0  0.14934281105E+02 -0.10565695215E+03 -0.67707934746E+01  0.10692178419E+03  0.00000000000E+00 0. -1.
         11    1    1    2    0    0 -0.63562358031E+01 -0.12397488058E+03  0.90980223261E+02  0.15390767939E+03  0.00000000000E+00 0.  1.
</event>
<event>
 7    1  0.2899775E-009  0.8550731E+02  0.7561462E-02  0.1314111E+00
         -3   -1    0    0    0  501 -0.00000000000E+00  0.00000000000E+00  0.10807433370E+03  0.10807433370E+03  0.00000000000E+00 0.  1.
          3   -1    0    0  501    0  0.00000000000E+00 -0.00000000000E+00 -0.14300569616E+03  0.14300569616E+03  0.00000000000E+00 0. -1.
         25    2    1    2    0    0 -0.18162351286E+02  0.58510583804E+02 -0.14445783910E+02  0.14003820480E+03  0.12509459904E+03 0.  0.
          5    1    3    3  502    0  0.93733915315E+01  0.11760156229E+02 -0.64341768592E+02  0.66207985387E+02  0.41800000000E+01 0.  1.
         -5    1    3    3    0  502 -0.27535742818E+02  0.46750427574E+02  0.49895984683E+02  0.73830219412E+02  0.41800000000E+01 0.  1.
        -11    1    1    2    0    0 -0.26088758121E+02  0.18388614419E+01  0.12824549225E+02  0.29128573163E+02  0.00000000000E+00 0.  1.
         11    1    1    2    0    0  0.44251109407E+02 -0.60349445245E+02 -0.33310127772E+02  0.81913251903E+02  0.00000000000E+00 0. -1.
</event>
<event>
 7    1  0.2899775E-009  0.6617604E+02  0.7561462E-02  0.1373602E+00
          2   -1    0    0  501    0  0.00000000000E+00  0.00000000000E+00  0.13690124280E+03  0.13690124280E+03  0.00000000000E+00 0. -1.
         -2   -1    0    0    0  501 -0.00000000000E+00 -0.00000000000E+00 -0.15719412962E+03  0.15719412962E+03  0.00000000000E+00 0.  1.
         25    2    1    2    0    0 -0.24389224153E+02  0.16942667839E+02 -0.10564109485E+03  0.16640174910E+03  0.12509041903E+03 0.  0.
          5    1    3    3  502    0  0.11380501912E+02  0.17995035220E+02 -0.12405642908E+03  0.12593969633E+03  0.41800000000E+01 0.  1.
         -5    1    3    3    0  502 -0.35769726064E+02 -0.10523673804E+01  0.18415334226E+02  0.40462052771E+02  0.41800000000E+01 0.  1.
        -11    1    1    2    0    0  0.47529829459E+02 -0.30340013528E+01  0.11401536895E+02  0.48972287022E+02  0.00000000000E+00 0.  1.
         11    1    1    2    0    0 -0.23140605307E+02 -0.13908666487E+02  0.73946671136E+02  0.78721336304E+02  0.00000000000E+00 0. -1.
</event>
<event>
 7    1  0.2899775E-009  0.5007799E+02  0.7561462E-02  0.1444921E+00
          2   -1    0    0  501    0  0.00000000000E+00  0.00000000000E+00  0.11050572792E+03  0.11050572792E+03  0.00000000000E+00 0. -1.
         -2   -1    0    0    0  501 -0.00000000000E+00 -0.00000000000E+00 -0.18022001325E+03  0.18022001325E+03  0.00000000000E+00 0.  1.
         25    2    1    2    0    0 -0.33271599211E+02  0.29309687658E+01 -0.12476158335E+03  0.17979915845E+03  0.12508674912E+03 0.  0.
          5    1    3    3  502    0 -0.95688185724E+01 -0.14703449949E+01 -0.14661462393E+03  0.14699334867E+03  0.41800000000E+01 0. -1.
         -5    1    3    3    0  502 -0.23702780639E+02  0.44013137607E+01  0.21853040577E+02  0.32805809779E+02  0.41800000000E+01 0. -1.
        -11    1    1    2    0    0  0.47475510956E+02 -0.11102759116E+02 -0.46908677760E+01  0.48981625545E+02  0.00000000000E+00 0.  1.
         11    1    1    2    0    0 -0.14203911745E+02  0.81717903499E+01  0.59738165794E+02  0.61944957170E+02  0.00000000000E+00 0. -1.
</event>
<event>
 7    1  0.2899775E-009  0.1128513E+03  0.7561462E-02  0.1255379E+00
         -1   -1    0    0    0  501 -0.00000000000E+00  0.00000000000E+00  0.60267307899E+02  0.60267307899E+02  0.00000000000E+00 0.  1.
          1   -1    0    0  501    0  0.00000000000E+00 -0.00000000000E+00 -0.27483961879E+03  0.27483961879E+03  0.00000000000E+00 0. -1.
         25    2    1    2    0    0  0.43726871972E+02 -0.28927348017E+02 -0.59224367000E+02  0.14800233253E+03  0.12509330115E+03 0.  0.
          5    1    3    3  502    0 -0.23151982416E+02  0.26460770109E+02  0.10088361559E+02  0.36816220385E+02  0.41800000000E+01 0. -1.
         -5    1    3    3    0  502  0.66878854388E+02 -0.55388118125E+02 -0.69312728559E+02  0.11118611215E+03  0.41800000000E+01 0. -1.
        -11    1    1    2    0    0  0.10752717103E+02  0.45230828301E+02 -0.57638199008E+02  0.74051406055E+02  0.00000000000E+00 0.  1.
         11    1    1    2    0    0 -0.54479589075E+02 -0.16303480284E+02 -0.97709744886E+02  0.11305318811E+03  0.00000000000E+00 0. -1.
</event>
<event>
 7    1  0.2899775E-009  0.1149410E+03  0.7561462E-02  0.1251684E+00
         -2   -1    0    0    0  501 -0.00000000000E+00  0.00000000000E+00  0.22001385693E+02  0.22001385693E+02  0.00000000000E+00 0. -1.
          2   -1    0    0  501    0  0.00000000000E+00 -0.00000000000E+00 -0.76076902430E+03  0.76076902430E+03  0.00000000000E+00 0.  1.
         25    2    1    2    0    0  0.39967921842E+02 -0.58096127211E+02 -0.43115714736E+03  0.45443972375E+03  0.12508549888E+03 0.  0.
          5    1    3    3  502    0  0.84591374330E+02 -0.33132948582E+02 -0.30437284797E+03  0.31766931843E+03  0.41800000000E+01 0.  1.
         -5    1    3    3    0  502 -0.44623452488E+02 -0.24963178629E+02 -0.12678429940E+03  0.13677040533E+03  0.41800000000E+01 0.  1.
        -11    1    1    2    0    0 -0.12760712499E+02  0.59048345146E+02 -0.28925649335E+03  0.29549765108E+03  0.00000000000E+00 0.  1.
         11    1    1    2    0    0 -0.27207209343E+02 -0.95221793501E+00 -0.18353997898E+02  0.32833035164E+02  0.00000000000E+00 0. -1.
</event>
<event>
 7    1  0.2899775E-009  0.1566683E+03  0.7561462E-02  0.1192510E+00
          2   -1    0    0  501    0  0.00000000000E+00  0.00000000000E+00  0.18193515456E+03  0.18193515456E+03  0.00000000000E+00 0. -1.
         -2   -1    0    0    0  501 -0.00000000000E+00 -0.00000000000E+00 -0.16796226604E+03  0.16796226604E+03  0.00000000000E+00 0.  1.
         25    2    1    2    0    0 -0.14613198382E+02 -0.12825813005E+03 -0.37693349895E+02  0.18366303251E+03  0.12509047683E+03 0.  0.
          5    1    3    3  502    0  0.49367164655E+02 -0.32694531930E+02 -0.34250210024E+02  0.68531734626E+02  0.41800000000E+01 0.  1.
         -5    1    3    3    0  502 -0.63980363037E+02 -0.95563598123E+02 -0.34431398707E+01  0.11513129788E+03  0.41800000000E+01 0.  1.
        -11    1    1    2    0    0 -0.13474746692E+02  0.85959989122E+01 -0.18702785085E+02  0.24601913862E+02  0.00000000000E+00 0.  1.
         11    1    1    2    0    0  0.28087945074E+02  0.11966213114E+03  0.70369023501E+02  0.14163247423E+03  0.00000000000E+00 0. -1.
</event>
<event>
 7    1  0.2899775E-009  0.9328201E+02  0.7561462E-02  0.1295093E+00
          1   -1    0    0  501    0  0.00000000000E+00  0.00000000000E+00  0.57909972683E+02  0.57909972683E+02  0.00000000000E+00 0. -1.
         -1   -1    0    0    0  501 -0.00000000000E+00 -0.00000000000E+00 -0.21575360666E+03  0.21575360666E+03  0.00000000000E+00 0.  1.
         25    2    1    2    0    0  0.23522699975E+02 -0.78864884254E+01 -0.84201884791E+02  0.15282147010E+03  0.12509568421E+03 0.  0.
          5    1    3    3  502    0 -0.35791748508E+02  0.34275146767E+02 -0.14105772823E+02  0.51694101927E+02  0.41800000000E+01 0. -1.
         -5    1    3    3    0  502  0.59314448483E+02 -0.42161635192E+02 -0.70096111968E+02  0.10112736818E+03  0.41800000000E+01 0. -1.
        -11    1    1    2    0    0  0.19174037019E+02  0.91033939869E+01  0.12542115382E+02  0.24654008517E+02  0.00000000000E+00 0. -1.
         11    1    1    2    0    0 -0.42696736994E+02 -0.12169055615E+01 -0.86183864566E+02  0.96188100723E+02  0.00000000000E+00 0.  1.
</event>
<event>
 7    1  0.2899775E-009  0.1249444E+03  0.7561462E-02  0.1235156E+00
          1   -1    0    0  501    0  0.00000000000E+00  0.00000000000E+00  0.33854501949E+02  0.33854501949E+02  0.00000000000E+00 0. -1.
         -1   -1    0    0    0  501 -0.00000000000E+00 -0.00000000000E+00 -0.54357538206E+03  0.54357538206E+03  0.00000000000E+00 0.  1.
         25    2    1    2    0    0  0.64148665003E+02  0.21396690063E+02 -0.38391127316E+03  0.40940024822E+03  0.12509127875E+03 0.  0.
          5    1    3    3  502    0 -0.14230801849E+01  0.62915935266E+02 -0.14381841118E+03  0.15704027465E+03  0.41800000000E+01 0. -1.
         -5    1    3    3    0  502  0.65571745188E+02 -0.41519245203E+02 -0.24009286198E+03  0.25235997358E+03  0.41800000000E+01 0. -1.
        -11    1    1    2    0    0  0.16559504315E+02  0.13304838301E+02 -0.12482247376E+02  0.24638230556E+02  0.00000000000E+00 0.  1.
         11    1    1    2    0    0 -0.80708169317E+02 -0.34701528365E+02 -0.11332735958E+03  0.14339140523E+03  0.00000000000E+00 0. -1.
</event>
<event>
 7    1  0.2899775E-009  0.5240366E+03  0.7561462E-02  0.1007689E+00
          1   -1    0    0  501    0  0.00000000000E+00  0.00000000000E+00  0.24519835389E+03  0.24519835389E+03  0.00000000000E+00 0. -1.
         -1   -1    0    0    0  501 -0.00000000000E+00 -0.00000000000E+00 -0.12950876426E+04  0.12950876426E+04  0.00000000000E+00 0.  1.
         25    2    1    2    0    0  0.51299102323E+02 -0.51520363462E+03 -0.26335973055E+03  0.59419832773E+03  0.12508765715E+03 0.  0.
          5    1    3    3  502    0 -0.17730607565E+02 -0.38774806188E+02  0.48348377208E+01  0.43112737043E+02  0.41800000000E+01 0.  1.
         -5    1    3    3    0  502  0.69029709888E+02 -0.47642882843E+03 -0.26819456827E+03  0.55108559068E+03  0.41800000000E+01 0.  1.
        -11    1    1    2    0    0 -0.18153656793E+02  0.45268648558E+03 -0.70626507388E+03  0.83908579064E+03  0.00000000000E+00 0.  1.
         11    1    1    2    0    0 -0.33145445531E+02  0.62517149040E+02 -0.80264484294E+02  0.10700187813E+03  0.00000000000E+00 0. -1.
</event>
<event>
 7    1  0.3261622E-009  0.1734863E+03  0.7561462E-02  0.1174260E+00
         -1   -1    0    0    0  501 -0.00000000000E+00  0.00000000000E+00  0.20542872833E+03  0.20542872833E+03  0.00000000000E+00 0.  1.
          1   -1    0    0  501    0  0.00000000000E+00 -0.00000000000E+00 -0.16724586763E+03  0.16724586763E+03  0.00000000000E+00 0. -1.
         25    2    1    2    0    0  0.40113529521E+02  0.14310986450E+03 -0.19003426662E+01  0.19426973657E+03  0.12509033006E+03 0.  0.
          5    1    3    3  502    0 -0.39718619858E+02  0.89452970734E+02  0.34472335787E+00  0.97964248432E+02  0.41800000000E+01 0.  1.
         -5    1    3    3    0  502  0.79832149379E+02  0.53656893769E+02 -0.22450660241E+01  0.96305488135E+02  0.41800000000E+01 0.  1.
        -11    1    1    2    0    0 -0.16342980972E+01 -0.70801267077E+02  0.61439823282E+02  0.93756825004E+02  0.00000000000E+00 0.  1.
         11    1    1    2    0    0 -0.38479231424E+02 -0.72308597426E+02 -0.21356619913E+02  0.84648034394E+02  0.00000000000E+00 0. -1.
</event>
<event>
 7    1  0.2899775E-009  0.7423686E+02  0.7561462E-02  0.1346251E+00
         -2   -1    0    0    0  501 -0.00000000000E+00  0.00000000000E+00  0.20843283567E+02  0.20843283567E+02  0.00000000000E+00 0.  1.
          2   -1    0    0  501    0  0.00000000000E+00 -0.00000000000E+00 -0.13131314374E+04  0.13131314374E+04  0.00000000000E+00 0. -1.
         25    2    1    2    0    0 -0.62753999919E+02  0.17585549128E+02 -0.11195590395E+04  0.11284089711E+04  0.12508815780E+03 0.  0.
          5    1    3    3  502    0 -0.37499618746E+02  0.28154816679E+02 -0.12670201600E+03  0.13516578105E+03  0.41800000000E+01 0. -1.
         -5    1    3    3    0  502 -0.25254381173E+02 -0.10569267551E+02 -0.99285702347E+03  0.99324319008E+03  0.41800000000E+01 0. -1.
        -11    1    1    2    0    0  0.27212732377E+02 -0.25495602442E+02 -0.97152182008E+01  0.38534971286E+02  0.00000000000E+00 0.  1.
         11    1    1    2    0    0  0.35541267542E+02  0.79100533136E+01 -0.16301389617E+03  0.16703077856E+03  0.00000000000E+00 0. -1.
</event>
<event>
 7    1  0.2899775E-009  0.1103942E+03  0.7561462E-02  0.1259842E+00
          2   -1    0    0  501    0  0.00000000000E+00  0.00000000000E+00  0.86539930065E+03  0.86539930065E+03  0.00000000000E+00 0. -1.
         -2   -1    0    0    0  501 -0.00000000000E+00 -0.00000000000E+00 -0.24323596319E+02  0.24323596319E+02  0.00000000000E+00 0.  1.
         25    2    1    2    0    0 -0.73375309700E+02  0.47716984097E+02  0.58180811060E+03  0.60151093187E+03  0.12511545448E+03 0.  0.
          5    1    3    3  502    0 -0.35256299935E+02  0.44533719197E+02  0.54595325683E+03  0.54891592241E+03  0.41800000000E+01 0.  1.
         -5    1    3    3    0  502 -0.38119009765E+02  0.31832649004E+01  0.35854853769E+02  0.52595009456E+02  0.41800000000E+01 0.  1.
        -11    1    1    2    0    0  0.91424002693E+02 -0.22166282456E+02  0.18260316205E+03  0.20541082526E+03  0.00000000000E+00 0.  1.
         11    1    1    2    0    0 -0.18048692993E+02 -0.25550701642E+02  0.76664431684E+02  0.82801139838E+02  0.00000000000E+00 0. -1.
</event>
<event>
 7    1  0.2899775E-009  0.1416443E+03  0.7561462E-02  0.1211133E+00
          1   -1    0    0  501    0  0.00000000000E+00  0.00000000000E+00  0.58234891145E+03  0.58234891145E+03  0.00000000000E+00 0. -1.
         -1   -1    0    0    0  501 -0.00000000000E+00 -0.00000000000E+00 -0.53847270053E+02  0.53847270053E+02  0.00000000000E+00 0.  1.
         25    2    1    2    0    0  0.11406716325E+03 -0.43525184961E+01  0.13564117017E+03  0.21697445827E+03  0.12509646817E+03 0.  0.
          5    1    3    3  502    0  0.55609325449E+02  0.48540647303E+02  0.11265754199E+03  0.13475082814E+03  0.41800000000E+01 0. -1.
         -5    1    3    3    0  502  0.58457837797E+02 -0.52893165799E+02  0.22983628183E+02  0.82223630135E+02  0.41800000000E+01 0. -1.
        -11    1    1    2    0    0 -0.24973656974E+02  0.28704804846E+02  0.21968513513E+03  0.22295561881E+03  0.00000000000E+00 0. -1.
         11    1    1    2    0    0 -0.89093506271E+02 -0.24352286350E+02  0.17317533611E+03  0.19626610442E+03  0.00000000000E+00 0.  1.
</event>
<event>
 7    1  0.3108133E-009  0.1513501E+03  0.7561462E-02  0.1198824E+00
          2   -1    0    0  501    0  0.00000000000E+00  0.00000000000E+00  0.41885556389E+03  0.41885556389E+03  0.00000000000E+00 0.  1.
         -2   -1    0    0    0  501 -0.00000000000E+00 -0.00000000000E+00 -0.59941574847E+02  0.59941574847E+02  0.00000000000E+00 0. -1.
         25    2    1    2    0    0 -0.96858869578E+02 -0.56041799292E+02  0.15185065730E+03  0.22633316492E+03  0.12508299460E+03 0.  0.
          5    1    3    3  502    0 -0.12192355143E+03 -0.34532477394E+02  0.14450179313E+03  0.19223965513E+03  0.41800000000E+01 0. -1.
         -5    1    3    3    0  502  0.25064681853E+02 -0.21509321898E+02  0.73488641679E+01  0.34093509785E+02  0.41800000000E+01 0. -1.
        -11    1    1    2    0    0  0.82831630827E+02 -0.20513824242E+01  0.10015788773E+03  0.12998803679E+03  0.00000000000E+00 0. -1.
         11    1    1    2    0    0  0.14027238752E+02  0.58093181716E+02  0.10690544402E+03  0.12247593702E+03  0.00000000000E+00 0.  1.
</event>
<event>
 7    1  0.2899775E-009  0.8118037E+02  0.7561462E-02  0.1325735E+00
         -1   -1    0    0    0  501 -0.00000000000E+00  0.00000000000E+00  0.51417124236E+03  0.51417124236E+03  0.00000000000E+00 0.  1.
          1   -1    0    0  501    0  0.00000000000E+00 -0.00000000000E+00 -0.50121209033E+02  0.50121209033E+02  0.00000000000E+00 0. -1.
         25    2    1    2    0    0  0.51555824579E+02  0.56135771712E+02  0.40516175825E+03  0.43082805527E+03  0.12509010731E+03 0.  0.
          5    1    3    3  502    0  0.11723339058E+02  0.11776828992E+02  0.34703641679E+03  0.34745917365E+03  0.41800000000E+01 0.  1.
         -5    1    3    3    0  502  0.39832485521E+02  0.44358942720E+02  0.58125341460E+02  0.83368881615E+02  0.41800000000E+01 0.  1.
        -11    1    1    2    0    0 -0.49491926092E+02 -0.27242378928E+02  0.79774608909E+02  0.97752678657E+02  0.00000000000E+00 0.  1.
         11    1    1    2    0    0 -0.20638984873E+01 -0.28893392784E+02 -0.20886333830E+02  0.35711717466E+02  0.00000000000E+00 0. -1.
</event>
<event>
 7    1  0.2899775E-009  0.1070519E+03  0.7561462E-02  0.1266129E+00
         -1   -1    0    0    0  501 -0.00000000000E+00  0.00000000000E+00  0.24561504663E+02  0.24561504663E+02  0.00000000000E+00 0.  1.
          1   -1    0    0  501    0  0.00000000000E+00 -0.00000000000E+00 -0.74909269913E+03  0.74909269913E+03  0.00000000000E+00 0. -1.
         25    2    1    2    0    0 -0.69284336248E+02  0.13984681089E+02 -0.53408523056E+03  0.55307505485E+03  0.12509633182E+03 0.  0.
          5    1    3    3  502    0 -0.17165545362E+02  0.42607610694E+02 -0.43502488815E+03  0.43746335863E+03  0.41800000000E+01 0.  1.
         -5    1    3    3    0  502 -0.52118790886E+02 -0.28622929605E+02 -0.99060342413E+02  0.11561169621E+03  0.41800000000E+01 0.  1.
        -11    1    1    2    0    0  0.46680496097E+02  0.32365043924E+02 -0.12465346707E+03  0.13698558916E+03  0.00000000000E+00 0.  1.
         11    1    1    2    0    0  0.22603840151E+02 -0.46349725014E+02 -0.65792496835E+02  0.83593559789E+02  0.00000000000E+00 0. -1.
</event>
<event>
 7    1  0.2899775E-009  0.1937180E+03  0.7561462E-02  0.1155150E+00
         -1   -1    0    0    0  501 -0.00000000000E+00  0.00000000000E+00  0.26837078689E+02  0.26837078689E+02  0.00000000000E+00 0.  1.
          1   -1    0    0  501    0  0.00000000000E+00 -0.00000000000E+00 -0.17083593693E+04  0.17083593693E+04  0.00000000000E+00 0. -1.
         25    2    1    2    0    0 -0.16448598035E+03 -0.73423084130E+02 -0.70817142616E+03  0.74134727817E+03  0.12506970455E+03 0.  0.
          5    1    3    3  502    0 -0.52910797139E+02 -0.59333085527E+02 -0.13088539935E+03  0.15319408492E+03  0.41800000000E+01 0. -1.
         -5    1    3    3    0  502 -0.11157518321E+03 -0.14089998603E+02 -0.57728602682E+03  0.58815319325E+03  0.41800000000E+01 0. -1.
        -11    1    1    2    0    0  0.14057082621E+03  0.27103567267E+02 -0.80437148547E+03  0.81701177909E+03  0.00000000000E+00 0. -1.
         11    1    1    2    0    0  0.23915154143E+02  0.46319516863E+02 -0.16897937895E+03  0.17683739070E+03  0.00000000000E+00 0.  1.
</event>
<event>
 7    1  0.2899775E-009  0.2737351E+03  0.7561462E-02  0.1099161E+00
         -2   -1    0    0    0  501 -0.00000000000E+00  0.00000000000E+00  0.80630073322E+02  0.80630073322E+02  0.00000000000E+00 0. -1.
          2   -1    0    0  501    0  0.00000000000E+00 -0.00000000000E+00 -0.10441604432E+04  0.10441604432E+04  0.00000000000E+00 0.  1.
         25    2    1    2    0    0  0.24708832084E+03 -0.90236475080E+02 -0.38541890428E+03  0.48310490258E+03  0.12508938959E+03 0.  0.
          5    1    3    3  502    0  0.85330742265E+02 -0.12561298135E+01 -0.46833553470E+02  0.97435966502E+02  0.41800000000E+01 0.  1.
         -5    1    3    3    0  502  0.16175757857E+03 -0.88980345266E+02 -0.33858535081E+03  0.38566893608E+03  0.41800000000E+01 0.  1.
        -11    1    1    2    0    0 -0.68716230493E+02 -0.14900448627E+02 -0.12276894164E+03  0.14147846739E+03  0.00000000000E+00 0.  1.
         11    1    1    2    0    0 -0.17837209035E+03  0.10513692371E+03 -0.45534252391E+03  0.50020714651E+03  0.00000000000E+00 0. -1.
</event>
<event>
 7    1  0.2899775E-009  0.6721046E+02  0.7561462E-02  0.1369844E+00
          2   -1    0    0  501    0  0.00000000000E+00  0.00000000000E+00  0.29021475282E+03  0.29021475282E+03  0.00000000000E+00 0. -1.
         -2   -1    0    0    0  501 -0.00000000000E+00 -0.00000000000E+00 -0.47626283823E+02  0.47626283823E+02  0.00000000000E+00 0.  1.
         25    2    1    2    0    0  0.43906910841E+02 -0.80929053705E+01  0.11977881638E+03  0.17884936688E+03  0.12508724652E+03 0.  0.
          5    1    3    3  502    0  0.21469615996E+02  0.11083235660E+02  0.14044952968E+03  0.14257392928E+03  0.41800000000E+01 0. -1.
         -5    1    3    3    0  502  0.22437294845E+02 -0.19176141031E+02 -0.20670713296E+02  0.36275437598E+02  0.41800000000E+01 0. -1.
        -11    1    1    2    0    0  0.17434974836E+02  0.68607255961E+01 -0.30414337507E+01  0.18981523187E+02  0.00000000000E+00 0.  1.
         11    1    1    2    0    0 -0.61341885676E+02  0.12321797744E+01  0.12585108637E+03  0.14001014658E+03  0.00000000000E+00 0. -1.
</event>
<event>
 7    1  0.2899775E-009  0.1949811E+03  0.7561462E-02  0.1154044E+00
         -3   -1    0    0    0  501 -0.00000000000E+00  0.00000000000E+00  0.14459927685E+03  0.14459927685E+03  0.00000000000E+00 0.  1.
          3   -1    0    0  501    0  0.00000000000E+00 -0.00000000000E+00 -0.57220388254E+03  0.57220388254E+03  0.00000000000E+00 0. -1.
         25    2    1    2    0    0  0.46011161317E+02 -0.16791356067E+03 -0.46999589013E+03  0.51658071142E+03  0.12508998299E+03 0.  0.
          5    1    3    3  502    0  0.67420353470E+02 -0.17554188798E+03 -0.44147469733E+03  0.47987273238E+03  0.41800000000E+01 0.  1.
         -5    1    3    3    0  502 -0.21409192152E+02  0.76283273134E+01 -0.28521192805E+02  0.36707979040E+02  0.41800000000E+01 0.  1.
        -11    1    1    2    0    0  0.76421702112E+01  0.19030220590E+02 -0.21357769587E+02  0.29609228003E+02  0.00000000000E+00 0. -1.
         11    1    1    2    0    0 -0.53653331529E+02  0.14888334008E+03  0.63749054037E+02  0.17061321997E+03  0.00000000000E+00 0.  1.
</event>
<event>
 7    1  0.4056295E-009  0.2719718E+03  0.7561462E-02  0.1100156E+00
         -2   -1    0    0    0  501 -0.00000000000E+00  0.00000000000E+00  0.23521831814E+03  0.23521831814E+03  0.00000000000E+00 0.  1.
          2   -1    0    0  501    0  0.00000000000E+00 -0.00000000000E+00 -0.33809457859E+03  0.33809457859E+03  0.00000000000E+00 0. -1.
         25    2    1    2    0    0  0.10730355013E+03 -0.23603880509E+03 -0.72233750581E+02  0.29680457419E+03  0.12508745404E+03 0.  0.
          5    1    3    3  502    0  0.13264307611E+03 -0.19135078307E+03 -0.76439115151E+02  0.24509124535E+03  0.41800000000E+01 0. -1.
         -5    1    3    3    0  502 -0.25339525978E+02 -0.44688022023E+02  0.42053645698E+01  0.51713328846E+02  0.41800000000E+01 0. -1.
        -11    1    1    2    0    0 -0.43475170383E+02  0.10935612332E+03  0.31219983738E+02  0.12175195905E+03  0.00000000000E+00 0.  1.
         11    1    1    2    0    0 -0.63828379751E+02  0.12668268177E+03 -0.61862493607E+02  0.15475636348E+03  0.00000000000E+00 0. -1.
</event>
<event>
 7    1  0.2899775E-009  0.7579280E+02  0.7561462E-02  0.1341433E+00
          2   -1    0    0  501    0  0.00000000000E+00  0.00000000000E+00  0.55541037438E+03  0.55541037438E+03  0.00000000000E+00 0. -1.
         -2   -1    0    0    0  501 -0.00000000000E+00 -0.00000000000E+00 -0.34204930876E+02  0.34204930876E+02  0.00000000000E+00 0.  1.
         25    2    1    2    0    0 -0.20407800847E+02 -0.45169743612E+02  0.43392056400E+03  0.45430396910E+03  0.12509299101E+03 0.  0.
          5    1    3    3  502    0 -0.90423833746E+01  0.27514177513E+00  0.38945010406E+03  0.38957758707E+03  0.41800000000E+01 0. -1.
         -5    1    3    3    0  502 -0.11365417472E+02 -0.45444885387E+02  0.44470459943E+02  0.64726382023E+02  0.41800000000E+01 0. -1.
        -11    1    1    2    0    0 -0.15022959885E+02  0.55649189262E+02  0.24864731931E+02  0.62775604204E+02  0.00000000000E+00 0.  1.
         11    1    1    2    0    0  0.35430760732E+02 -0.10479445649E+02  0.62420147569E+02  0.72535731951E+02  0.00000000000E+00 0. -1.
</event>
<event>
 7    1  0.3039492E-009  0.1386335E+03  0.7561462E-02  0.1215180E+00
         -2   -1    0    0    0  501 -0.00000000000E+00  0.00000000000E+00  0.29007046490E+02  0.29007046490E+02  0.00000000000E+00 0.  1.
          2   -1    0    0  501    0  0.00000000000E+00 -0.00000000000E+00 -0.80428362412E+03  0.80428362412E+03  0.00000000000E+00 0. -1.
         25    2    1    2    0    0 -0.99709409822E+02 -0.19260645935E+01 -0.31152889627E+03  0.35020393831E+03  0.12508744568E+03 0.  0.
          5    1    3    3  502    0 -0.21528616651E+02 -0.48381882535E+02 -0.48739721244E+02  0.72092445648E+02  0.41800000000E+01 0.  1.
         -5    1    3    3    0  502 -0.78180793172E+02  0.46455817941E+02 -0.26278917503E+03  0.27811149267E+03  0.41800000000E+01 0.  1.
        -11    1    1    2    0    0  0.43812270306E+02  0.44800553746E+02 -0.17536363965E+03  0.18622301350E+03  0.00000000000E+00 0.  1.
         11    1    1    2    0    0  0.55897139517E+02 -0.42874489153E+02 -0.28838404171E+03  0.29686371880E+03  0.00000000000E+00 0. -1.
</event>
<event>
 7    1  0.2899775E-009  0.1168520E+03  0.7561462E-02  0.1248383E+00
         -1   -1    0    0    0  501 -0.00000000000E+00  0.00000000000E+00  0.78318726879E+02  0.78318726879E+02  0.00000000000E+00 0.  1.
          1   -1    0    0  501    0  0.00000000000E+00 -0.00000000000E+00 -0.25614254343E+03  0.25614254343E+03  0.00000000000E+00 0. -1.
         25    2    1    2    0    0 -0.53888713052E+02  0.71267648898E+02 -0.11361103820E+03  0.19114975028E+03  0.12509071851E+03 0.  0.
          5    1    3    3  502    0 -0.64805774361E+02  0.76797608602E+02 -0.27766380681E+02  0.10433650068E+03  0.41800000000E+01 0.  1.
         -5    1    3    3    0  502  0.10917061308E+02 -0.55299597037E+01 -0.85844657523E+02  0.86813249606E+02  0.41800000000E+01 0.  1.
        -11    1    1    2    0    0  0.53763965855E+02 -0.50724915189E+01 -0.53934273142E+02  0.76322997936E+02  0.00000000000E+00 0.  1.
         11    1    1    2    0    0  0.12474719752E+00 -0.66195157379E+02 -0.10278505203E+02  0.66988522088E+02  0.00000000000E+00 0. -1.
</event>
<event>
 7    1  0.2899775E-009  0.1362101E+03  0.7561462E-02  0.1218521E+00
          1   -1    0    0  501    0  0.00000000000E+00  0.00000000000E+00  0.10356279871E+03  0.10356279871E+03  0.00000000000E+00 0. -1.
         -1   -1    0    0    0  501 -0.00000000000E+00 -0.00000000000E+00 -0.19389446586E+03  0.19389446586E+03  0.00000000000E+00 0.  1.
         25    2    1    2    0    0 -0.59983613299E+02 -0.64738129015E+02 -0.71455039334E+02  0.16894663879E+03  0.12509230552E+03 0.  0.
          5    1    3    3  502    0  0.27525773893E+02  0.10565547225E+02  0.53016557845E+01  0.30246966304E+02  0.41800000000E+01 0.  1.
         -5    1    3    3    0  502 -0.87509387192E+02 -0.75303676240E+02 -0.76756695119E+02  0.13869967249E+03  0.41800000000E+01 0.  1.
        -11    1    1    2    0    0 -0.15248918477E+02  0.47564053533E+02 -0.75126658181E+01  0.50510482584E+02  0.00000000000E+00 0. -1.
         11    1    1    2    0    0  0.75232531777E+02  0.17174075482E+02 -0.11363962002E+02  0.78000143196E+02  0.00000000000E+00 0.  1.
</event>
<event>
 7    1  0.2899775E-009  0.1432761E+03  0.7561462E-02  0.1208987E+00
          1   -1    0    0  501    0  0.00000000000E+00  0.00000000000E+00  0.10974422710E+04  0.10974422710E+04  0.00000000000E+00 0. -1.
         -1   -1    0    0    0  501 -0.00000000000E+00 -0.00000000000E+00 -0.23047289631E+02  0.23047289631E+02  0.00000000000E+00 0.  1.
         25    2    1    2    0    0  0.82680867946E+02  0.86462870585E+02  0.59290659958E+03  0.61765313896E+03  0.12508081514E+03 0.  0.
          5    1    3    3  502    0  0.10170294465E+03  0.51998395383E+02  0.28273228593E+03  0.30496285016E+03  0.41800000000E+01 0.  1.
         -5    1    3    3    0  502 -0.19022076704E+02  0.34464475201E+02  0.31017431366E+03  0.31269028880E+03  0.41800000000E+01 0.  1.
        -11    1    1    2    0    0 -0.29807251016E+02 -0.71881783510E+02  0.37570949126E+03  0.38368357385E+03  0.00000000000E+00 0.  1.
         11    1    1    2    0    0 -0.52873616930E+02 -0.14581087074E+02  0.10577889057E+03  0.11915284788E+03  0.00000000000E+00 0. -1.
</event>
<event>
 7    1  0.2899775E-009  0.7553699E+02  0.7561462E-02  0.1342216E+00
          2   -1    0    0  501    0  0.00000000000E+00  0.00000000000E+00  0.22501644145E+03  0.22501644145E+03  0.00000000000E+00 0. -1.
         -2   -1    0    0    0  501 -0.00000000000E+00 -0.00000000000E+00 -0.51930194356E+02  0.51930194356E+02  0.00000000000E+00 0.  1.
         25    2    1    2    0    0  0.16893062585E+02 -0.19467465175E+01  0.85357633120E+02  0.15238910994E+03  0.12508936770E+03 0.  0.
          5    1    3    3  502    0  0.28205720813E+02  0.28077298346E+02  0.10647854615E+03  0.11374994751E+03  0.41800000000E+01 0. -1.
         -5    1    3    3    0  502 -0.11312658229E+02 -0.30024044863E+02 -0.21120913028E+02  0.38639162430E+02  0.41800000000E+01 0. -1.
        -11    1    1    2    0    0 -0.30379865680E+02 -0.30814747598E+02  0.19051696884E+02  0.47280567493E+02  0.00000000000E+00 0.  1.
         11    1    1    2    0    0  0.13486803095E+02  0.32761494116E+02  0.68676917087E+02  0.77276958371E+02  0.00000000000E+00 0. -1.
</event>
<event>
 7    1  0.2899775E-009  0.1048986E+03  0.7561462E-02  0.1270320E+00
          2   -1    0    0  501    0  0.00000000000E+00  0.00000000000E+00  0.61784417016E+03  0.61784417016E+03  0.00000000000E+00 0.  1.
         -2   -1    0    0    0  501 -0.00000000000E+00 -0.00000000000E+00 -0.38023170373E+02  0.38023170373E+02  0.00000000000E+00 0. -1.
         25    2    1    2    0    0  0.69716432879E+02 -0.39708914166E+02  0.15971131157E+03  0.21815838716E+03  0.12509276545E+03 0.  0.
          5    1    3    3  502    0  0.60290804365E+02 -0.15517483401E+02  0.65304985751E+01  0.62736697345E+02  0.41800000000E+01 0.  1.
         -5    1    3    3    0  502  0.94256285143E+01 -0.24191430765E+02  0.15318081300E+03  0.15542168982E+03  0.41800000000E+01 0.  1.
        -11    1    1    2    0    0  0.10986695241E+02  0.38873902976E+02  0.10720804947E+03  0.11456637236E+03  0.00000000000E+00 0.  1.
         11    1    1    2    0    0 -0.80703128120E+02  0.83501118922E+00  0.31290163875E+03  0.32314258101E+03  0.00000000000E+00 0. -1.
</event>
<event>
 7    1  0.2899775E-009  0.1090616E+03  0.7561462E-02  0.1262318E+00
         -2   -1    0    0    0  501 -0.00000000000E+00  0.00000000000E+00  0.10714394648E+03  0.10714394648E+03  0.00000000000E+00 0. -1.
          2   -1    0    0  501    0  0.00000000000E+00 -0.00000000000E+00 -0.15063285245E+03  0.15063285245E+03  0.00000000000E+00 0.  1.
         25    2    1    2    0    0  0.29752391743E-02 -0.65541616590E+02 -0.33384173685E+02  0.14511335882E+03  0.12509068846E+03 0.  0.
          5    1    3    3  502    0  0.62034474955E+02 -0.28711629158E+02 -0.22187687110E+02  0.71988885192E+02  0.41800000000E+01 0. -1.
         -5    1    3    3    0  502 -0.62031499716E+02 -0.36829987432E+02 -0.11196486575E+02  0.73124473625E+02  0.41800000000E+01 0. -1.
        -11    1    1    2    0    0  0.20217787675E+02  0.25719294575E+02 -0.45245839059E+02  0.55833923416E+02  0.00000000000E+00 0.  1.
         11    1    1    2    0    0 -0.20220762914E+02  0.39822322015E+02  0.35141106769E+02  0.56829516701E+02  0.00000000000E+00 0. -1.
</event>
<event>
 7    1  0.2899775E-009  0.9743328E+02  0.7561462E-02  0.1285788E+00
         -2   -1    0    0    0  501 -0.00000000000E+00  0.00000000000E+00  0.11584417391E+03  0.11584417391E+03  0.00000000000E+00 0.  1.
          2   -1    0    0  501    0  0.00000000000E+00 -0.00000000000E+00 -0.14966535080E+03  0.14966535080E+03  0.00000000000E+00 0. -1.
         25    2    1    2    0    0 -0.39474957768E+02 -0.62784498048E+02 -0.12203927146E+02  0.14593652811E+03  0.12509344073E+03 0.  0.
          5    1    3    3  502    0 -0.37439425581E+02  0.12030988499E+02  0.38695705180E+02  0.55328882796E+02  0.41800000000E+01 0.  1.
         -5    1    3    3    0  502 -0.20355321871E+01 -0.74815486547E+02 -0.50899632325E+02  0.90607645314E+02  0.41800000000E+01 0.  1.
        -11    1    1    2    0    0  0.43211454548E+02  0.45790496198E+02  0.26572531194E+02  0.68338120842E+02  0.00000000000E+00 0.  1.
         11    1    1    2    0    0 -0.37364967800E+01  0.16994001850E+02 -0.48189780939E+02  0.51234875759E+02  0.00000000000E+00 0. -1.
</event>
<event>
 7    1  0.2899775E-009  0.2270712E+03  0.7561462E-02  0.1128718E+00
          2   -1    0    0  501    0  0.00000000000E+00  0.00000000000E+00  0.57748168695E+03  0.57748168695E+03  0.00000000000E+00 0. -1.
         -2   -1    0    0    0  501 -0.00000000000E+00 -0.00000000000E+00 -0.25837743575E+03  0.25837743575E+03  0.00000000000E+00 0.  1.
         25    2    1    2    0    0  0.13434846526E+03 -0.16763371831E+03  0.48805085480E+03  0.54771518110E+03  0.12509080347E+03 0.  0.
          5    1    3    3  502    0  0.84668612613E+02 -0.30806760444E+02  0.27687055440E+03  0.29119170103E+03  0.41800000000E+01 0. -1.
         -5    1    3    3    0  502  0.49679852643E+02 -0.13682695786E+03  0.21118030039E+03  0.25652348008E+03  0.41800000000E+01 0. -1.
        -11    1    1    2    0    0 -0.77690828327E+01  0.31444078627E+02 -0.70895800690E+02  0.77944231886E+02  0.00000000000E+00 0. -1.
         11    1    1    2    0    0 -0.12657938242E+03  0.13618963968E+03 -0.98050802907E+02  0.21019970971E+03  0.00000000000E+00 0.  1.
</event>
<event>
 7    1  0.2899775E-009  0.1274861E+03  0.7561462E-02  0.1231234E+00
         -2   -1    0    0    0  501 -0.00000000000E+00  0.00000000000E+00  0.27764716729E+02  0.27764716729E+02  0.00000000000E+00 0.  1.
          2   -1    0    0  501    0  0.00000000000E+00 -0.00000000000E+00 -0.61992476193E+03  0.61992476193E+03  0.00000000000E+00 0. -1.
         25    2    1    2    0    0 -0.25662321512E+01  0.72945359063E+02 -0.31434653196E+03  0.34610572159E+03  0.12509123632E+03 0.  0.
          5    1    3    3  502    0 -0.55863530959E+02  0.71596825670E+02 -0.21073123796E+03  0.22950373982E+03  0.41800000000E+01 0.  1.
         -5    1    3    3    0  502  0.53297298808E+02  0.13485333929E+01 -0.10361529400E+03  0.11660198177E+03  0.41800000000E+01 0.  1.
        -11    1    1    2    0    0  0.80915270621E+01 -0.91177101831E+02 -0.25944937323E+03  0.27512308877E+03  0.00000000000E+00 0.  1.
         11    1    1    2    0    0 -0.55252949109E+01  0.18231742768E+02 -0.18364140012E+02  0.26460668295E+02  0.00000000000E+00 0. -1.
</event>
<event>
 7    1  0.2899775E-009  0.1067157E+03  0.7561462E-02  0.1266776E+00
         -2   -1    0    0    0  501 -0.00000000000E+00  0.00000000000E+00  0.10712334038E+03  0.10712334038E+03  0.00000000000E+00 0.  1.
          2   -1    0    0  501    0  0.00000000000E+00 -0.00000000000E+00 -0.17785908769E+03  0.17785908769E+03  0.00000000000E+00 0. -1.
         25    2    1    2    0    0  0.54297018855E+02 -0.85132769913E+01  0.27098584790E+02  0.13928237861E+03  0.12507839763E+03 0.  0.
          5    1    3    3  502    0 -0.11819455019E+02  0.44751412914E+02 -0.82839050222E+01  0.47206821087E+02  0.41800000000E+01 0.  1.
         -5    1    3    3    0  502  0.66116473874E+02 -0.53264689905E+02  0.35382489812E+02  0.92075557525E+02  0.41800000000E+01 0.  1.
        -11    1    1    2    0    0  0.13526547984E+02  0.33268479478E+01  0.10732093817E+02  0.17584460621E+02  0.00000000000E+00 0. -1.
         11    1    1    2    0    0 -0.67823566839E+02  0.51864290435E+01 -0.10856642592E+03  0.12811558884E+03  0.00000000000E+00 0.  1.
</event>
<event>
 7    1  0.2899775E-009  0.9194917E+02  0.7561462E-02  0.1298199E+00
         -1   -1    0    0    0  501 -0.00000000000E+00  0.00000000000E+00  0.28908303736E+02  0.28908303736E+02  0.00000000000E+00 0.  1.
          1   -1    0    0  501    0  0.00000000000E+00 -0.00000000000E+00 -0.53471918628E+03  0.53471918628E+03  0.00000000000E+00 0. -1.
         25    2    1    2    0    0 -0.41674683874E+02 -0.41203836496E+02 -0.24184932924E+03  0.27851899277E+03  0.12508875193E+03 0.  0.
          5    1    3    3  502    0  0.18847738431E+02 -0.13301586354E+02 -0.19628266997E+03  0.19767783987E+03  0.41800000000E+01 0. -1.
         -5    1    3    3    0  502 -0.60522422305E+02 -0.27902250143E+02 -0.45566659269E+02  0.80841152897E+02  0.41800000000E+01 0. -1.
        -11    1    1    2    0    0  0.48293656601E+02 -0.35629401660E+01 -0.64941932192E+02  0.81008804258E+02  0.00000000000E+00 0.  1.
         11    1    1    2    0    0 -0.66189727264E+01  0.44766776662E+02 -0.19901962111E+03  0.20409969299E+03  0.00000000000E+00 0. -1.
</event>
<event>
 7    1  0.2899775E-009  0.1110377E+03  0.7561462E-02  0.1258660E+00
          3   -1    0    0  501    0  0.00000000000E+00  0.00000000000E+00  0.91971540519E+02  0.91971540519E+02  0.00000000000E+00 0. -1.
         -3   -1    0    0    0  501 -0.00000000000E+00 -0.00000000000E+00 -0.15567223505E+03  0.15567223505E+03  0.00000000000E+00 0.  1.
         25    2    1    2    0    0 -0.19391279705E+02 -0.38778165020E+02 -0.84538359061E+01  0.13266170660E+03  0.12509153947E+03 0.  0.
          5    1    3    3  502    0  0.37833081765E+02 -0.50186127068E+02 -0.30704601472E+02  0.70073064564E+02  0.41800000000E+01 0.  1.
         -5    1    3    3    0  502 -0.57224361469E+02  0.11407962049E+02  0.22250765566E+02  0.62588642036E+02  0.41800000000E+01 0.  1.
        -11    1    1    2    0    0 -0.36578395750E+02  0.19058062651E+02 -0.18681096187E+02  0.45278826646E+02  0.00000000000E+00 0. -1.
         11    1    1    2    0    0  0.55969675455E+02  0.19720102369E+02 -0.36565762441E+02  0.69703242327E+02  0.00000000000E+00 0.  1.
</event>
<event>
 7    1  0.2899775E-009  0.1289875E+03  0.7561462E-02  0.1228966E+00
         -1   -1    0    0    0  501 -0.00000000000E+00  0.00000000000E+00  0.89765213699E+02  0.89765213699E+02  0.00000000000E+00 0.  1.
          1   -1    0    0  501    0  0.00000000000E+00 -0.00000000000E+00 -0.31085646072E+03  0.31085646072E+03  0.00000000000E+00 0. -1.
         25    2    1    2    0    0 -0.11930776879E+03 -0.27718690649E+02 -0.15945857261E+03  0.23681596154E+03  0.12510832808E+03 0.  0.
          5    1    3    3  502    0 -0.27068996658E+02 -0.26216772572E+02 -0.13648801566E+03  0.14165627612E+03  0.41800000000E+01 0. -1.
         -5    1    3    3    0  502 -0.92238772135E+02 -0.15019180771E+01 -0.22970556945E+02  0.95159685420E+02  0.41800000000E+01 0. -1.
        -11    1    1    2    0    0  0.14572807556E+02 -0.85282498908E+01  0.19987256655E+02  0.26164636341E+02  0.00000000000E+00 0.  1.
         11    1    1    2    0    0  0.10473496124E+03  0.36246940540E+02 -0.81619931069E+02  0.13764107654E+03  0.00000000000E+00 0. -1.
</event>
<event>
 7    1  0.2899775E-009  0.7544120E+02  0.7561462E-02  0.1342510E+00
         -1   -1    0    0    0  501 -0.00000000000E+00  0.00000000000E+00  0.38904494783E+02  0.38904494783E+02  0.00000000000E+00 0.  1.
          1   -1    0    0  501    0  0.00000000000E+00 -0.00000000000E+00 -0.31606399397E+03  0.31606399397E+03  0.00000000000E+00 0. -1.
         25    2    1    2    0    0 -0.66527936676E+01 -0.16116657945E+02 -0.17705345758E+03  0.21748462950E+03  0.12509049086E+03 0.  0.
          5    1    3    3  502    0  0.35932220583E+02 -0.49940346249E+02 -0.50596295728E+02  0.79766034130E+02  0.41800000000E+01 0.  1.
         -5    1    3    3    0  502 -0.42585014250E+02  0.33823688304E+02 -0.12645716185E+03  0.13771859537E+03  0.41800000000E+01 0.  1.
        -11    1    1    2    0    0  0.94047540303E+01 -0.67914246197E+01  0.15633244962E+02  0.19467182508E+02  0.00000000000E+00 0.  1.
         11    1    1    2    0    0 -0.27519603627E+01  0.22908082565E+02 -0.11573928657E+03  0.11801667674E+03  0.00000000000E+00 0. -1.
</event>
<event>
 7    1  0.2899775E-009  0.1526516E+03  0.7561462E-02  0.1197252E+00
         -1   -1    0    0    0  501 -0.00000000000E+00  0.00000000000E+00  0.31313629457E+02  0.31313629457E+02  0.00000000000E+00 0.  1.
          1   -1    0    0  501    0  0.00000000000E+00 -0.00000000000E+00 -0.91451734268E+03  0.91451734268E+03  0.00000000000E+00 0. -1.
         25    2    1    2    0    0 -0.84161597162E+02 -0.98571837710E+02 -0.44534297163E+03  0.48039259042E+03  0.12508835646E+03 0.  0.
          5    1    3    3  502    0 -0.90036373375E+02 -0.46691444912E+02 -0.39466559001E+03  0.40751078500E+03  0.41800000000E+01 0. -1.
         -5    1    3    3    0  502  0.58747762133E+01 -0.51880392797E+02 -0.50677381623E+02  0.72881805415E+02  0.41800000000E+01 0. -1.
        -11    1    1    2    0    0  0.86887020283E+02  0.45138893782E+02 -0.21499930507E+03  0.23624473582E+03  0.00000000000E+00 0.  1.
         11    1    1    2    0    0 -0.27254231215E+01  0.53432943928E+02 -0.22286143653E+03  0.22919364590E+03  0.00000000000E+00 0. -1.
</event>
<event>
 7    1  0.2899775E-009  0.1431255E+03  0.7561462E-02  0.1209184E+00
          2   -1    0    0  501    0  0.00000000000E+00  0.00000000000E+00  0.37861553106E+03  0.37861553106E+03  0.00000000000E+00 0.  1.
         -2   -1    0    0    0  501 -0.00000000000E+00 -0.00000000000E+00 -0.77861815115E+02  0.77861815115E+02  0.00000000000E+00 0. -1.
         25    2    1    2    0    0  0.12774646839E+03  0.36366024281E+02  0.16248157857E+03  0.24431284441E+03  0.12508738810E+03 0.  0.
          5    1    3    3  502    0  0.90304861695E+02 -0.15689903286E+01  0.16777546584E+03  0.19058727427E+03  0.41800000000E+01 0.  1.
         -5    1    3    3    0  502  0.37441606691E+02  0.37935014609E+02 -0.52938872633E+01  0.53725570145E+02  0.41800000000E+01 0.  1.
        -11    1    1    2    0    0 -0.44878659905E+02  0.11956297364E+02  0.97372611679E+02  0.10788175317E+03  0.00000000000E+00 0.  1.
         11    1    1    2    0    0 -0.82867808481E+02 -0.48322321645E+02  0.40899525687E+02  0.10428274859E+03  0.00000000000E+00 0. -1.
</event>
<event>
 7    1  0.2899775E-009  0.1018075E+03  0.7561462E-02  0.1276540E+00
          2   -1    0    0  501    0  0.00000000000E+00  0.00000000000E+00  0.36378835300E+03  0.36378835300E+03  0.00000000000E+00 0. -1.
         -2   -1    0    0    0  501 -0.00000000000E+00 -0.00000000000E+00 -0.81051930332E+02  0.81051930332E+02  0.00000000000E+00 0.  1.
         25    2    1    2    0    0 -0.64877496424E+02 -0.67305152228E+02  0.33576892161E+02  0.15973150508E+03  0.12509065900E+03 0.  0.
          5    1    3    3  502    0 -0.62318105569E+02 -0.76200671846E+02  0.70684244673E+02  0.12125932342E+03  0.41800000000E+01 0.  1.
         -5    1    3    3    0  502 -0.25593908551E+01  0.88955196177E+01 -0.37107352512E+02  0.38472181655E+02  0.41800000000E+01 0.  1.
        -11    1    1    2    0    0  0.40683846576E+02  0.30332694122E+02  0.23236179809E+03  0.23783871198E+03  0.00000000000E+00 0. -1.
         11    1    1    2    0    0  0.24193649848E+02  0.36972458106E+02  0.16797732419E+02  0.47270066277E+02  0.00000000000E+00 0.  1.
</event>
<event>
 7    1  0.2899775E-009  0.4505615E+03  0.7561462E-02  0.1027555E+00
         -1   -1    0    0    0  501 -0.00000000000E+00  0.00000000000E+00  0.23731152693E+03  0.23731152693E+03  0.00000000000E+00 0.  1.
          1   -1    0    0  501    0  0.00000000000E+00 -0.00000000000E+00 -0.97144065632E+03  0.97144065632E+03  0.00000000000E+00 0. -1.
         25    2    1    2    0    0 -0.27684007490E+03  0.34186867574E+03 -0.56828136348E+03  0.72945543814E+03  0.12508760779E+03 0.  0.
          5    1    3    3  502    0 -0.21757752148E+03  0.33093264660E+03 -0.47710071060E+03  0.62007979720E+03  0.41800000000E+01 0.  1.
         -5    1    3    3    0  502 -0.59262553418E+02  0.10936029146E+02 -0.91180652880E+02  0.10937564094E+03  0.41800000000E+01 0.  1.
        -11    1    1    2    0    0  0.11672605371E+03 -0.19556926297E+03 -0.12069736868E+03  0.25775989417E+03  0.00000000000E+00 0.  1.
         11    1    1    2    0    0  0.16011402119E+03 -0.14629941278E+03 -0.45150397227E+02  0.22153685095E+03  0.00000000000E+00 0. -1.
</event>
<event>
 7    1  0.2899775E-009  0.8841960E+02  0.7561462E-02  0.1306725E+00
          1   -1    0    0  501    0  0.00000000000E+00  0.00000000000E+00  0.39629543441E+02  0.39629543441E+02  0.00000000000E+00 0. -1.
         -1   -1    0    0    0  501 -0.00000000000E+00 -0.00000000000E+00 -0.33037342739E+03  0.33037342739E+03  0.00000000000E+00 0.  1.
         25    2    1    2    0    0  0.12941614657E+02 -0.44442611347E+01 -0.24526717725E+03  0.27566248781E+03  0.12508629861E+03 0.  0.
          5    1    3    3  502    0 -0.91948444332E+01  0.58262214293E+02 -0.11994937339E+03  0.13373240204E+03  0.41800000000E+01 0. -1.
         -5    1    3    3    0  502  0.22136459090E+02 -0.62706475427E+02 -0.12531780386E+03  0.14193008576E+03  0.41800000000E+01 0. -1.
        -11    1    1    2    0    0 -0.98979947323E+01 -0.22175633287E+02 -0.59380600886E+02  0.64154382337E+02  0.00000000000E+00 0.  1.
         11    1    1    2    0    0 -0.30436199246E+01  0.26619894422E+02  0.13903894186E+02  0.30186100689E+02  0.00000000000E+00 0. -1.
</event>
<event>
 7    1  0.2899775E-009  0.1166378E+03  0.7561462E-02  0.1248749E+00
          1   -1    0    0  501    0  0.00000000000E+00  0.00000000000E+00  0.32010720106E+02  0.32010720106E+02  0.00000000000E+00 0. -1.
         -1   -1    0    0    0  501 -0.00000000000E+00 -0.00000000000E+00 -0.51733744579E+03  0.51733744579E+03  0.00000000000E+00 0.  1.
         25    2    1    2    0    0  0.29750793837E+02 -0.51269417094E+02 -0.34746030979E+03  0.37402199379E+03  0.12510044804E+03 0.  0.
          5    1    3    3  502    0  0.60959988626E+02  0.16406885877E+02 -0.14332456063E+03  0.15666750843E+03  0.41800000000E+01 0.  1.
         -5    1    3    3    0  502 -0.31209194789E+02 -0.67676302971E+02 -0.20413574916E+03  0.21735448537E+03  0.41800000000E+01 0.  1.
        -11    1    1    2    0    0 -0.35679582074E+02 -0.73649682510E+01 -0.96983689091E+02  0.10360073013E+03  0.00000000000E+00 0.  1.
         11    1    1    2    0    0  0.59287882375E+01  0.58634385345E+02 -0.40882726803E+02  0.71725441968E+02  0.00000000000E+00 0. -1.
</event>
<event>
 7    1  0.2899775E-009  0.1146836E+03  0.7561462E-02  0.1252134E+00
          1   -1    0    0  501    0  0.00000000000E+00  0.00000000000E+00  0.28468936546E+03  0.28468936546E+03  0.00000000000E+00 0. -1.
         -1   -1    0    0    0  501 -0.00000000000E+00 -0.00000000000E+00 -0.83533307911E+02  0.83533307911E+02  0.00000000000E+00 0.  1.
         25    2    1    2    0    0  0.61857778469E+02 -0.69075525482E+02  0.17864315301E+03  0.23697665608E+03  0.12508695548E+03 0.  0.
          5    1    3    3  502    0  0.60913957584E+01 -0.76739782402E+02  0.39085967677E+02  0.86436592799E+02  0.41800000000E+01 0.  1.
         -5    1    3    3    0  502  0.55766382710E+02  0.76642569203E+01  0.13955718534E+03  0.15054006328E+03  0.41800000000E+01 0.  1.
        -11    1    1    2    0    0 -0.17724634782E+02  0.37758195608E+02  0.54310557011E+02  0.68479782538E+02  0.00000000000E+00 0. -1.
         11    1    1    2    0    0 -0.44133143687E+02  0.31317329874E+02 -0.31797652473E+02  0.62766234752E+02  0.00000000000E+00 0.  1.
</event>
<event>
 7    1  0.2899775E-009  0.1051088E+03  0.7561462E-02  0.1269905E+00
         -2   -1    0    0    0  501 -0.00000000000E+00  0.00000000000E+00  0.19754777597E+02  0.19754777597E+02  0.00000000000E+00 0.  1.
          2   -1    0    0  501    0  0.00000000000E+00 -0.00000000000E+00 -0.70226578545E+03  0.70226578545E+03  0.00000000000E+00 0. -1.
         25    2    1    2    0    0  0.13617634888E+01 -0.53494403724E+01 -0.53150001805E+03  0.54604954414E+03  0.12508942623E+03 0.  0.
          5    1    3    3  502    0  0.49511347281E+02 -0.37165759828E+02 -0.19571952274E+03  0.20531992401E+03  0.41800000000E+01 0.  1.
         -5    1    3    3    0  502 -0.48149583792E+02  0.31816319455E+02 -0.33578049532E+03  0.34072962014E+03  0.41800000000E+01 0.  1.
        -11    1    1    2    0    0 -0.38685787138E+02  0.26981291314E+02 -0.76390556092E+02  0.89778044462E+02  0.00000000000E+00 0. -1.
         11    1    1    2    0    0  0.37324023649E+02 -0.21631850941E+02 -0.74620433705E+02  0.86192974440E+02  0.00000000000E+00 0.  1.
</event>
<event>
 7    1  0.2899775E-009  0.1064500E+03  0.7561462E-02  0.1267289E+00
          1   -1    0    0  501    0  0.00000000000E+00  0.00000000000E+00  0.27981952905E+03  0.27981952905E+03  0.00000000000E+00 0. -1.
         -1   -1    0    0    0  501 -0.00000000000E+00 -0.00000000000E+00 -0.70691051666E+02  0.70691051666E+02  0.00000000000E+00 0.  1.
         25    2    1    2    0    0  0.64044494147E+02 -0.54345710709E+02  0.15171272324E+03  0.21382045941E+03  0.12508910810E+03 0.  0.
          5    1    3    3  502    0  0.45766501492E+02 -0.20531375737E+02  0.16533418024E+03  0.17282642624E+03  0.41800000000E+01 0. -1.
         -5    1    3    3    0  502  0.18277992655E+02 -0.33814334972E+02 -0.13621457000E+02  0.40994033174E+02  0.41800000000E+01 0. -1.
        -11    1    1    2    0    0 -0.77280845623E+02  0.10367054480E+02  0.32908856221E+02  0.84633313397E+02  0.00000000000E+00 0. -1.
         11    1    1    2    0    0  0.13236351477E+02  0.43978656229E+02  0.24506897921E+02  0.52056807910E+02  0.00000000000E+00 0.  1.
</event>
<event>
 7    1  0.2899775E-009  0.2427018E+03  0.7561462E-02  0.1118006E+00
          1   -1    0    0  501    0  0.00000000000E+00  0.00000000000E+00  0.32947744416E+03  0.32947744416E+03  0.00000000000E+00 0. -1.
         -1   -1    0    0    0  501 -0.00000000000E+00 -0.00000000000E+00 -0.25476454684E+03  0.25476454684E+03  0.00000000000E+00 0.  1.
         25    2    1    2    0    0  0.23826508882E+03 -0.61888506646E+00 -0.86506794395E+02  0.28266795992E+03  0.12508842680E+03 0.  0.
          5    1    3    3  502    0  0.22918744366E+03  0.58376110035E-01 -0.37042062661E+02  0.23219921306E+03  0.41800000000E+01 0.  1.
         -5    1    3    3    0  502  0.90776451664E+01 -0.67726117650E+00 -0.49464731734E+02  0.50468746864E+02  0.41800000000E+01 0.  1.
        -11    1    1    2    0    0 -0.19124222590E+03 -0.24574727344E+02  0.90519144186E+02  0.21300521509E+03  0.00000000000E+00 0.  1.
         11    1    1    2    0    0 -0.47022862925E+02  0.25193612410E+02  0.70700547532E+02  0.88568815987E+02  0.00000000000E+00 0. -1.
</event>
<event>
 7    1  0.2899775E-009  0.1078550E+03  0.7561462E-02  0.1264594E+00
          3   -1    0    0  501    0  0.00000000000E+00  0.00000000000E+00  0.16369885137E+03  0.16369885137E+03  0.00000000000E+00 0. -1.
         -3   -1    0    0    0  501 -0.00000000000E+00 -0.00000000000E+00 -0.12827508209E+03  0.12827508209E+03  0.00000000000E+00 0.  1.
         25    2    1    2    0    0 -0.56903646751E+02  0.44153250447E+02  0.83153629988E+02  0.16654865697E+03  0.12504556937E+03 0.  0.
          5    1    3    3  502    0 -0.93484540243E+01  0.81251633696E+02  0.34170660678E+02  0.88737410499E+02  0.41800000000E+01 0.  1.
         -5    1    3    3    0  502 -0.47555192727E+02 -0.37098383249E+02  0.48982969310E+02  0.77811246471E+02  0.41800000000E+01 0.  1.
        -11    1    1    2    0    0  0.13119062775E+02 -0.18275832461E+02 -0.67276698314E+02  0.70938494460E+02  0.00000000000E+00 0.  1.
         11    1    1    2    0    0  0.43784583977E+02 -0.25877417986E+02  0.19546837601E+02  0.54486782028E+02  0.00000000000E+00 0. -1.
</event>
<event>
 7    1  0.2899775E-009  0.9307055E+02  0.7561462E-02  0.1295582E+00
         -2   -1    0    0    0  501 -0.00000000000E+00  0.00000000000E+00  0.75446063464E+02  0.75446063464E+02  0.00000000000E+00 0. -1.
          2   -1    0    0  501    0  0.00000000000E+00 -0.00000000000E+00 -0.18142969980E+03  0.18142969980E+03  0.00000000000E+00 0.  1.
         25    2    1    2    0    0 -0.46519111665E+00 -0.29348248768E+02 -0.22961291112E+02  0.13052365294E+03  0.12509063505E+03 0.  0.
          5    1    3    3  502    0  0.25566977703E+02  0.21612358575E+02  0.35246351535E+02  0.48790799220E+02  0.41800000000E+01 0.  1.
         -5    1    3    3    0  502 -0.26032168820E+02 -0.50960607344E+02 -0.58207642647E+02  0.81732853717E+02  0.41800000000E+01 0.  1.
        -11    1    1    2    0    0 -0.19527011364E+02 -0.28088728189E+02 -0.34077048898E+02  0.48285878739E+02  0.00000000000E+00 0.  1.
         11    1    1    2    0    0  0.19992202480E+02  0.57436976957E+02 -0.48945296330E+02  0.78066231591E+02  0.00000000000E+00 0. -1.
</event>
<event>
 7    1  0.2899775E-009  0.2547731E+03  0.7561462E-02  0.1110325E+00
          2   -1    0    0  501    0  0.00000000000E+00  0.00000000000E+00  0.67837345835E+03  0.67837345835E+03  0.00000000000E+00 0. -1.
         -2   -1    0    0    0  501 -0.00000000000E+00 -0.00000000000E+00 -0.10971224964E+03  0.10971224964E+03  0.00000000000E+00 0.  1.
         25    2    1    2    0    0  0.23801251937E+03  0.71334538077E+02  0.32742900946E+03  0.42964679210E+03  0.12509210217E+03 0.  0.
          5    1    3    3  502    0  0.62663663933E+02  0.55809032915E+02  0.18494908550E+03  0.20313793235E+03  0.41800000000E+01 0. -1.
         -5    1    3    3    0  502  0.17534885543E+03  0.15525505163E+02  0.14247992396E+03  0.22650885975E+03  0.41800000000E+01 0. -1.
        -11    1    1    2    0    0 -0.13857835370E+03 -0.52809237233E+02  0.20053450218E+03  0.24941303538E+03  0.00000000000E+00 0. -1.
         11    1    1    2    0    0 -0.99434165670E+02 -0.18525300844E+02  0.40697697066E+02  0.10902588051E+03  0.00000000000E+00 0.  1.
</event>
<event>
 7    1  0.2899775E-009  0.7806520E+02  0.7561462E-02  0.1334634E+00
          2   -1    0    0  501    0  0.00000000000E+00  0.00000000000E+00  0.63362644899E+02  0.63362644899E+02  0.00000000000E+00 0. -1.
         -2   -1    0    0    0  501 -0.00000000000E+00 -0.00000000000E+00 -0.21896545070E+03  0.21896545070E+03  0.00000000000E+00 0.  1.
         25    2    1    2    0    0  0.14025859554E+02 -0.36382408674E+02 -0.11019308975E+03  0.17122401534E+03  0.12511891146E+03 0.  0.
          5    1    3    3  502    0  0.13971000465E+01 -0.53066615347E+02  0.55432370487E+01  0.53537065944E+02  0.41800000000E+01 0. -1.
         -5    1    3    3    0  502  0.12628759507E+02  0.16684206673E+02 -0.11573632680E+03  0.11768694940E+03  0.41800000000E+01 0. -1.
        -11    1    1    2    0    0 -0.45432669417E+01  0.57874092046E+02  0.21151197625E+01  0.58090666516E+02  0.00000000000E+00 0. -1.
         11    1    1    2    0    0 -0.94825926122E+01 -0.21491683372E+02 -0.47524835817E+02  0.53013413739E+02  0.00000000000E+00 0.  1.
</event>
<event>
 7    1  0.2899775E-009  0.3142891E+03  0.7561462E-02  0.1078308E+00
         -2   -1    0    0    0  501 -0.00000000000E+00  0.00000000000E+00  0.82358535848E+02  0.82358535848E+02  0.00000000000E+00 0.  1.
          2   -1    0    0  501    0  0.00000000000E+00 -0.00000000000E+00 -0.16198385054E+04  0.16198385054E+04  0.00000000000E+00 0. -1.
         25    2    1    2    0    0 -0.18199265574E+03  0.24540093075E+03 -0.11678038580E+04  0.12135711711E+04  0.12508474287E+03 0.  0.
          5    1    3    3  502    0 -0.10689290841E+03  0.18071107513E+03 -0.56716553917E+03  0.60479484767E+03  0.41800000000E+01 0.  1.
         -5    1    3    3    0  502 -0.75099747328E+02  0.64689855625E+02 -0.60063831886E+03  0.60877632342E+03  0.41800000000E+01 0.  1.
        -11    1    1    2    0    0  0.11584588310E+03 -0.21976579621E+03 -0.29374244410E+03  0.38471014710E+03  0.00000000000E+00 0. -1.
         11    1    1    2    0    0  0.66146772647E+02 -0.25635134542E+02 -0.75933667468E+02  0.10391572311E+03  0.00000000000E+00 0.  1.
</event>
<event>
 7    1  0.2899775E-009  0.7134456E+02  0.7561462E-02  0.1355580E+00
          3   -1    0    0  501    0  0.00000000000E+00  0.00000000000E+00  0.90960738327E+01  0.90960738327E+01  0.00000000000E+00 0. -1.
         -3   -1    0    0    0  501 -0.00000000000E+00 -0.00000000000E+00 -0.14770716732E+04  0.14770716732E+04  0.00000000000E+00 0.  1.
         25    2    1    2    0    0 -0.14231928395E+02 -0.45248396545E+01 -0.10564370846E+04  0.10639262736E+04  0.12512705524E+03 0.  0.
          5    1    3    3  502    0 -0.32015023590E+02  0.46196385693E+01 -0.10299983314E+04  0.10305145986E+04  0.41800000000E+01 0.  1.
         -5    1    3    3    0  502  0.17783095195E+02 -0.91444782238E+01 -0.26438753239E+02  0.33411675048E+02  0.41800000000E+01 0.  1.
        -11    1    1    2    0    0  0.51226997566E+02  0.10154893149E+02 -0.30213188171E+03  0.30661213460E+03  0.00000000000E+00 0.  1.
         11    1    1    2    0    0 -0.36995069171E+02 -0.56300534942E+01 -0.10940663297E+03  0.11562933877E+03  0.00000000000E+00 0. -1.
</event>
<event>
 7    1  0.2899775E-009  0.1057821E+03  0.7561462E-02  0.1268586E+00
          1   -1    0    0  501    0  0.00000000000E+00  0.00000000000E+00  0.47518114185E+02  0.47518114185E+02  0.00000000000E+00 0. -1.
         -1   -1    0    0    0  501 -0.00000000000E+00 -0.00000000000E+00 -0.25669871768E+03  0.25669871768E+03  0.00000000000E+00 0.  1.
         25    2    1    2    0    0 -0.18922578143E+02  0.40165216649E+01 -0.99581837942E+02  0.16105392062E+03  0.12509047322E+03 0.  0.
          5    1    3    3  502    0  0.52383960917E+02 -0.21075042952E+01 -0.57500109097E+02  0.77924680826E+02  0.41800000000E+01 0. -1.
         -5    1    3    3    0  502 -0.71306539061E+02  0.61240259601E+01 -0.42081728845E+02  0.83129239798E+02  0.41800000000E+01 0. -1.
        -11    1    1    2    0    0  0.48497943241E+02  0.16564715066E+02 -0.40824890678E+02  0.65521843554E+02  0.00000000000E+00 0. -1.
         11    1    1    2    0    0 -0.29575365098E+02 -0.20581236731E+02 -0.68773874871E+02  0.77641067682E+02  0.00000000000E+00 0.  1.
</event>
<event>
 7    1  0.2899775E-009  0.2725092E+03  0.7561462E-02  0.1099852E+00
          2   -1    0    0  501    0  0.00000000000E+00  0.00000000000E+00  0.48822904201E+03  0.48822904201E+03  0.00000000000E+00 0. -1.
         -2   -1    0    0    0  501 -0.00000000000E+00 -0.00000000000E+00 -0.19619200388E+03  0.19619200388E+03  0.00000000000E+00 0.  1.
         25    2    1    2    0    0  0.17134318246E+03 -0.20689054170E+03  0.26834794819E+03  0.39977530317E+03  0.12508992488E+03 0.  0.
          5    1    3    3  502    0  0.13530724079E+03 -0.19407705559E+03  0.16222760757E+03  0.28689583820E+03  0.41800000000E+01 0.  1.
         -5    1    3    3    0  502  0.36035941665E+02 -0.12813486105E+02  0.10612034062E+03  0.11287946497E+03  0.41800000000E+01 0.  1.
        -11    1    1    2    0    0 -0.82790123667E+02  0.79544632581E+02  0.53556284766E+02  0.12668791887E+03  0.00000000000E+00 0. -1.
         11    1    1    2    0    0 -0.88553058791E+02  0.12734590912E+03 -0.29867194821E+02  0.15795782385E+03  0.00000000000E+00 0.  1.
</event>
<event>
 7    1  0.2899775E-009  0.1067178E+03  0.7561462E-02  0.1266772E+00
          3   -1    0    0  501    0  0.00000000000E+00  0.00000000000E+00  0.95755477816E+01  0.95755477816E+01  0.00000000000E+00 0. -1.
         -3   -1    0    0    0  501 -0.00000000000E+00 -0.00000000000E+00 -0.16664354500E+04  0.16664354500E+04  0.00000000000E+00 0.  1.
         25    2    1    2    0    0 -0.17453585657E+02 -0.14004556970E+02 -0.13055722474E+04  0.13117425201E+04  0.12509512700E+03 0.  0.
          5    1    3    3  502    0 -0.70577793523E+02 -0.10996018415E+02 -0.86364683115E+03  0.86660571122E+03  0.41800000000E+01 0. -1.
         -5    1    3    3    0  502  0.53124207866E+02 -0.30085385554E+01 -0.44192541621E+03  0.44513680892E+03  0.41800000000E+01 0. -1.
        -11    1    1    2    0    0 -0.19163312793E+02  0.39492685775E+02 -0.10237510407E+03  0.11138925766E+03  0.00000000000E+00 0. -1.
         11    1    1    2    0    0  0.36616898450E+02 -0.25488128805E+02 -0.24891255074E+03  0.25287921994E+03  0.00000000000E+00 0.  1.
</event>
<event>
 7    1  0.2899775E-009  0.9651707E+02  0.7561462E-02  0.1287795E+00
         -2   -1    0    0    0  501 -0.00000000000E+00  0.00000000000E+00  0.24484824299E+02  0.24484824299E+02  0.00000000000E+00 0.  1.
          2   -1    0    0  501    0  0.00000000000E+00 -0.00000000000E+00 -0.58267414357E+03  0.58267414357E+03  0.00000000000E+00 0. -1.
         25    2    1    2    0    0  0.49333105933E+02 -0.11038294355E+02 -0.32085471353E+03  0.34807095111E+03  0.12510012201E+03 0.  0.
          5    1    3    3  502    0  0.68015279881E+02 -0.32868352254E+02 -0.30646515463E+03  0.31566559883E+03  0.41800000000E+01 0.  1.
         -5    1    3    3    0  502 -0.18682173948E+02  0.21830057898E+02 -0.14389558900E+02  0.32405352283E+02  0.41800000000E+01 0.  1.
        -11    1    1    2    0    0 -0.48746960807E+02  0.37731074742E+02 -0.88346553153E+02  0.10772656888E+03  0.00000000000E+00 0.  1.
         11    1    1    2    0    0 -0.58614512638E+00 -0.26692780387E+02 -0.14898805258E+03  0.15136144788E+03  0.00000000000E+00 0. -1.
</event>
<event>
 7    1  0.2899775E-009  0.1412684E+03  0.7561462E-02  0.1211632E+00
         -2   -1    0    0    0  501 -0.00000000000E+00  0.00000000000E+00  0.29801512943E+02  0.29801512943E+02  0.00000000000E+00 0.  1.
          2   -1    0    0  501    0  0.00000000000E+00 -0.00000000000E+00 -0.84058802879E+03  0.84058802879E+03  0.00000000000E+00 0. -1.
         25    2    1    2    0    0  0.72086121358E+02 -0.85141587494E+02 -0.36556170425E+03  0.40215469805E+03  0.12509013844E+03 0.  0.
          5    1    3    3  502    0  0.88336643180E+01 -0.97585581037E+02 -0.17074698606E+03  0.19690856990E+03  0.41800000000E+01 0.  1.
         -5    1    3    3    0  502  0.63252457040E+02  0.12443993543E+02 -0.19481471819E+03  0.20524612815E+03  0.41800000000E+01 0.  1.
        -11    1    1    2    0    0 -0.42656371237E+02  0.79027278800E+02 -0.41845864225E+03  0.42798657931E+03  0.00000000000E+00 0.  1.
         11    1    1    2    0    0 -0.29429750122E+02  0.61143086946E+01 -0.26766169347E+02  0.40248264367E+02  0.00000000000E+00 0. -1.
</event>
<event>
 7    1  0.2899775E-009  0.9696240E+02  0.7561462E-02  0.1286816E+00
          1   -1    0    0  501    0  0.00000000000E+00  0.00000000000E+00  0.31880533790E+03  0.31880533790E+03  0.00000000000E+00 0. -1.
         -1   -1    0    0    0  501 -0.00000000000E+00 -0.00000000000E+00 -0.53954280802E+02  0.53954280802E+02  0.00000000000E+00 0.  1.
         25    2    1    2    0    0 -0.84352326306E+00 -0.57733495874E+02  0.21245765530E+03  0.25322018490E+03  0.12509331984E+03 0.  0.
          5    1    3    3  502    0  0.25121905908E+02  0.50144756308E+01 -0.40533594161E+01  0.26270844008E+02  0.41800000000E+01 0.  1.
         -5    1    3    3    0  502 -0.25965429171E+02 -0.62747971505E+02  0.21651101471E+03  0.22694934089E+03  0.41800000000E+01 0.  1.
        -11    1    1    2    0    0 -0.34462753282E+02  0.54494488462E+02  0.11635563333E+02  0.65518829130E+02  0.00000000000E+00 0.  1.
         11    1    1    2    0    0  0.35306276545E+02  0.32390074118E+01  0.40757838473E+02  0.54020604675E+02  0.00000000000E+00 0. -1.
</event>
<event>
 7    1  0.2899775E-009  0.1001912E+03  0.7561462E-02  0.1279894E+00
         -2   -1    0    0    0  501 -0.00000000000E+00  0.00000000000E+00  0.52569914549E+02  0.52569914549E+02  0.00000000000E+00 0. -1.
          2   -1    0    0  501    0  0.00000000000E+00 -0.00000000000E+00 -0.29676546595E+03  0.29676546595E+03  0.00000000000E+00 0.  1.
         25    2    1    2    0    0  0.27411670391E+02 -0.36601151764E+02 -0.19721296090E+03  0.23797348787E+03  0.12508950795E+03 0.  0.
          5    1    3    3  502    0 -0.36744383252E+01 -0.68207095038E+02 -0.17562755416E+03  0.18848930869E+03  0.41800000000E+01 0. -1.
         -5    1    3    3    0  502  0.31086108717E+02  0.31605943274E+02 -0.21585406745E+02  0.49484179186E+02  0.41800000000E+01 0. -1.
        -11    1    1    2    0    0  0.25498988596E+02  0.56344954250E+01 -0.42512881008E+02  0.49892795168E+02  0.00000000000E+00 0.  1.
         11    1    1    2    0    0 -0.52910658987E+02  0.30966656339E+02 -0.44697094924E+01  0.61469097458E+02  0.00000000000E+00 0. -1.
</event>
<event>
 7    1  0.2899775E-009  0.9971309E+02  0.7561462E-02  0.1280900E+00
         -1   -1    0    0    0  501 -0.00000000000E+00  0.00000000000E+00  0.49575922167E+02  0.49575922167E+02  0.00000000000E+00 0.  1.
          1   -1    0    0  501    0  0.00000000000E+00 -0.00000000000E+00 -0.30517465790E+03  0.30517465790E+03  0.00000000000E+00 0. -1.
         25    2    1    2    0    0  0.11264663046E+02 -0.54734828263E+02 -0.12875598259E+03  0.18800851745E+03  0.12508519305E+03 0.  0.
          5    1    3    3  502    0 -0.35784597807E+01  0.40324392213E+02 -0.38463596960E+02  0.55998059545E+02  0.41800000000E+01 0.  1.
         -5    1    3    3    0  502  0.14843122826E+02 -0.95059220476E+02 -0.90292385634E+02  0.13201045790E+03  0.41800000000E+01 0.  1.
        -11    1    1    2    0    0 -0.19250187233E+02  0.24518503215E+02  0.47112088710E+01  0.31526531643E+02  0.00000000000E+00 0.  1.
         11    1    1    2    0    0  0.79855241877E+01  0.30216325048E+02 -0.13155396201E+03  0.13521553097E+03  0.00000000000E+00 0. -1.
</event>
<event>
 7    1  0.2899775E-009  0.1799604E+03  0.7561462E-02  0.1167841E+00
         -2   -1    0    0    0  501 -0.00000000000E+00  0.00000000000E+00  0.25490228433E+03  0.25490228433E+03  0.00000000000E+00 0.  1.
          2   -1    0    0  501    0  0.00000000000E+00 -0.00000000000E+00 -0.13430325796E+03  0.13430325796E+03  0.00000000000E+00 0. -1.
         25    2    1    2    0    0  0.11471849939E+03  0.95582059933E+02  0.44719551220E+02  0.19985935006E+03  0.12509059621E+03 0.  0.
          5    1    3    3  502    0  0.13846370562E+03  0.59859910338E+02  0.42162825114E+02  0.15668625613E+03  0.41800000000E+01 0. -1.
         -5    1    3    3    0  502 -0.23745206228E+02  0.35722149596E+02  0.25567261053E+01  0.43173093924E+02  0.41800000000E+01 0. -1.
        -11    1    1    2    0    0 -0.53880727068E+02 -0.15291282584E+01  0.51831777051E+02  0.74779703763E+02  0.00000000000E+00 0. -1.
         11    1    1    2    0    0 -0.60837772321E+02 -0.94052931675E+02  0.24047698099E+02  0.11456648848E+03  0.00000000000E+00 0.  1.
</event>
<event>
 7    1  0.2899775E-009  0.2360807E+03  0.7561462E-02  0.1122432E+00
         -4   -1    0    0    0  501 -0.00000000000E+00  0.00000000000E+00  0.30724317356E+03  0.30724317356E+03  0.00000000000E+00 0.  1.
          4   -1    0    0  501    0  0.00000000000E+00 -0.00000000000E+00 -0.23469232941E+03  0.23469232941E+03  0.00000000000E+00 0. -1.
         25    2    1    2    0    0 -0.91596897054E+02  0.19287116389E+03 -0.84701403210E+02  0.26155524975E+03  0.12509014171E+03 0.  0.
          5    1    3    3  502    0 -0.10135686858E+03  0.83637228540E+02 -0.16913492988E+02  0.13255919226E+03  0.41800000000E+01 0. -1.
         -5    1    3    3    0  502  0.97599715261E+01  0.10923393535E+03 -0.67787910222E+02  0.12899605749E+03  0.41800000000E+01 0. -1.
        -11    1    1    2    0    0  0.48498719923E+02 -0.17931383009E+03  0.11469580730E+03  0.21831331546E+03  0.00000000000E+00 0.  1.
         11    1    1    2    0    0  0.43098177131E+02 -0.13557333801E+02  0.42556440063E+02  0.62066937758E+02  0.00000000000E+00 0. -1.
</event>
<event>
 7    1  0.2899775E-009  0.1580164E+03  0.7561462E-02  0.1190955E+00
         -1   -1    0    0    0  501 -0.00000000000E+00  0.00000000000E+00  0.43696229968E+02  0.43696229968E+02  0.00000000000E+00 0.  1.
          1   -1    0    0  501    0  0.00000000000E+00 -0.00000000000E+00 -0.59238630242E+03  0.59238630242E+03  0.00000000000E+00 0. -1.
         25    2    1    2    0    0  0.46958939899E+02 -0.10785943777E+03 -0.32228046428E+03  0.36517703763E+03  0.12510304074E+03 0.  0.
          5    1    3    3  502    0  0.32423593682E+02  0.20749328378E+02 -0.10887686560E+03  0.11555720799E+03  0.41800000000E+01 0. -1.
         -5    1    3    3    0  502  0.14535346217E+02 -0.12860876615E+03 -0.21340359867E+03  0.24961982963E+03  0.41800000000E+01 0. -1.
        -11    1    1    2    0    0 -0.69184568706E+02  0.10451804125E+03 -0.18001346289E+03  0.21935216505E+03  0.00000000000E+00 0.  1.
         11    1    1    2    0    0  0.22225628806E+02  0.33413965229E+01 -0.46396145289E+02  0.51553329711E+02  0.00000000000E+00 0. -1.
</event>
<event>
 7    1  0.2899775E-009  0.1056135E+03  0.7561462E-02  0.1268916E+00
         -1   -1    0    0    0  501 -0.00000000000E+00  0.00000000000E+00  0.74396046414E+02  0.74396046414E+02  0.00000000000E+00 0.  1.
          1   -1    0    0  501    0  0.00000000000E+00 -0.00000000000E+00 -0.39659024475E+03  0.39659024475E+03  0.00000000000E+00 0. -1.
         25    2    1    2    0    0 -0.87516599662E+01 -0.53518672770E+02 -0.33776758410E+03  0.36424639805E+03  0.12509059810E+03 0.  0.
          5    1    3    3  502    0 -0.10562062224E+02 -0.80416449499E+02 -0.32334386766E+03  0.33338729979E+03  0.41800000000E+01 0. -1.
         -5    1    3    3    0  502  0.18104022580E+01  0.26897776729E+02 -0.14423716447E+02  0.30859098261E+02  0.41800000000E+01 0. -1.
        -11    1    1    2    0    0 -0.37270928531E+02  0.40202575143E+02 -0.40410540997E+01  0.54969985263E+02  0.00000000000E+00 0.  1.
         11    1    1    2    0    0  0.46022588497E+02  0.13316097627E+02  0.19614439866E+02  0.51769907854E+02  0.00000000000E+00 0. -1.
</event>
<event>
 7    1  0.2899775E-009  0.8294319E+02  0.7561462E-02  0.1320901E+00
          3   -1    0    0  501    0  0.00000000000E+00  0.00000000000E+00  0.18720775447E+03  0.18720775447E+03  0.00000000000E+00 0. -1.
         -3   -1    0    0    0  501 -0.00000000000E+00 -0.00000000000E+00 -0.12030325525E+03  0.12030325525E+03  0.00000000000E+00 0.  1.
         25    2    1    2    0    0  0.52771529580E+02  0.63533214711E+02 -0.27509918174E+02  0.15240391214E+03  0.12509537614E+03 0.  0.
          5    1    3    3  502    0  0.31931949150E+02  0.38485048274E+02 -0.77653942079E+02  0.92457316841E+02  0.41800000000E+01 0.  1.
         -5    1    3    3    0  502  0.20839580430E+02  0.25048166437E+02  0.50144023905E+02  0.59946595297E+02  0.41800000000E+01 0.  1.
        -11    1    1    2    0    0 -0.42189563825E+02 -0.46371925136E+02  0.43823745447E+01  0.62845206207E+02  0.00000000000E+00 0.  1.
         11    1    1    2    0    0 -0.10581965755E+02 -0.17161289575E+02  0.90032042854E+02  0.92261891372E+02  0.00000000000E+00 0. -1.
</event>
<event>
 7    1  0.2899775E-009  0.1027924E+03  0.7561462E-02  0.1274531E+00
          1   -1    0    0  501    0  0.00000000000E+00  0.00000000000E+00  0.50071171954E+02  0.50071171954E+02  0.00000000000E+00 0. -1.
         -1   -1    0    0    0  501 -0.00000000000E+00 -0.00000000000E+00 -0.26412137973E+03  0.26412137973E+03  0.00000000000E+00 0.  1.
         25    2    1    2    0    0 -0.27450791646E+02  0.33033948569E+01 -0.15979448057E+03  0.20480872709E+03  0.12509148768E+03 0.  0.
          5    1    3    3  502    0 -0.44331158423E+02 -0.42595784382E+02 -0.35364119357E+02  0.71047489696E+02  0.41800000000E+01 0.  1.
         -5    1    3    3    0  502  0.16880366776E+02  0.45899179239E+02 -0.12443036121E+03  0.13376123739E+03  0.41800000000E+01 0.  1.
        -11    1    1    2    0    0  0.25157897626E+02  0.42302141274E+02 -0.25650673145E+02  0.55500882895E+02  0.00000000000E+00 0.  1.
         11    1    1    2    0    0  0.22928940207E+01 -0.45605536131E+02 -0.28605054069E+02  0.53882941708E+02  0.00000000000E+00 0. -1.
</event>
<event>
 6    1  0.2899775E-009  0.1593027E+03  0.7561462E-02  0.1189486E+00
          1   -1    0    0  501    0  0.00000000000E+00  0.00000000000E+00  0.15597064324E+04  0.15597064324E+04  0.00000000000E+00 0. -1.
         -1   -1    0    0    0  501 -0.00000000000E+00 -0.00000000000E+00 -0.18022688734E+02  0.18022688734E+02  0.00000000000E+00 0.  1.
          5    1    1    2  502    0  0.81165622572E+02 -0.17990943677E+02  0.43889661432E+03  0.44672054217E+03  0.41800000000E+01 0. -1.
         -5    1    1    2    0  502  0.15608083003E+02  0.83273983962E+02  0.60581068190E+03  0.61172070700E+03  0.41800000000E+01 0. -1.
        -11    1    1    2    0    0  0.50927254022E+00 -0.52403193724E+02  0.16718599154E+03  0.17520704848E+03  0.00000000000E+00 0.  1.
         11    1    1    2    0    0 -0.97282978116E+02 -0.12879846561E+02  0.32979045588E+03  0.34408082345E+03  0.00000000000E+00 0. -1.
</event>
<event>
 7    1  0.2899775E-009  0.1000933E+03  0.7561462E-02  0.1280100E+00
          1   -1    0    0  501    0  0.00000000000E+00  0.00000000000E+00  0.15025426577E+03  0.15025426577E+03  0.00000000000E+00 0. -1.
         -1   -1    0    0    0  501 -0.00000000000E+00 -0.00000000000E+00 -0.87600564419E+02  0.87600564419E+02  0.00000000000E+00 0.  1.
         25    2    1    2    0    0  0.43445427045E+00 -0.37133210535E+02  0.24536622747E+02  0.13277238591E+03  0.12508955403E+03 0.  0.
          5    1    3    3  502    0 -0.17823808864E+02  0.30567236384E+02 -0.27785583588E+02  0.45183571771E+02  0.41800000000E+01 0.  1.
         -5    1    3    3    0  502  0.18258263135E+02 -0.67700446919E+02  0.52322206335E+02  0.87588814135E+02  0.41800000000E+01 0.  1.
        -11    1    1    2    0    0 -0.13342284305E+02  0.63536902428E+02  0.12542451086E+02  0.66123124547E+02  0.00000000000E+00 0.  1.
         11    1    1    2    0    0  0.12907830035E+02 -0.26403691893E+02  0.25574627523E+02  0.38959319741E+02  0.00000000000E+00 0. -1.
</event>
<event>
 7    1  0.2899775E-009  0.1371127E+03  0.7561462E-02  0.1217268E+00
          1   -1    0    0  501    0  0.00000000000E+00  0.00000000000E+00  0.76368136795E+03  0.76368136795E+03  0.00000000000E+00 0. -1.
         -1   -1    0    0    0  501 -0.00000000000E+00 -0.00000000000E+00 -0.32329555206E+02  0.32329555206E+02  0.00000000000E+00 0.  1.
         25    2    1    2    0    0  0.47973045901E+02  0.73596465927E+02  0.20889034105E+03  0.25882737070E+03  0.12505430944E+03 0.  0.
          5    1    3    3  502    0 -0.42442558388E+02  0.31409349458E+02  0.71899733063E+02  0.89302642797E+02  0.41800000000E+01 0. -1.
         -5    1    3    3    0  502  0.90415604289E+02  0.42187116470E+02  0.13699060798E+03  0.16952472790E+03  0.41800000000E+01 0. -1.
        -11    1    1    2    0    0  0.18884097313E+02 -0.44773662879E+02  0.27396996817E+03  0.27824599454E+03  0.00000000000E+00 0. -1.
         11    1    1    2    0    0 -0.66857143213E+02 -0.28822803049E+02  0.24849150353E+03  0.25893755791E+03  0.00000000000E+00 0.  1.
</event>
<event>
 7    1  0.2899775E-009  0.8565335E+02  0.7561462E-02  0.1313733E+00
         -1   -1    0    0    0  501 -0.00000000000E+00  0.00000000000E+00  0.12088908752E+03  0.12088908752E+03  0.00000000000E+00 0.  1.
          1   -1    0    0  501    0  0.00000000000E+00 -0.00000000000E+00 -0.10287361968E+03  0.10287361968E+03  0.00000000000E+00 0. -1.
         25    2    1    2    0    0  0.24011509846E+02 -0.21291212815E+02  0.14297164269E+02  0.12991954761E+03  0.12507922129E+03 0.  0.
          5    1    3    3  502    0  0.36142786294E+02 -0.66168266390E+02  0.29142701045E+02  0.80940162481E+02  0.41800000000E+01 0. -1.
         -5    1    3    3    0  502 -0.12131276448E+02  0.44877053576E+02 -0.14845536776E+02  0.48979385134E+02  0.41800000000E+01 0. -1.
        -11    1    1    2    0    0 -0.12289429311E+02  0.31350428821E+02  0.41254880094E+02  0.53252648682E+02  0.00000000000E+00 0.  1.
         11    1    1    2    0    0 -0.11722080535E+02 -0.10059216006E+02 -0.37536576526E+02  0.40590510911E+02  0.00000000000E+00 0. -1.
</event>
<event>
 7    1  0.2899775E-009  0.1174294E+03  0.7561462E-02  0.1247399E+00
         -2   -1    0    0    0  501 -0.00000000000E+00  0.00000000000E+00  0.15557678548E+03  0.15557678548E+03  0.00000000000E+00 0.  1.
          2   -1    0    0  501    0  0.00000000000E+00 -0.00000000000E+00 -0.15095657626E+03  0.15095657626E+03  0.00000000000E+00 0. -1.
         25    2    1    2    0    0  0.64039760140E+02  0.75161887336E+02 -0.40939425132E+02  0.16454230232E+03  0.12509089710E+03 0.  0.
          5    1    3    3  502    0  0.18760353157E+02 -0.43753380434E+00  0.40276588148E+02  0.44629790939E+02  0.41800000000E+01 0. -1.
         -5    1    3    3    0  502  0.45279406983E+02  0.75599421141E+02 -0.81216013281E+02  0.11991251139E+03  0.41800000000E+01 0. -1.
        -11    1    1    2    0    0 -0.80324400384E+02 -0.42404546551E+02  0.52273421470E+02  0.10479821305E+03  0.00000000000E+00 0.  1.
         11    1    1    2    0    0  0.16284640244E+02 -0.32757340785E+02 -0.67137871164E+01  0.37192846364E+02  0.00000000000E+00 0. -1.
</event>
<event>
 7    1  0.2899775E-009  0.1238406E+03  0.7561462E-02  0.1236892E+00
         -2   -1    0    0    0  501 -0.00000000000E+00  0.00000000000E+00  0.18889491038E+02  0.18889491038E+02  0.00000000000E+00 0.  1.
          2   -1    0    0  501    0  0.00000000000E+00 -0.00000000000E+00 -0.99277412495E+03  0.99277412495E+03  0.00000000000E+00 0. -1.
         25    2    1    2    0    0 -0.34017468215E+02 -0.59929086591E+02 -0.73803537224E+03  0.75172725583E+03  0.12509585492E+03 0.  0.
          5    1    3    3  502    0 -0.65089633285E+02 -0.79508800069E+02 -0.46743125781E+03  0.47861024104E+03  0.41800000000E+01 0. -1.
         -5    1    3    3    0  502  0.31072165071E+02  0.19579713478E+02 -0.27060411443E+03  0.27311701479E+03  0.41800000000E+01 0. -1.
        -11    1    1    2    0    0  0.44660529164E+01  0.74705593738E+02 -0.14328639850E+03  0.16165352876E+03  0.00000000000E+00 0. -1.
         11    1    1    2    0    0  0.29551415298E+02 -0.14776507148E+02 -0.92562863169E+02  0.98282831398E+02  0.00000000000E+00 0.  1.
</event>
<event>
 7    1  0.2899775E-009  0.1395461E+03  0.7561462E-02  0.1213941E+00
         -2   -1    0    0    0  501 -0.00000000000E+00  0.00000000000E+00  0.43675213883E+02  0.43675213883E+02  0.00000000000E+00 0.  1.
          2   -1    0    0  501    0  0.00000000000E+00 -0.00000000000E+00 -0.69619503963E+03  0.69619503963E+03  0.00000000000E+00 0. -1.
         25    2    1    2    0    0  0.64148403604E+02  0.10586119290E+03 -0.45766787907E+03  0.49033404983E+03  0.12508390400E+03 0.  0.
          5    1    3    3  502    0 -0.16795328194E+02  0.51076152227E+02 -0.29979425770E+03  0.30460618137E+03  0.41800000000E+01 0.  1.
         -5    1    3    3    0  502  0.80943731798E+02  0.54785040671E+02 -0.15787362137E+03  0.18572786846E+03  0.41800000000E+01 0.  1.
        -11    1    1    2    0    0 -0.24101037960E+02 -0.68299258646E+02 -0.34849220991E+02  0.80374852821E+02  0.00000000000E+00 0.  1.
         11    1    1    2    0    0 -0.40047365644E+02 -0.37561934252E+02 -0.16000272569E+03  0.16916135087E+03  0.00000000000E+00 0. -1.
</event>
<event>
 7    1  0.2899775E-009  0.9562682E+02  0.7561462E-02  0.1289771E+00
         -1   -1    0    0    0  501 -0.00000000000E+00  0.00000000000E+00  0.43903249514E+02  0.43903249514E+02  0.00000000000E+00 0.  1.
          1   -1    0    0  501    0  0.00000000000E+00 -0.00000000000E+00 -0.28850460396E+03  0.28850460396E+03  0.00000000000E+00 0. -1.
         25    2    1    2    0    0  0.24513219299E+02  0.66463046921E+01 -0.17830111044E+03  0.21928020224E+03  0.12508976706E+03 0.  0.
          5    1    3    3  502    0  0.36556070425E+02 -0.51012068736E+02 -0.12408481715E+03  0.13911538984E+03  0.41800000000E+01 0.  1.
         -5    1    3    3    0  502 -0.12042851125E+02  0.57658373428E+02 -0.54216293294E+02  0.80164812406E+02  0.41800000000E+01 0.  1.
        -11    1    1    2    0    0 -0.36637939545E+02  0.18754841231E+02 -0.73352510356E+02  0.84111078101E+02  0.00000000000E+00 0. -1.
         11    1    1    2    0    0  0.12124720245E+02 -0.25401145923E+02  0.70522663591E+01  0.29016573127E+02  0.00000000000E+00 0.  1.
</event>
<event>
 7    1  0.2899775E-009  0.1212422E+03  0.7561462E-02  0.1241062E+00
         -2   -1    0    0    0  501 -0.00000000000E+00  0.00000000000E+00  0.51619827835E+02  0.51619827835E+02  0.00000000000E+00 0.  1.
          2   -1    0    0  501    0  0.00000000000E+00 -0.00000000000E+00 -0.31307221146E+03  0.31307221146E+03  0.00000000000E+00 0. -1.
         25    2    1    2    0    0 -0.71986684588E+02  0.11272900501E+02 -0.15839695955E+03  0.21458276252E+03  0.12508798556E+03 0.  0.
          5    1    3    3  502    0 -0.97623741204E+02  0.33100797971E+02 -0.14532743235E+03  0.17822343468E+03  0.41800000000E+01 0.  1.
         -5    1    3    3    0  502  0.25637056616E+02 -0.21827897471E+02 -0.13069527199E+02  0.36359327842E+02  0.41800000000E+01 0.  1.
        -11    1    1    2    0    0 -0.11742869540E+02  0.13670698140E+02 -0.48421048101E+01  0.18660893645E+02  0.00000000000E+00 0.  1.
         11    1    1    2    0    0  0.83729554128E+02 -0.24943598640E+02 -0.98213319258E+02  0.13144838313E+03  0.00000000000E+00 0. -1.
</event>
<event>
 7    1  0.2899775E-009  0.1068677E+03  0.7561462E-02  0.1266483E+00
         -1   -1    0    0    0  501 -0.00000000000E+00  0.00000000000E+00  0.88093662347E+02  0.88093662347E+02  0.00000000000E+00 0.  1.
          1   -1    0    0  501    0  0.00000000000E+00 -0.00000000000E+00 -0.32762736181E+03  0.32762736181E+03  0.00000000000E+00 0. -1.
         25    2    1    2    0    0  0.11861265706E+02  0.58756235773E+02 -0.26872143634E+03  0.30240811734E+03  0.12508586739E+03 0.  0.
          5    1    3    3  502    0 -0.29268016173E+02 -0.46435368305E+01 -0.80791332059E+01  0.30998774143E+02  0.41800000000E+01 0. -1.
         -5    1    3    3    0  502  0.41129281879E+02  0.63399772603E+02 -0.26064230313E+03  0.27140934320E+03  0.41800000000E+01 0. -1.
        -11    1    1    2    0    0  0.11028959963E+02  0.21769751457E+02  0.14294245263E+02  0.28282246799E+02  0.00000000000E+00 0.  1.
         11    1    1    2    0    0 -0.22890225669E+02 -0.80525987230E+02  0.14893491611E+02  0.85030660017E+02  0.00000000000E+00 0. -1.
</event>
<event>
 7    1  0.2899775E-009  0.1086441E+03  0.7561462E-02  0.1263102E+00
          1   -1    0    0  501    0  0.00000000000E+00  0.00000000000E+00  0.22710102859E+02  0.22710102859E+02  0.00000000000E+00 0. -1.
         -1   -1    0    0    0  501 -0.00000000000E+00 -0.00000000000E+00 -0.89247160111E+03  0.89247160111E+03  0.00000000000E+00 0.  1.
         25    2    1    2    0    0 -0.19100010788E+02  0.89400377038E+02 -0.48742626167E+03  0.51145793655E+03  0.12509045717E+03 0.  0.
          5    1    3    3  502    0 -0.24747564876E+01 -0.17202060431E+02 -0.24995058475E+03  0.25058891141E+03  0.41800000000E+01 0. -1.
         -5    1    3    3    0  502 -0.16625254301E+02  0.10660243747E+03 -0.23747567692E+03  0.26086902515E+03  0.41800000000E+01 0. -1.
        -11    1    1    2    0    0  0.42539925511E+01 -0.24307872473E+02 -0.12039808903E+02  0.27457715040E+02  0.00000000000E+00 0. -1.
         11    1    1    2    0    0  0.14846018237E+02 -0.65092504565E+02 -0.37029542768E+03  0.37626605237E+03  0.00000000000E+00 0.  1.
</event>
<event>
 7    1  0.2899775E-009  0.1068451E+03  0.7561462E-02  0.1266526E+00
         -1   -1    0    0    0  501 -0.00000000000E+00  0.00000000000E+00  0.32655210677E+02  0.32655210677E+02  0.00000000000E+00 0.  1.
          1   -1    0    0  501    0  0.00000000000E+00 -0.00000000000E+00 -0.46609237800E+03  0.46609237800E+03  0.00000000000E+00 0. -1.
         25    2    1    2    0    0  0.31050027652E+02 -0.81380583143E+01 -0.34486334969E+03  0.36825234784E+03  0.12509488208E+03 0.  0.
          5    1    3    3  502    0 -0.19598584318E+02  0.45851781919E+02 -0.19114006402E+03  0.19758159551E+03  0.41800000000E+01 0.  1.
         -5    1    3    3    0  502  0.50648611970E+02 -0.53989840234E+02 -0.15372328567E+03  0.17067075233E+03  0.41800000000E+01 0.  1.
        -11    1    1    2    0    0  0.30543752906E+01  0.41608037487E+02 -0.18400863108E+02  0.45597694624E+02  0.00000000000E+00 0.  1.
         11    1    1    2    0    0 -0.34104402943E+02 -0.33469979173E+02 -0.70172954529E+02  0.84897546214E+02  0.00000000000E+00 0. -1.
</event>
<event>
 7    1  0.2899775E-009  0.1736150E+03  0.7561462E-02  0.1174130E+00
          2   -1    0    0  501    0  0.00000000000E+00  0.00000000000E+00  0.17925077145E+03  0.17925077145E+03  0.00000000000E+00 0. -1.
         -2   -1    0    0    0  501 -0.00000000000E+00 -0.00000000000E+00 -0.20533468201E+03  0.20533468201E+03  0.00000000000E+00 0.  1.
         25    2    1    2    0    0 -0.13595327529E+03 -0.50379928464E+02 -0.78345378797E+02  0.20689877907E+03  0.12509067170E+03 0.  0.
          5    1    3    3  502    0  0.18375582885E+02  0.11768744681E+02 -0.21808123869E+02  0.31132492101E+02  0.41800000000E+01 0.  1.
         -5    1    3    3    0  502 -0.15432885817E+03 -0.62148673145E+02 -0.56537254927E+02  0.17576628696E+03  0.41800000000E+01 0.  1.
        -11    1    1    2    0    0  0.78002840395E+02  0.61805832569E+02  0.10737457646E+01  0.99526664664E+02  0.00000000000E+00 0.  1.
         11    1    1    2    0    0  0.57950434893E+02 -0.11425904104E+02  0.51187722470E+02  0.78160009727E+02  0.00000000000E+00 0. -1.
</event>
<event>
 7    1  0.2899775E-009  0.1397289E+03  0.7561462E-02  0.1213694E+00
         -1   -1    0    0    0  501 -0.00000000000E+00  0.00000000000E+00  0.22379725442E+02  0.22379725442E+02  0.00000000000E+00 0.  1.
          1   -1    0    0  501    0  0.00000000000E+00 -0.00000000000E+00 -0.10713109802E+04  0.10713109802E+04  0.00000000000E+00 0. -1.
         25    2    1    2    0    0  0.65725565675E+02 -0.82289560397E+02 -0.68159016287E+03  0.70093037804E+03  0.12508726156E+03 0.  0.
          5    1    3    3  502    0  0.64131223410E+02 -0.63590321093E+01 -0.14187873679E+03  0.15588553319E+03  0.41800000000E+01 0.  1.
         -5    1    3    3    0  502  0.15943422643E+01 -0.75930528288E+02 -0.53971142608E+03  0.54504484485E+03  0.41800000000E+01 0.  1.
        -11    1    1    2    0    0 -0.40432176754E+02  0.10004832516E+03 -0.27682546637E+03  0.29711406415E+03  0.00000000000E+00 0. -1.
         11    1    1    2    0    0 -0.25293388921E+02 -0.17758764766E+02 -0.90515625491E+02  0.95646263425E+02  0.00000000000E+00 0.  1.
</event>
<event>
 7    1  0.2899775E-009  0.1263471E+03  0.7561462E-02  0.1232979E+00
         -2   -1    0    0    0  501 -0.00000000000E+00  0.00000000000E+00  0.57643943183E+02  0.57643943183E+02  0.00000000000E+00 0.  1.
          2   -1    0    0  501    0  0.00000000000E+00 -0.00000000000E+00 -0.34308210809E+03  0.34308210809E+03  0.00000000000E+00 0. -1.
         25    2    1    2    0    0 -0.82331976270E+02  0.12536418805E+02 -0.20238908873E+03  0.25207943744E+03  0.12508790282E+03 0.  0.
          5    1    3    3  502    0  0.36806747034E+01  0.49267707988E+02 -0.36399101576E+02  0.61507897153E+02  0.41800000000E+01 0.  1.
         -5    1    3    3    0  502 -0.86012650974E+02 -0.36731289183E+02 -0.16598998715E+03  0.19057154029E+03  0.41800000000E+01 0.  1.
        -11    1    1    2    0    0 -0.11655318286E+02 -0.10180020282E+02  0.82992354284E+01  0.17560084453E+02  0.00000000000E+00 0.  1.
         11    1    1    2    0    0  0.93987294556E+02 -0.23563985233E+01 -0.91348311612E+02  0.13108652939E+03  0.00000000000E+00 0. -1.
</event>
<event>
 7    1  0.2899775E-009  0.9468529E+02  0.7561462E-02  0.1291886E+00
          1   -1    0    0  501    0  0.00000000000E+00  0.00000000000E+00  0.86396449581E+02  0.86396449581E+02  0.00000000000E+00 0. -1.
         -1   -1    0    0    0  501 -0.00000000000E+00 -0.00000000000E+00 -0.15978174913E+03  0.15978174913E+03  0.00000000000E+00 0.  1.
         25    2    1    2    0    0  0.24792742582E+02 -0.12726893367E+02 -0.80173938582E+02  0.15116711685E+03  0.12508790065E+03 0.  0.
          5    1    3    3  502    0  0.58620418292E+02 -0.25482012014E+02 -0.92699918630E+02  0.11267845265E+03  0.41800000000E+01 0. -1.
         -5    1    3    3    0  502 -0.33827675710E+02  0.12755118646E+02  0.12525980048E+02  0.38488664198E+02  0.41800000000E+01 0. -1.
        -11    1    1    2    0    0 -0.55246147342E+02  0.17811380911E+02  0.20045864898E+02  0.61410249842E+02  0.00000000000E+00 0. -1.
         11    1    1    2    0    0  0.30453404760E+02 -0.50844875443E+01 -0.13257225864E+02  0.33600832024E+02  0.00000000000E+00 0.  1.
</event>
<event>
 7    1  0.2899775E-009  0.1115729E+03  0.7561462E-02  0.1257685E+00
          2   -1    0    0  501    0  0.00000000000E+00  0.00000000000E+00  0.35539038670E+02  0.35539038670E+02  0.00000000000E+00 0.  1.
         -2   -1    0    0    0  501 -0.00000000000E+00 -0.00000000000E+00 -0.63716418346E+03  0.63716418346E+03  0.00000000000E+00 0. -1.
         25    2    1    2    0    0  0.13644155711E+02  0.10289058237E+03 -0.33420750793E+03  0.37163856681E+03  0.12509169060E+03 0.  0.
          5    1    3    3  502    0 -0.51058049372E+01  0.31604803872E+02 -0.31396562155E+01  0.32438599122E+02  0.41800000000E+01 0. -1.
         -5    1    3    3    0  502  0.18749960648E+02  0.71285778501E+02 -0.33106785171E+03  0.33919996769E+03  0.41800000000E+01 0. -1.
        -11    1    1    2    0    0  0.19772494071E+02 -0.56483104002E+02 -0.55681529512E+02  0.81741820926E+02  0.00000000000E+00 0.  1.
         11    1    1    2    0    0 -0.33416649783E+02 -0.46407478370E+02 -0.21173610735E+03  0.21932283440E+03  0.00000000000E+00 0. -1.
</event>
<event>
 7    1  0.2899775E-009  0.1702669E+03  0.7561462E-02  0.1177570E+00
         -1   -1    0    0    0  501 -0.00000000000E+00  0.00000000000E+00  0.37102837344E+02  0.37102837344E+02  0.00000000000E+00 0.  1.
          1   -1    0    0  501    0  0.00000000000E+00 -0.00000000000E+00 -0.11615754473E+04  0.11615754473E+04  0.00000000000E+00 0. -1.
         25    2    1    2    0    0 -0.10318550456E+03  0.97432698971E+02 -0.88395366790E+03  0.90397047724E+03  0.12509259589E+03 0.  0.
          5    1    3    3  502    0 -0.46092277239E+02 -0.21937020525E+02 -0.15954861597E+03  0.16756778971E+03  0.41800000000E+01 0. -1.
         -5    1    3    3    0  502 -0.57093227321E+02  0.11936971950E+03 -0.72440505193E+03  0.73640268753E+03  0.41800000000E+01 0. -1.
        -11    1    1    2    0    0  0.94691587681E+02 -0.10782913837E+03 -0.24184612059E+03  0.28121729304E+03  0.00000000000E+00 0. -1.
         11    1    1    2    0    0  0.84939168789E+01  0.10396439398E+02  0.13271784966E+01  0.13490514403E+02  0.00000000000E+00 0.  1.
</event>
<event>
 7    1  0.2899775E-009  0.9748971E+02  0.7561462E-02  0.1285665E+00
          2   -1    0    0  501    0  0.00000000000E+00  0.00000000000E+00  0.62914455316E+03  0.62914455316E+03  0.00000000000E+00 0. -1.
         -2   -1    0    0    0  501 -0.00000000000E+00 -0.00000000000E+00 -0.19308561129E+02  0.19308561129E+02  0.00000000000E+00 0.  1.
         25    2    1    2    0    0 -0.94979813929E+01 -0.48955093006E+01  0.38985192594E+03  0.40957021829E+03  0.12509621051E+03 0.  0.
          5    1    3    3  502    0  0.43509495645E+02 -0.37517353390E+02  0.12757437167E+03  0.13997614340E+03  0.41800000000E+01 0.  1.
         -5    1    3    3    0  502 -0.53007477038E+02  0.32621844089E+02  0.26227755428E+03  0.26959407488E+03  0.41800000000E+01 0.  1.
        -11    1    1    2    0    0  0.39308879139E+02  0.16990818462E+02  0.49780711411E+02  0.65665783478E+02  0.00000000000E+00 0.  1.
         11    1    1    2    0    0 -0.29810897746E+02 -0.12095309162E+02  0.17020335467E+03  0.17321711252E+03  0.00000000000E+00 0. -1.
</event>
<event>
 7    1  0.2899775E-009  0.1173479E+03  0.7561462E-02  0.1247537E+00
         -1   -1    0    0    0  501 -0.00000000000E+00  0.00000000000E+00  0.10355592482E+03  0.10355592482E+03  0.00000000000E+00 0.  1.
          1   -1    0    0  501    0  0.00000000000E+00 -0.00000000000E+00 -0.16919438940E+03  0.16919438940E+03  0.00000000000E+00 0. -1.
         25    2    1    2    0    0  0.23298119385E+02  0.70753057141E+02 -0.42473955231E+02  0.15165916658E+03  0.12509064103E+03 0.  0.
          5    1    3    3  502    0 -0.15379973545E+02  0.96855949415E+02 -0.35033485792E+02  0.10422301114E+03  0.41800000000E+01 0. -1.
         -5    1    3    3    0  502  0.38678092930E+02 -0.26102892274E+02 -0.74404694385E+01  0.47436155444E+02  0.41800000000E+01 0. -1.
        -11    1    1    2    0    0 -0.94422564245E+01  0.63313586929E+01  0.26166992093E+02  0.28529875297E+02  0.00000000000E+00 0.  1.
         11    1    1    2    0    0 -0.13855862961E+02 -0.77084415834E+02 -0.49331501443E+02  0.92561272341E+02  0.00000000000E+00 0. -1.
</event>
<event>
 7    1  0.2899775E-009  0.4143947E+03  0.7561462E-02  0.1038906E+00
          2   -1    0    0  501    0  0.00000000000E+00  0.00000000000E+00  0.51811881951E+03  0.51811881951E+03  0.00000000000E+00 0. -1.
         -2   -1    0    0    0  501 -0.00000000000E+00 -0.00000000000E+00 -0.41132360495E+03  0.41132360495E+03  0.00000000000E+00 0.  1.
         25    2    1    2    0    0 -0.10172804634E+03 -0.40016893920E+03 -0.12054193249E+03  0.44795290218E+03  0.12509064619E+03 0.  0.
          5    1    3    3  502    0 -0.56591592204E+02 -0.25493473195E+03 -0.13699372790E+03  0.29492215880E+03  0.41800000000E+01 0. -1.
         -5    1    3    3    0  502 -0.45136454136E+02 -0.14523420725E+03  0.16451795413E+02  0.15303074338E+03  0.41800000000E+01 0. -1.
        -11    1    1    2    0    0  0.47458702590E+01  0.98127399144E+02  0.98432861906E+02  0.13907026300E+03  0.00000000000E+00 0.  1.
         11    1    1    2    0    0  0.96982176081E+02  0.30204154006E+03  0.12890428515E+03  0.34241925928E+03  0.00000000000E+00 0. -1.
</event>
<event>
 7    1  0.2899775E-009  0.8910246E+02  0.7561462E-02  0.1305040E+00
         -2   -1    0    0    0  501 -0.00000000000E+00  0.00000000000E+00  0.56763533317E+02  0.56763533317E+02  0.00000000000E+00 0.  1.
          2   -1    0    0  501    0  0.00000000000E+00 -0.00000000000E+00 -0.46023805819E+03  0.46023805819E+03  0.00000000000E+00 0. -1.
         25    2    1    2    0    0  0.12227793571E+02 -0.48074145812E+02 -0.39067769813E+03  0.41320352237E+03  0.12508974640E+03 0.  0.
          5    1    3    3  502    0 -0.45114145093E+02 -0.36735739758E+02 -0.29724466845E+03  0.30291362793E+03  0.41800000000E+01 0.  1.
         -5    1    3    3    0  502  0.57341938663E+02 -0.11338406054E+02 -0.93433029681E+02  0.11028989445E+03  0.41800000000E+01 0.  1.
        -11    1    1    2    0    0 -0.18683720977E+02  0.74075130218E+01 -0.46454778954E+02  0.50616194705E+02  0.00000000000E+00 0. -1.
         11    1    1    2    0    0  0.64559274056E+01  0.40666632790E+02  0.33657952209E+02  0.53181874431E+02  0.00000000000E+00 0.  1.
</event>
<event>
 7    1  0.2899775E-009  0.8047855E+02  0.7561462E-02  0.1327699E+00
          2   -1    0    0  501    0  0.00000000000E+00  0.00000000000E+00  0.29241884760E+03  0.29241884760E+03  0.00000000000E+00 0. -1.
         -2   -1    0    0    0  501 -0.00000000000E+00 -0.00000000000E+00 -0.84680098766E+02  0.84680098766E+02  0.00000000000E+00 0.  1.
         25    2    1    2    0    0  0.60285092037E+02  0.96245449851E+01  0.22918693694E+03  0.26814358756E+03  0.12508959707E+03 0.  0.
          5    1    3    3  502    0  0.48893062298E+02 -0.19708959714E+01  0.24205968533E+03  0.24699145661E+03  0.41800000000E+01 0. -1.
         -5    1    3    3    0  502  0.11392029739E+02  0.11595440957E+02 -0.12872748393E+02  0.21152130950E+02  0.41800000000E+01 0. -1.
        -11    1    1    2    0    0 -0.35778654576E+01  0.27208444005E+02 -0.30160652325E+02  0.40777021655E+02  0.00000000000E+00 0.  1.
         11    1    1    2    0    0 -0.56707226579E+02 -0.36832988990E+02  0.87124642143E+01  0.68178337153E+02  0.00000000000E+00 0. -1.
</event>
<event>
 7    1  0.2899775E-009  0.1943928E+03  0.7561462E-02  0.1154558E+00
         -1   -1    0    0    0  501 -0.00000000000E+00  0.00000000000E+00  0.36351196864E+03  0.36351196864E+03  0.00000000000E+00 0.  1.
          1   -1    0    0  501    0  0.00000000000E+00 -0.00000000000E+00 -0.11968679454E+03  0.11968679454E+03  0.00000000000E+00 0. -1.
         25    2    1    2    0    0 -0.15823761933E+03  0.80556550428E+02  0.12509693511E+03  0.25065114214E+03  0.12509296501E+03 0.  0.
          5    1    3    3  502    0 -0.39716793114E+02 -0.19555760228E+02  0.75673671486E+02  0.87771455323E+02  0.41800000000E+01 0. -1.
         -5    1    3    3    0  502 -0.11852082622E+03  0.10011231066E+03  0.49423263627E+02  0.16287968682E+03  0.41800000000E+01 0. -1.
        -11    1    1    2    0    0  0.29463902602E+02 -0.47952393307E+02  0.29857760205E+01  0.56360167129E+02  0.00000000000E+00 0. -1.
         11    1    1    2    0    0  0.12877371673E+03 -0.32604157122E+02  0.11574246297E+03  0.17618745391E+03  0.00000000000E+00 0.  1.
</event>
<event>
 7    1  0.3121849E-009  0.7395710E+02  0.7561462E-02  0.1347131E+00
          1   -1    0    0  501    0  0.00000000000E+00  0.00000000000E+00  0.97312672193E+02  0.97312672193E+02  0.00000000000E+00 0. -1.
         -1   -1    0    0    0  501 -0.00000000000E+00 -0.00000000000E+00 -0.15733249460E+03  0.15733249460E+03  0.00000000000E+00 0.  1.
         25    2    1    2    0    0  0.51330025593E+02  0.29971341886E+01 -0.64801148415E+02  0.14997314872E+03  0.12509597180E+03 0.  0.
          5    1    3    3  502    0  0.39578174273E+02 -0.23534234924E+02 -0.96372039848E+02  0.10688935661E+03  0.41800000000E+01 0. -1.
         -5    1    3    3    0  502  0.11751851320E+02  0.26531369112E+02  0.31570891433E+02  0.43083792107E+02  0.41800000000E+01 0. -1.
        -11    1    1    2    0    0  0.97072730482E+01  0.47976479333E+01 -0.31451888094E+02  0.33263641418E+02  0.00000000000E+00 0.  1.
         11    1    1    2    0    0 -0.61037298641E+02 -0.77947821219E+01  0.36233214097E+02  0.71408376662E+02  0.00000000000E+00 0. -1.
</event>
<event>
 7    1  0.2899775E-009  0.9220384E+02  0.7561462E-02  0.1297601E+00
         -2   -1    0    0    0  501 -0.00000000000E+00  0.00000000000E+00  0.86198677571E+02  0.86198677571E+02  0.00000000000E+00 0.  1.
          2   -1    0    0  501    0  0.00000000000E+00 -0.00000000000E+00 -0.15296679494E+03  0.15296679494E+03  0.00000000000E+00 0. -1.
         25    2    1    2    0    0  0.14679747054E+02 -0.34438586921E+02 -0.33960139841E+02  0.13492144495E+03  0.12509593905E+03 0.  0.
          5    1    3    3  502    0  0.12260952366E+02  0.27953378165E+02 -0.59759042118E+02  0.67233457583E+02  0.41800000000E+01 0.  1.
         -5    1    3    3    0  502  0.24187946882E+01 -0.62391965087E+02  0.25798902277E+02  0.67687987367E+02  0.41800000000E+01 0.  1.
        -11    1    1    2    0    0 -0.35132858868E+02 -0.14478466601E+02  0.60909877421E+01  0.38484333163E+02  0.00000000000E+00 0.  1.
         11    1    1    2    0    0  0.20453111815E+02  0.48917053522E+02 -0.38898965270E+02  0.65759694397E+02  0.00000000000E+00 0. -1.
</event>
<event>
 7    1  0.2899775E-009  0.1298374E+03  0.7561462E-02  0.1227697E+00
         -1   -1    0    0    0  501 -0.00000000000E+00  0.00000000000E+00  0.56838479527E+02  0.56838479527E+02  0.00000000000E+00 0.  1.
          1   -1    0    0  501    0  0.00000000000E+00 -0.00000000000E+00 -0.44745281680E+03  0.44745281680E+03  0.00000000000E+00 0. -1.
         25    2    1    2    0    0  0.24570424763E+02 -0.71217844887E+02 -0.35018710583E+03  0.37941305620E+03  0.12509025111E+03 0.  0.
          5    1    3    3  502    0 -0.47028123097E+01  0.33423904253E+02 -0.53177428114E+02  0.63123569924E+02  0.41800000000E+01 0. -1.
         -5    1    3    3    0  502  0.29273237073E+02 -0.10464174914E+03 -0.29700967772E+03  0.31628948628E+03  0.41800000000E+01 0. -1.
        -11    1    1    2    0    0 -0.55607195254E+02  0.64514040688E+02 -0.37269782418E+02  0.92969125474E+02  0.00000000000E+00 0. -1.
         11    1    1    2    0    0  0.31036770491E+02  0.67038041991E+01 -0.31574490201E+01  0.31909114647E+02  0.00000000000E+00 0.  1.
</event>
<event>
 7    1  0.2899775E-009  0.1671452E+03  0.7561462E-02  0.1180858E+00
          2   -1    0    0  501    0  0.00000000000E+00  0.00000000000E+00  0.52752581452E+03  0.52752581452E+03  0.00000000000E+00 0. -1.
         -2   -1    0    0    0  501 -0.00000000000E+00 -0.00000000000E+00 -0.63560872421E+02  0.63560872421E+02  0.00000000000E+00 0.  1.
         25    2    1    2    0    0  0.14525766246E+03  0.21209459068E+02  0.27760874741E+03  0.33802932347E+03  0.12509027632E+03 0.  0.
          5    1    3    3  502    0  0.16378642456E+03  0.25486023994E+02  0.20941042304E+03  0.26710621102E+03  0.41800000000E+01 0.  1.
         -5    1    3    3    0  502 -0.18528762098E+02 -0.42765649259E+01  0.68198324368E+02  0.70923112446E+02  0.41800000000E+01 0.  1.
        -11    1    1    2    0    0 -0.23259522680E+02 -0.13213044634E+02 -0.37694432761E+01  0.27014785700E+02  0.00000000000E+00 0.  1.
         11    1    1    2    0    0 -0.12199813978E+03 -0.79964144339E+01  0.19012563797E+03  0.22604257777E+03  0.00000000000E+00 0. -1.
</event>
<event>
 7    1  0.2899775E-009  0.1048742E+03  0.7561462E-02  0.1270368E+00
         -2   -1    0    0    0  501 -0.00000000000E+00  0.00000000000E+00  0.34796044187E+02  0.34796044187E+02  0.00000000000E+00 0.  1.
          2   -1    0    0  501    0  0.00000000000E+00 -0.00000000000E+00 -0.48555351225E+03  0.48555351225E+03  0.00000000000E+00 0. -1.
         25    2    1    2    0    0  0.48291896629E+02  0.24669445890E+02 -0.35231010880E+03  0.37777021024E+03  0.12508888896E+03 0.  0.
          5    1    3    3  502    0 -0.10604865134E+02  0.48215428348E+02 -0.56229402589E+02  0.74942703519E+02  0.41800000000E+01 0.  1.
         -5    1    3    3    0  502  0.58896761763E+02 -0.23545982458E+02 -0.29608070621E+03  0.30282750672E+03  0.41800000000E+01 0.  1.
        -11    1    1    2    0    0 -0.70545443739E+02 -0.23485797437E+02 -0.94006767619E+02  0.11985622500E+03  0.00000000000E+00 0. -1.
         11    1    1    2    0    0  0.22253547110E+02 -0.11836484527E+01 -0.44405916434E+01  0.22723121194E+02  0.00000000000E+00 0.  1.
</event>
<event>
 7    1  0.2899775E-009  0.9371944E+02  0.7561462E-02  0.1294087E+00
          3   -1    0    0  501    0  0.00000000000E+00  0.00000000000E+00  0.19328078417E+03  0.19328078417E+03  0.00000000000E+00 0. -1.
         -3   -1    0    0    0  501 -0.00000000000E+00 -0.00000000000E+00 -0.11125545794E+03  0.11125545794E+03  0.00000000000E+00 0.  1.
         25    2    1    2    0    0 -0.71452346479E+01  0.77309838727E+02 -0.19046916361E+02  0.14845377023E+03  0.12509145187E+03 0.  0.
          5    1    3    3  502    0  0.31537071603E+01  0.20561148282E+02  0.52402803531E+02  0.56535235964E+02  0.41800000000E+01 0. -1.
         -5    1    3    3    0  502 -0.10298941808E+02  0.56748690445E+02 -0.71449719892E+02  0.91918534269E+02  0.41800000000E+01 0. -1.
        -11    1    1    2    0    0  0.34693256334E+02 -0.72577134007E+02  0.99687910618E+02  0.12809661174E+03  0.00000000000E+00 0. -1.
         11    1    1    2    0    0 -0.27548021686E+02 -0.47327047196E+01  0.13843319763E+01  0.27985860140E+02  0.00000000000E+00 0.  1.
</event>
<event>
 7    1  0.2899775E-009  0.9565983E+02  0.7561462E-02  0.1289697E+00
         -1   -1    0    0    0  501 -0.00000000000E+00  0.00000000000E+00  0.60936869685E+02  0.60936869685E+02  0.00000000000E+00 0.  1.
          1   -1    0    0  501    0  0.00000000000E+00 -0.00000000000E+00 -0.25376483169E+03  0.25376483169E+03  0.00000000000E+00 0. -1.
         25    2    1    2    0    0  0.54757224729E+02  0.30925183011E+02 -0.14390304086E+03  0.20077010764E+03  0.12508329364E+03 0.  0.
          5    1    3    3  502    0 -0.16598843131E+02 -0.29877298923E+02 -0.75587073735E+01  0.35253099742E+02  0.41800000000E+01 0. -1.
         -5    1    3    3    0  502  0.71356067861E+02  0.60802481934E+02 -0.13634433348E+03  0.16551700790E+03  0.41800000000E+01 0. -1.
        -11    1    1    2    0    0 -0.35052060523E+02 -0.17302111788E+02  0.17862604250E+02  0.42977699448E+02  0.00000000000E+00 0.  1.
         11    1    1    2    0    0 -0.19705164207E+02 -0.13623071223E+02 -0.66787525397E+02  0.70953894288E+02  0.00000000000E+00 0. -1.
</event>
<event>
 7    1  0.2899775E-009  0.9129292E+02  0.7561462E-02  0.1299751E+00
          2   -1    0    0  501    0  0.00000000000E+00  0.00000000000E+00  0.23181745470E+02  0.23181745470E+02  0.00000000000E+00 0. -1.
         -2   -1    0    0    0  501 -0.00000000000E+00 -0.00000000000E+00 -0.55742408915E+03  0.55742408915E+03  0.00000000000E+00 0.  1.
         25    2    1    2    0    0  0.26038020544E+02 -0.44726016090E+01 -0.36359539845E+03  0.38542052246E+03  0.12509749269E+03 0.  0.
          5    1    3    3  502    0  0.24826086119E+02  0.58875598511E+02 -0.16878398037E+03  0.18052195180E+03  0.41800000000E+01 0. -1.
         -5    1    3    3    0  502  0.12119344249E+01 -0.63348200119E+02 -0.19481141808E+03  0.20489857066E+03  0.41800000000E+01 0. -1.
        -11    1    1    2    0    0 -0.40136519502E+02 -0.40200894343E+00 -0.17508079791E+03  0.17962290390E+03  0.00000000000E+00 0.  1.
         11    1    1    2    0    0  0.14098498958E+02  0.48746105524E+01  0.44338526895E+01  0.15562408252E+02  0.00000000000E+00 0. -1.
</event>
<event>
 7    1  0.2899775E-009  0.9997639E+02  0.7561462E-02  0.1280346E+00
         -2   -1    0    0    0  501 -0.00000000000E+00  0.00000000000E+00  0.21623624538E+03  0.21623624538E+03  0.00000000000E+00 0.  1.
          2   -1    0    0  501    0  0.00000000000E+00 -0.00000000000E+00 -0.94254877603E+02  0.94254877603E+02  0.00000000000E+00 0. -1.
         25    2    1    2    0    0 -0.46977027093E+02  0.38933302837E+02  0.14419730408E+03  0.20040623943E+03  0.12508858923E+03 0.  0.
          5    1    3    3  502    0 -0.21357633519E+02 -0.33468172163E+02  0.10850082751E+03  0.11561214914E+03  0.41800000000E+01 0. -1.
         -5    1    3    3    0  502 -0.25619393574E+02  0.72401475000E+02  0.35696476569E+02  0.84794090294E+02  0.41800000000E+01 0. -1.
        -11    1    1    2    0    0  0.58826381546E+01  0.14535370637E+02 -0.37754716350E+02  0.40881548869E+02  0.00000000000E+00 0. -1.
         11    1    1    2    0    0  0.41094388939E+02 -0.53468673474E+02  0.15538780041E+02  0.69203334677E+02  0.00000000000E+00 0.  1.
</event>
<event>
 7    1  0.2899775E-009  0.2395385E+03  0.7561462E-02  0.1120101E+00
         -2   -1    0    0    0  501 -0.00000000000E+00  0.00000000000E+00  0.83793890286E+03  0.83793890286E+03  0.00000000000E+00 0. -1.
          2   -1    0    0  501    0  0.00000000000E+00 -0.00000000000E+00 -0.77910740379E+02  0.77910740379E+02  0.00000000000E+00 0.  1.
         25    2    1    2    0    0 -0.22666990919E+03 -0.45112110403E+02  0.39815488588E+03  0.47706359169E+03  0.12509199463E+03 0.  0.
          5    1    3    3  502    0 -0.98846346051E+02 -0.40883456148E+02  0.78498203284E+02  0.13274598839E+03  0.41800000000E+01 0.  1.
         -5    1    3    3    0  502 -0.12782356314E+03 -0.42286542555E+01  0.31965668260E+03  0.34431760330E+03  0.41800000000E+01 0.  1.
        -11    1    1    2    0    0  0.12221577073E+03  0.63935935854E+02  0.24307197172E+03  0.27947894723E+03  0.00000000000E+00 0. -1.
         11    1    1    2    0    0  0.10445413846E+03 -0.18823825451E+02  0.11880130488E+03  0.15930710432E+03  0.00000000000E+00 0.  1.
</event>
<event>
 7    1  0.2899775E-009  0.1409174E+03  0.7561462E-02  0.1212100E+00
          1   -1    0    0  501    0  0.00000000000E+00  0.00000000000E+00  0.37971409705E+03  0.37971409705E+03  0.00000000000E+00 0. -1.
         -1   -1    0    0    0  501 -0.00000000000E+00 -0.00000000000E+00 -0.74149784150E+02  0.74149784150E+02  0.00000000000E+00 0.  1.
         25    2    1    2    0    0  0.94461500356E+02 -0.32933956778E+02  0.55034183894E+02  0.16936283371E+03  0.12508951790E+03 0.  0.
          5    1    3    3  502    0  0.34345042926E+02 -0.72780590079E+02  0.35746287546E+01  0.80665027345E+02  0.41800000000E+01 0.  1.
         -5    1    3    3    0  502  0.60116457430E+02  0.39846633301E+02  0.51459555139E+02  0.88697806368E+02  0.41800000000E+01 0.  1.
        -11    1    1    2    0    0 -0.18041024388E+02 -0.26593706797E+02  0.10395218622E+03  0.10880606979E+03  0.00000000000E+00 0. -1.
         11    1    1    2    0    0 -0.76420475968E+02  0.59527663575E+02  0.14657794278E+03  0.17569497770E+03  0.00000000000E+00 0.  1.
</event>
<event>
 7    1  0.2899775E-009  0.1145002E+03  0.7561462E-02  0.1252456E+00
         -1   -1    0    0    0  501 -0.00000000000E+00  0.00000000000E+00  0.30138646608E+02  0.30138646608E+02  0.00000000000E+00 0.  1.
          1   -1    0    0  501    0  0.00000000000E+00 -0.00000000000E+00 -0.52220736142E+03  0.52220736142E+03  0.00000000000E+00 0. -1.
         25    2    1    2    0    0 -0.22875215972E+02  0.54606198523E+02 -0.31942714859E+03  0.34811349329E+03  0.12507673057E+03 0.  0.
          5    1    3    3  502    0  0.27738854487E+02  0.67166596499E+02 -0.10750399576E+03  0.12982826055E+03  0.41800000000E+01 0.  1.
         -5    1    3    3    0  502 -0.50614070460E+02 -0.12560397976E+02 -0.21192315283E+03  0.21828523273E+03  0.41800000000E+01 0.  1.
        -11    1    1    2    0    0  0.42036565642E+02  0.40087308793E+01 -0.40972363539E+02  0.58837720454E+02  0.00000000000E+00 0.  1.
         11    1    1    2    0    0 -0.19161349669E+02 -0.58614929402E+02 -0.13166920269E+03  0.14539479429E+03  0.00000000000E+00 0. -1.
</event>
<event>
 7    1  0.2899775E-009  0.1153739E+03  0.7561462E-02  0.1250930E+00
         -2   -1    0    0    0  501 -0.00000000000E+00  0.00000000000E+00  0.70450381562E+02  0.70450381562E+02  0.00000000000E+00 0.  1.
          2   -1    0    0  501    0  0.00000000000E+00 -0.00000000000E+00 -0.25375625840E+03  0.25375625840E+03  0.00000000000E+00 0. -1.
         25    2    1    2    0    0  0.11666717051E+02  0.64711194413E+02 -0.51973861572E+02  0.15057278855E+03  0.12508889397E+03 0.  0.
          5    1    3    3  502    0 -0.44098749975E+02  0.14848136710E+00  0.95412471589E+01  0.45312576548E+02  0.41800000000E+01 0.  1.
         -5    1    3    3    0  502  0.55765467026E+02  0.64562713046E+02 -0.61515108731E+02  0.10526021200E+03  0.41800000000E+01 0.  1.
        -11    1    1    2    0    0  0.86900623192E+01  0.15778236166E+02  0.28927660135E+00  0.18015371231E+02  0.00000000000E+00 0.  1.
         11    1    1    2    0    0 -0.20356779370E+02 -0.80489430579E+02 -0.13162129187E+03  0.15561848018E+03  0.00000000000E+00 0. -1.
</event>
<event>
 7    1  0.2899775E-009  0.8409632E+02  0.7561462E-02  0.1317813E+00
         -2   -1    0    0    0  501 -0.00000000000E+00  0.00000000000E+00  0.10858341344E+02  0.10858341344E+02  0.00000000000E+00 0.  1.
          2   -1    0    0  501    0  0.00000000000E+00 -0.00000000000E+00 -0.14242001083E+04  0.14242001083E+04  0.00000000000E+00 0. -1.
         25    2    1    2    0    0  0.11357280146E+02  0.39375442745E+02 -0.10432968553E+04  0.10515680822E+04  0.12509072674E+03 0.  0.
          5    1    3    3  502    0  0.27063720030E+02  0.79723647018E+00 -0.47071377307E+02  0.54463450950E+02  0.41800000000E+01 0.  1.
         -5    1    3    3    0  502 -0.15706439884E+02  0.38578206275E+02 -0.99622547800E+03  0.99710463125E+03  0.41800000000E+01 0.  1.
        -11    1    1    2    0    0 -0.27011190357E+02 -0.64163443090E+02 -0.22547431295E+03  0.23597715489E+03  0.00000000000E+00 0.  1.
         11    1    1    2    0    0  0.15653910211E+02  0.24788000344E+02 -0.14457059872E+03  0.14751321256E+03  0.00000000000E+00 0. -1.
</event>
<event>
 7    1  0.2899775E-009  0.1823850E+03  0.7561462E-02  0.1165515E+00
          3   -1    0    0  501    0  0.00000000000E+00  0.00000000000E+00  0.96366813176E+02  0.96366813176E+02  0.00000000000E+00 0. -1.
         -3   -1    0    0    0  501 -0.00000000000E+00 -0.00000000000E+00 -0.39321078570E+03  0.39321078570E+03  0.00000000000E+00 0.  1.
         25    2    1    2    0    0 -0.81935802548E+02  0.13438703166E+03 -0.19642567549E+03  0.28107958248E+03  0.12509730483E+03 0.  0.
          5    1    3    3  502    0 -0.70702095134E+02  0.10863249826E+02 -0.10420169350E+03  0.12646051472E+03  0.41800000000E+01 0. -1.
         -5    1    3    3    0  502 -0.11233707415E+02  0.12352378184E+03 -0.92223981988E+02  0.15461906776E+03  0.41800000000E+01 0. -1.
        -11    1    1    2    0    0 -0.88380249267E+01 -0.26946314272E+02 -0.52922692647E+02  0.60041868179E+02  0.00000000000E+00 0.  1.
         11    1    1    2    0    0  0.90773827475E+02 -0.10744071739E+03 -0.47495604388E+02  0.14845614822E+03  0.00000000000E+00 0. -1.
</event>
<event>
 7    1  0.2899775E-009  0.1966989E+03  0.7561462E-02  0.1152554E+00
         -1   -1    0    0    0  501 -0.00000000000E+00  0.00000000000E+00  0.27346253120E+02  0.27346253120E+02  0.00000000000E+00 0.  1.
          1   -1    0    0  501    0  0.00000000000E+00 -0.00000000000E+00 -0.15750043486E+04  0.15750043486E+04  0.00000000000E+00 0. -1.
         25    2    1    2    0    0  0.15639074629E+03 -0.64596283433E+02 -0.98696809212E+03  0.10091505032E+04  0.12509187808E+03 0.  0.
          5    1    3    3  502    0  0.94830251588E+02 -0.10107744976E+03 -0.63700030566E+03  0.65191739452E+03  0.41800000000E+01 0. -1.
         -5    1    3    3    0  502  0.61560494706E+02  0.36481166324E+02 -0.34996778645E+03  0.35723310871E+03  0.41800000000E+01 0. -1.
        -11    1    1    2    0    0 -0.12249241004E+02  0.33403348911E+02 -0.20634906561E+03  0.20939380244E+03  0.00000000000E+00 0. -1.
         11    1    1    2    0    0 -0.14414150529E+03  0.31192934522E+02 -0.35434093772E+03  0.38380629601E+03  0.00000000000E+00 0.  1.
</event>
<event>
 7    1  0.2899775E-009  0.1041754E+03  0.7561462E-02  0.1271753E+00
          2   -1    0    0  501    0  0.00000000000E+00  0.00000000000E+00  0.40406693205E+03  0.40406693205E+03  0.00000000000E+00 0. -1.
         -2   -1    0    0    0  501 -0.00000000000E+00 -0.00000000000E+00 -0.42525364751E+02  0.42525364751E+02  0.00000000000E+00 0.  1.
         25    2    1    2    0    0  0.53643782352E+02 -0.35305070453E+02  0.26374518987E+03  0.29888723695E+03  0.12509177370E+03 0.  0.
          5    1    3    3  502    0 -0.23947536146E+02  0.17139889506E+02  0.14279538999E+03  0.14586039936E+03  0.41800000000E+01 0. -1.
         -5    1    3    3    0  502  0.77591318497E+02 -0.52444959960E+02  0.12094979988E+03  0.15302683759E+03  0.41800000000E+01 0. -1.
        -11    1    1    2    0    0  0.75492803257E+01  0.20579197305E+02  0.79049584650E+02  0.82032504707E+02  0.00000000000E+00 0.  1.
         11    1    1    2    0    0 -0.61193062677E+02  0.14725873148E+02  0.18746792781E+02  0.65672555146E+02  0.00000000000E+00 0. -1.
</event>
<event>
 7    1  0.2899775E-009  0.1274299E+03  0.7561462E-02  0.1231320E+00
          2   -1    0    0  501    0  0.00000000000E+00  0.00000000000E+00  0.27032351169E+03  0.27032351169E+03  0.00000000000E+00 0. -1.
         -2   -1    0    0    0  501 -0.00000000000E+00 -0.00000000000E+00 -0.77964245500E+02  0.77964245500E+02  0.00000000000E+00 0.  1.
         25    2    1    2    0    0  0.54935308119E+02 -0.50630567990E+02  0.32570113527E+02  0.14929685699E+03  0.12508955480E+03 0.  0.
          5    1    3    3  502    0 -0.26457134254E+01  0.33705971160E+02  0.32513878504E+02  0.47092642597E+02  0.41800000000E+01 0. -1.
         -5    1    3    3    0  502  0.57581021544E+02 -0.84336539150E+02  0.56235022445E-01  0.10220421440E+03  0.41800000000E+01 0. -1.
        -11    1    1    2    0    0  0.21621628715E+02  0.33926196945E+02  0.53215014447E+02  0.66710714507E+02  0.00000000000E+00 0.  1.
         11    1    1    2    0    0 -0.76556936834E+02  0.16704371045E+02  0.10657413821E+03  0.13228018569E+03  0.00000000000E+00 0. -1.
</event>
<event>
 7    1  0.2899775E-009  0.9537193E+02  0.7561462E-02  0.1290341E+00
         -3   -1    0    0    0  501 -0.00000000000E+00  0.00000000000E+00  0.33863166485E+03  0.33863166485E+03  0.00000000000E+00 0.  1.
          3   -1    0    0  501    0  0.00000000000E+00 -0.00000000000E+00 -0.78206638520E+02  0.78206638520E+02  0.00000000000E+00 0. -1.
         25    2    1    2    0    0  0.25804008791E+02 -0.40127996444E+02  0.26033658971E+03  0.29274497777E+03  0.12509348144E+03 0.  0.
          5    1    3    3  502    0  0.32199829316E+02 -0.46768582336E+02  0.27165659668E+03  0.27755883741E+03  0.41800000000E+01 0. -1.
         -5    1    3    3    0  502 -0.63958205254E+01  0.66405858925E+01 -0.11320006972E+02  0.15186140360E+02  0.41800000000E+01 0. -1.
        -11    1    1    2    0    0  0.39533185144E+02  0.42838363125E+02  0.50580089659E+01  0.58511379555E+02  0.00000000000E+00 0.  1.
         11    1    1    2    0    0 -0.65337193934E+02 -0.27103666810E+01 -0.49695723404E+01  0.65581946052E+02  0.00000000000E+00 0. -1.
</event>
<event>
 7    1  0.2899775E-009  0.8087714E+02  0.7561462E-02  0.1326581E+00
         -1   -1    0    0    0  501 -0.00000000000E+00  0.00000000000E+00  0.21146865745E+03  0.21146865745E+03  0.00000000000E+00 0.  1.
          1   -1    0    0  501    0  0.00000000000E+00 -0.00000000000E+00 -0.85155623772E+02  0.85155623772E+02  0.00000000000E+00 0. -1.
         25    2    1    2    0    0  0.25557002064E+02  0.32930362561E+02 -0.25784407204E+01  0.13187669201E+03  0.12508894598E+03 0.  0.
          5    1    3    3  502    0 -0.77071457268E+01  0.29797772423E+02  0.56156672046E+02  0.64174383923E+02  0.41800000000E+01 0. -1.
         -5    1    3    3    0  502  0.33264147791E+02  0.31325901379E+01 -0.58735112766E+02  0.67702308091E+02  0.41800000000E+01 0. -1.
        -11    1    1    2    0    0  0.28581111523E+02 -0.31958807330E+02  0.31100789154E+02  0.52967012261E+02  0.00000000000E+00 0.  1.
         11    1    1    2    0    0 -0.54138113587E+02 -0.97155523106E+00  0.97790685246E+02  0.11178057695E+03  0.00000000000E+00 0. -1.
</event>
<event>
 7    1  0.2899775E-009  0.2070145E+03  0.7561462E-02  0.1143952E+00
         -1   -1    0    0    0  501 -0.00000000000E+00  0.00000000000E+00  0.95003068284E+03  0.95003068284E+03  0.00000000000E+00 0.  1.
          1   -1    0    0  501    0  0.00000000000E+00 -0.00000000000E+00 -0.55247913360E+02  0.55247913360E+02  0.00000000000E+00 0. -1.
         25    2    1    2    0    0 -0.90666653467E+02 -0.18042220253E+03  0.46751110632E+03  0.52439176713E+03  0.12508987843E+03 0.  0.
          5    1    3    3  502    0 -0.52687602359E+02 -0.11297133464E+03  0.13854605247E+03  0.18641616601E+03  0.41800000000E+01 0.  1.
         -5    1    3    3    0  502 -0.37979051108E+02 -0.67450867885E+02  0.32896505384E+03  0.33797560112E+03  0.41800000000E+01 0.  1.
        -11    1    1    2    0    0  0.18473219410E+02  0.10784480660E+03  0.15270846106E+03  0.18786068302E+03  0.00000000000E+00 0. -1.
         11    1    1    2    0    0  0.72193434057E+02  0.72577395933E+02  0.27456320211E+03  0.29302614606E+03  0.00000000000E+00 0.  1.
</event>
<event>
 7    1  0.2899775E-009  0.1521880E+03  0.7561462E-02  0.1197810E+00
          2   -1    0    0  501    0  0.00000000000E+00  0.00000000000E+00  0.10838916673E+04  0.10838916673E+04  0.00000000000E+00 0. -1.
         -2   -1    0    0    0  501 -0.00000000000E+00 -0.00000000000E+00 -0.23207402604E+02  0.23207402604E+02  0.00000000000E+00 0.  1.
         25    2    1    2    0    0  0.86870541074E+02 -0.71237733823E+02  0.65199132782E+03  0.67332063219E+03  0.12508667615E+03 0.  0.
          5    1    3    3  502    0  0.34917997227E+01  0.33474277869E+02  0.14854779901E+03  0.15237007887E+03  0.41800000000E+01 0. -1.
         -5    1    3    3    0  502  0.83378741351E+02 -0.10471201169E+03  0.50344352882E+03  0.52095055332E+03  0.41800000000E+01 0. -1.
        -11    1    1    2    0    0 -0.77754244117E+02  0.14521091335E+02  0.15932193045E+03  0.17787653610E+03  0.00000000000E+00 0.  1.
         11    1    1    2    0    0 -0.91162969569E+01  0.56716642488E+02  0.24937100640E+03  0.25590190160E+03  0.00000000000E+00 0. -1.
</event>
<event>
 7    1  0.2899775E-009  0.1015823E+03  0.7561462E-02  0.1277003E+00
         -1   -1    0    0    0  501 -0.00000000000E+00  0.00000000000E+00  0.43086449032E+02  0.43086449032E+02  0.00000000000E+00 0.  1.
          1   -1    0    0  501    0  0.00000000000E+00 -0.00000000000E+00 -0.37721052897E+03  0.37721052897E+03  0.00000000000E+00 0. -1.
         25    2    1    2    0    0 -0.33258270582E+02  0.44917530303E+02 -0.25194155066E+03  0.28678544206E+03  0.12509055816E+03 0.  0.
          5    1    3    3  502    0 -0.75077564848E+02  0.52305363580E+02 -0.19670579939E+03  0.21698648741E+03  0.41800000000E+01 0. -1.
         -5    1    3    3    0  502  0.41819294266E+02 -0.73878332774E+01 -0.55235751264E+02  0.69798954656E+02  0.41800000000E+01 0. -1.
        -11    1    1    2    0    0  0.41043229502E+02 -0.26379697874E+02  0.11879273060E+00  0.48789847915E+02  0.00000000000E+00 0.  1.
         11    1    1    2    0    0 -0.77849589201E+01 -0.18537832429E+02 -0.82301322016E+02  0.84721688027E+02  0.00000000000E+00 0. -1.
</event>
<event>
 7    1  0.2899775E-009  0.1148354E+03  0.7561462E-02  0.1251869E+00
         -2   -1    0    0    0  501 -0.00000000000E+00  0.00000000000E+00  0.58091468137E+02  0.58091468137E+02  0.00000000000E+00 0.  1.
          2   -1    0    0  501    0  0.00000000000E+00 -0.00000000000E+00 -0.37587511282E+03  0.37587511282E+03  0.00000000000E+00 0. -1.
         25    2    1    2    0    0 -0.87598199852E+02 -0.49271008397E+02 -0.16738128968E+03  0.23188199595E+03  0.12510670254E+03 0.  0.
          5    1    3    3  502    0 -0.13045094833E+02 -0.10161704676E+02  0.20077269400E+02  0.26343953532E+02  0.41800000000E+01 0. -1.
         -5    1    3    3    0  502 -0.74553105019E+02 -0.39109303722E+02 -0.18745855908E+03  0.20553804241E+03  0.41800000000E+01 0. -1.
        -11    1    1    2    0    0  0.39130191797E+02  0.66269724845E+02 -0.11951489409E+03  0.14215012575E+03  0.00000000000E+00 0.  1.
         11    1    1    2    0    0  0.48468008055E+02 -0.16998716448E+02 -0.30887460908E+02  0.59934459262E+02  0.00000000000E+00 0. -1.
</event>
<event>
 7    1  0.2899775E-009  0.1254535E+03  0.7561462E-02  0.1234362E+00
          2   -1    0    0  501    0  0.00000000000E+00  0.00000000000E+00  0.10033394803E+04  0.10033394803E+04  0.00000000000E+00 0. -1.
         -2   -1    0    0    0  501 -0.00000000000E+00 -0.00000000000E+00 -0.20537545589E+02  0.20537545589E+02  0.00000000000E+00 0.  1.
         25    2    1    2    0    0 -0.73803060465E+02  0.17528779510E+02  0.71914332129E+03  0.73387474212E+03  0.12510344010E+03 0.  0.
          5    1    3    3  502    0 -0.38205739391E+02  0.71452643520E+02  0.42740438988E+03  0.43503694518E+03  0.41800000000E+01 0.  1.
         -5    1    3    3    0  502 -0.35597321075E+02 -0.53923864011E+02  0.29173893141E+03  0.29883779694E+03  0.41800000000E+01 0.  1.
        -11    1    1    2    0    0  0.80869878607E+02  0.53820169981E+01  0.12291504631E+03  0.14723115153E+03  0.00000000000E+00 0.  1.
         11    1    1    2    0    0 -0.70668181421E+01 -0.22910796508E+02  0.14074356715E+03  0.14277113227E+03  0.00000000000E+00 0. -1.
</event>
<event>
 7    1  0.2899775E-009  0.1108048E+03  0.7561462E-02  0.1259087E+00
         -1   -1    0    0    0  501 -0.00000000000E+00  0.00000000000E+00  0.17910118615E+02  0.17910118615E+02  0.00000000000E+00 0.  1.
          1   -1    0    0  501    0  0.00000000000E+00 -0.00000000000E+00 -0.75533238564E+03  0.75533238564E+03  0.00000000000E+00 0. -1.
         25    2    1    2    0    0 -0.24379491614E+02  0.29114968206E+02 -0.44455219266E+03  0.46337483676E+03  0.12509015291E+03 0.  0.
          5    1    3    3  502    0  0.10771123706E+02  0.73230046613E+02 -0.25706850874E+03  0.26754503811E+03  0.41800000000E+01 0.  1.
         -5    1    3    3    0  502 -0.35150615320E+02 -0.44115078407E+02 -0.18748368393E+03  0.19582979865E+03  0.41800000000E+01 0.  1.
        -11    1    1    2    0    0 -0.25658916677E+02 -0.31729088020E+02 -0.20217293671E+03  0.20624987605E+03  0.00000000000E+00 0. -1.
         11    1    1    2    0    0  0.50038408291E+02  0.26141198135E+01 -0.90697137651E+02  0.10361779145E+03  0.00000000000E+00 0.  1.
</event>
<event>
 7    1  0.2899775E-009  0.9842993E+02  0.7561462E-02  0.1283633E+00
         -2   -1    0    0    0  501 -0.00000000000E+00  0.00000000000E+00  0.54159918403E+02  0.54159918403E+02  0.00000000000E+00 0.  1.
          2   -1    0    0  501    0  0.00000000000E+00 -0.00000000000E+00 -0.24936446963E+03  0.24936446963E+03  0.00000000000E+00 0. -1.
         25    2    1    2    0    0  0.38873550336E+02  0.10231791468E+02 -0.12711081708E+03  0.18281349091E+03  0.12509104752E+03 0.  0.
          5    1    3    3  502    0 -0.13617854146E+02  0.47154309612E+02 -0.11600733982E+02  0.50606563759E+02  0.41800000000E+01 0. -1.
         -5    1    3    3    0  502  0.52491404483E+02 -0.36922518144E+02 -0.11551008309E+03  0.13220692715E+03  0.41800000000E+01 0. -1.
        -11    1    1    2    0    0 -0.16956150625E+02  0.31713627393E+02  0.21335506384E+01  0.36025230670E+02  0.00000000000E+00 0.  1.
         11    1    1    2    0    0 -0.21917399711E+02 -0.41945418861E+02 -0.70227284792E+02  0.84685666455E+02  0.00000000000E+00 0. -1.
</event>
<event>
 7    1  0.2899775E-009  0.1068465E+03  0.7561462E-02  0.1266524E+00
          2   -1    0    0  501    0  0.00000000000E+00  0.00000000000E+00  0.53643494016E+03  0.53643494016E+03  0.00000000000E+00 0.  1.
         -2   -1    0    0    0  501 -0.00000000000E+00 -0.00000000000E+00 -0.28455270403E+02  0.28455270403E+02  0.00000000000E+00 0. -1.
         25    2    1    2    0    0  0.73573188594E+01 -0.49272543540E+02  0.36461237236E+03  0.38867925058E+03  0.12508982400E+03 0.  0.
          5    1    3    3  502    0  0.54152395829E+02 -0.21567663603E+02  0.29240605968E+03  0.29818856824E+03  0.41800000000E+01 0. -1.
         -5    1    3    3    0  502 -0.46795076970E+02 -0.27704879937E+02  0.72206312672E+02  0.90490682341E+02  0.41800000000E+01 0. -1.
        -11    1    1    2    0    0  0.34714749424E+02 -0.15324122570E+01  0.34820257176E+02  0.49192605387E+02  0.00000000000E+00 0.  1.
         11    1    1    2    0    0 -0.42072068284E+02  0.50804955797E+02  0.10854704022E+03  0.12701835459E+03  0.00000000000E+00 0. -1.
</event>
<event>
 7    1  0.2899775E-009  0.2013314E+03  0.7561462E-02  0.1148621E+00
          1   -1    0    0  501    0  0.00000000000E+00  0.00000000000E+00  0.45586467274E+02  0.45586467274E+02  0.00000000000E+00 0. -1.
         -1   -1    0    0    0  501 -0.00000000000E+00 -0.00000000000E+00 -0.10322069246E+04  0.10322069246E+04  0.00000000000E+00 0.  1.
         25    2    1    2    0    0  0.58411741887E+02 -0.16008367409E+03 -0.31895745956E+03  0.38264840600E+03  0.12508887762E+03 0.  0.
          5    1    3    3  502    0 -0.81452028763E+01  0.17469226315E+02 -0.48116710770E+02  0.52002004319E+02  0.41800000000E+01 0.  1.
         -5    1    3    3    0  502  0.66556944763E+02 -0.17755290040E+03 -0.27084074879E+03  0.33064640168E+03  0.41800000000E+01 0.  1.
        -11    1    1    2    0    0 -0.48917723614E+02  0.19962911789E+02 -0.16713771919E+03  0.17528969938E+03  0.00000000000E+00 0. -1.
         11    1    1    2    0    0 -0.94940182729E+01  0.14012076230E+03 -0.50052527856E+03  0.51985528648E+03  0.00000000000E+00 0.  1.
</event>
<event>
 7    1  0.2899775E-009  0.1164193E+03  0.7561462E-02  0.1249124E+00
         -2   -1    0    0    0  501 -0.00000000000E+00  0.00000000000E+00  0.19647960510E+02  0.19647960510E+02  0.00000000000E+00 0.  1.
          2   -1    0    0  501    0  0.00000000000E+00 -0.00000000000E+00 -0.10284005459E+04  0.10284005459E+04  0.00000000000E+00 0. -1.
         25    2    1    2    0    0 -0.41509546127E+02 -0.81375073141E+02 -0.61550187391E+03  0.63468856602E+03  0.12506827775E+03 0.  0.
          5    1    3    3  502    0 -0.32024560577E+02 -0.91193879363E+02 -0.23792337325E+03  0.25684022281E+03  0.41800000000E+01 0. -1.
         -5    1    3    3    0  502 -0.94849855494E+01  0.98188062220E+01 -0.37757850066E+03  0.37784834321E+03  0.41800000000E+01 0. -1.
        -11    1    1    2    0    0  0.20654280564E+02 -0.13501492558E+02 -0.13920571944E+03  0.14137581806E+03  0.00000000000E+00 0.  1.
         11    1    1    2    0    0  0.20855265563E+02  0.94876565699E+02 -0.25404499206E+03  0.27198412235E+03  0.00000000000E+00 0. -1.
</event>
<event>
 7    1  0.2899775E-009  0.1159224E+03  0.7561462E-02  0.1249979E+00
          1   -1    0    0  501    0  0.00000000000E+00  0.00000000000E+00  0.84955980256E+03  0.84955980256E+03  0.00000000000E+00 0. -1.
         -1   -1    0    0    0  501 -0.00000000000E+00 -0.00000000000E+00 -0.17540575901E+02  0.17540575901E+02  0.00000000000E+00 0.  1.
         25    2    1    2    0    0  0.40194907339E+02  0.20626604812E+02  0.43869540780E+03  0.45841239837E+03  0.12508868355E+03 0.  0.
          5    1    3    3  502    0  0.21468113364E+02  0.71579507720E+02  0.30514365682E+03  0.31418884371E+03  0.41800000000E+01 0.  1.
         -5    1    3    3    0  502  0.18726793974E+02 -0.50952902908E+02  0.13355175098E+03  0.14422355465E+03  0.41800000000E+01 0.  1.
        -11    1    1    2    0    0 -0.64565997667E+02  0.78835285528E+01  0.31750338217E+03  0.32409769479E+03  0.00000000000E+00 0.  1.
         11    1    1    2    0    0  0.24371090328E+02 -0.28510133365E+02  0.75820436695E+02  0.84590285310E+02  0.00000000000E+00 0. -1.
</event>
<event>
 7    1  0.3057285E-009  0.7765957E+02  0.7561462E-02  0.1335828E+00
         -1   -1    0    0    0  501 -0.00000000000E+00  0.00000000000E+00  0.97502084667E+02  0.97502084667E+02  0.00000000000E+00 0.  1.
          1   -1    0    0  501    0  0.00000000000E+00 -0.00000000000E+00 -0.18284894306E+03  0.18284894306E+03  0.00000000000E+00 0. -1.
         25    2    1    2    0    0 -0.39510483934E+02 -0.14264381706E+02 -0.11601399250E+03  0.17570354250E+03  0.12509171621E+03 0.  0.
          5    1    3    3  502    0 -0.24996753982E+02 -0.55984641410E+02 -0.11990930803E+02  0.62612878907E+02  0.41800000000E+01 0.  1.
         -5    1    3    3    0  502 -0.14513729953E+02  0.41720259704E+02 -0.10402306170E+03  0.11309066360E+03  0.41800000000E+01 0.  1.
        -11    1    1    2    0    0  0.16432178997E+02 -0.72347607526E+01  0.59355344922E+02  0.62011412180E+02  0.00000000000E+00 0.  1.
         11    1    1    2    0    0  0.23078304938E+02  0.21499142459E+02 -0.28688210814E+02  0.42636073048E+02  0.00000000000E+00 0. -1.
</event>
<event>
 7    1  0.2899775E-009  0.1048255E+03  0.7561462E-02  0.1270464E+00
          1   -1    0    0  501    0  0.00000000000E+00  0.00000000000E+00  0.84079123443E+02  0.84079123443E+02  0.00000000000E+00 0. -1.
         -1   -1    0    0    0  501 -0.00000000000E+00 -0.00000000000E+00 -0.24219915431E+03  0.24219915431E+03  0.00000000000E+00 0.  1.
         25    2    1    2    0    0  0.53550391996E+02  0.51384562131E+02 -0.14854353501E+03  0.20790256568E+03  0.12510106839E+03 0.  0.
          5    1    3    3  502    0 -0.80422167549E+01  0.52152153182E+02 -0.68913982264E+01  0.53380596675E+02  0.41800000000E+01 0. -1.
         -5    1    3    3    0  502  0.61592608751E+02 -0.76759105091E+00 -0.14165213678E+03  0.15452196900E+03  0.41800000000E+01 0. -1.
        -11    1    1    2    0    0 -0.55014207155E+02 -0.12952846995E+02  0.29324088096E+02  0.63672924990E+02  0.00000000000E+00 0. -1.
         11    1    1    2    0    0  0.14638151590E+01 -0.38431715137E+02 -0.38900583953E+02  0.54702787087E+02  0.00000000000E+00 0.  1.
</event>
<event>
 7    1  0.2899775E-009  0.9912342E+02  0.7561462E-02  0.1282150E+00
          2   -1    0    0  501    0  0.00000000000E+00  0.00000000000E+00  0.75570894286E+02  0.75570894286E+02  0.00000000000E+00 0. -1.
         -2   -1    0    0    0  501 -0.00000000000E+00 -0.00000000000E+00 -0.31082901553E+03  0.31082901553E+03  0.00000000000E+00 0.  1.
         25    2    1    2    0    0 -0.24159762293E+02  0.91107284439E+02 -0.19452473195E+03  0.24974267938E+03  0.12508918087E+03 0.  0.
          5    1    3    3  502    0 -0.33716478283E+02  0.64313918885E+02 -0.23677539910E+02  0.76493002075E+02  0.41800000000E+01 0. -1.
         -5    1    3    3    0  502  0.95567159898E+01  0.26793365554E+02 -0.17084719204E+03  0.17324967730E+03  0.41800000000E+01 0. -1.
        -11    1    1    2    0    0 -0.25582619703E+01 -0.29453721208E+02 -0.59886737747E+02  0.66786883108E+02  0.00000000000E+00 0.  1.
         11    1    1    2    0    0  0.26718024263E+02 -0.61653563231E+02  0.19153348448E+02  0.69870347333E+02  0.00000000000E+00 0. -1.
</event>
<event>
 7    1  0.2899775E-009  0.1015976E+03  0.7561462E-02  0.1276972E+00
         -1   -1    0    0    0  501 -0.00000000000E+00  0.00000000000E+00  0.17313088135E+02  0.17313088135E+02  0.00000000000E+00 0.  1.
          1   -1    0    0  501    0  0.00000000000E+00 -0.00000000000E+00 -0.69432233417E+03  0.69432233417E+03  0.00000000000E+00 0. -1.
         25    2    1    2    0    0 -0.17378318851E+02 -0.20712794728E+02 -0.39550025118E+03  0.41568910984E+03  0.12508381799E+03 0.  0.
          5    1    3    3  502    0  0.32599297796E+02 -0.55914597506E+02 -0.16809733359E+03  0.18017586517E+03  0.41800000000E+01 0.  1.
         -5    1    3    3    0  502 -0.49977616647E+02  0.35201802778E+02 -0.22740291759E+03  0.23551324466E+03  0.41800000000E+01 0.  1.
        -11    1    1    2    0    0 -0.25850633410E+02  0.21807779568E+02 -0.49556298611E+02  0.59997176846E+02  0.00000000000E+00 0.  1.
         11    1    1    2    0    0  0.43228952261E+02 -0.10949848404E+01 -0.23195269624E+03  0.23594913562E+03  0.00000000000E+00 0. -1.
</event>
<event>
 7    1  0.2899775E-009  0.1983176E+03  0.7561462E-02  0.1151166E+00
          1   -1    0    0  501    0  0.00000000000E+00  0.00000000000E+00  0.26172935402E+03  0.26172935402E+03  0.00000000000E+00 0. -1.
         -1   -1    0    0    0  501 -0.00000000000E+00 -0.00000000000E+00 -0.16719280538E+03  0.16719280538E+03  0.00000000000E+00 0.  1.
         25    2    1    2    0    0  0.17004776624E+03 -0.53166862508E+02  0.39023996859E+02  0.22115689908E+03  0.12507815001E+03 0.  0.
          5    1    3    3  502    0  0.16808447975E+03 -0.13295309646E+02  0.55802715113E+02  0.17765295664E+03  0.41800000000E+01 0.  1.
         -5    1    3    3    0  502  0.19632864925E+01 -0.39871552862E+02 -0.16778718255E+02  0.43503942439E+02  0.41800000000E+01 0.  1.
        -11    1    1    2    0    0 -0.12936380548E+03  0.11938059577E+02  0.35676005190E+01  0.12996245307E+03  0.00000000000E+00 0.  1.
         11    1    1    2    0    0 -0.40683960759E+02  0.41228802931E+02  0.51944951264E+02  0.77802807250E+02  0.00000000000E+00 0. -1.
</event>
<event>
 7    1  0.2899775E-009  0.1194245E+03  0.7561462E-02  0.1244049E+00
         -2   -1    0    0    0  501 -0.00000000000E+00  0.00000000000E+00  0.17922357478E+03  0.17922357478E+03  0.00000000000E+00 0.  1.
          2   -1    0    0  501    0  0.00000000000E+00 -0.00000000000E+00 -0.15891962165E+03  0.15891962165E+03  0.00000000000E+00 0. -1.
         25    2    1    2    0    0 -0.94417361872E+02  0.34073020183E+02 -0.68624050753E+02  0.17444771969E+03  0.12508851921E+03 0.  0.
          5    1    3    3  502    0 -0.10910093505E+02  0.18871958121E+01  0.35302845072E+02  0.37233787324E+02  0.41800000000E+01 0.  1.
         -5    1    3    3    0  502 -0.83507268367E+02  0.32185824371E+02 -0.10392689582E+03  0.13721393237E+03  0.41800000000E+01 0.  1.
        -11    1    1    2    0    0  0.35033090381E+02  0.32797097662E+02  0.30011854077E+02  0.56601046119E+02  0.00000000000E+00 0.  1.
         11    1    1    2    0    0  0.59384271491E+02 -0.66870117845E+02  0.58916149802E+02  0.10709443061E+03  0.00000000000E+00 0. -1.
</event>
<event>
 7    1  0.2899775E-009  0.9302685E+02  0.7561462E-02  0.1295683E+00
          2   -1    0    0  501    0  0.00000000000E+00  0.00000000000E+00  0.32098471287E+03  0.32098471287E+03  0.00000000000E+00 0. -1.
         -2   -1    0    0    0  501 -0.00000000000E+00 -0.00000000000E+00 -0.42403069372E+02  0.42403069372E+02  0.00000000000E+00 0.  1.
         25    2    1    2    0    0  0.22829915965E+02  0.33115830557E+02  0.13304649348E+03  0.18699350107E+03  0.12508931496E+03 0.  0.
          5    1    3    3  502    0  0.55183531571E+01  0.59326380639E+02  0.14201173897E+03  0.15406128023E+03  0.41800000000E+01 0. -1.
         -5    1    3    3    0  502  0.17311562808E+02 -0.26210550083E+02 -0.89652454901E+01  0.32932220836E+02  0.41800000000E+01 0. -1.
        -11    1    1    2    0    0 -0.35147361623E+01  0.29192288062E+02  0.22102117201E+02  0.36783782260E+02  0.00000000000E+00 0.  1.
         11    1    1    2    0    0 -0.19315179803E+02 -0.62308118618E+02  0.12343303282E+03  0.13961049891E+03  0.00000000000E+00 0. -1.
</event>
<event>
 7    1  0.2899775E-009  0.4774993E+02  0.7561462E-02  0.1457870E+00
          3   -1    0    0  501    0  0.00000000000E+00  0.00000000000E+00  0.86495495459E+02  0.86495495459E+02  0.00000000000E+00 0. -1.
         -3   -1    0    0    0  501 -0.00000000000E+00 -0.00000000000E+00 -0.15257445116E+03  0.15257445116E+03  0.00000000000E+00 0.  1.
         25    2    1    2    0    0 -0.46463341981E+01  0.11121263792E+02 -0.75431701492E+02  0.14656947540E+03  0.12508956231E+03 0.  0.
          5    1    3    3  502    0  0.13333992607E+02 -0.19705958952E+02  0.28054813262E+02  0.37022494841E+02  0.41800000000E+01 0. -1.
         -5    1    3    3    0  502 -0.17980326805E+02  0.30827222745E+02 -0.10348651475E+03  0.10954698056E+03  0.41800000000E+01 0. -1.
        -11    1    1    2    0    0 -0.14167978069E+02 -0.14105411824E+01 -0.38027067735E+02  0.40605161119E+02  0.00000000000E+00 0.  1.
         11    1    1    2    0    0  0.18814312267E+02 -0.97107226100E+01  0.47379813530E+02  0.51895310095E+02  0.00000000000E+00 0. -1.
</event>
<event>
 7    1  0.2899775E-009  0.1184494E+03  0.7561462E-02  0.1245677E+00
          2   -1    0    0  501    0  0.00000000000E+00  0.00000000000E+00  0.15269658487E+03  0.15269658487E+03  0.00000000000E+00 0. -1.
         -2   -1    0    0    0  501 -0.00000000000E+00 -0.00000000000E+00 -0.16514671132E+03  0.16514671132E+03  0.00000000000E+00 0.  1.
         25    2    1    2    0    0 -0.55860870306E+00 -0.53003147945E+02 -0.11008699213E+03  0.17486067088E+03  0.12508981832E+03 0.  0.
          5    1    3    3  502    0 -0.33952892332E+02 -0.83626832080E+02 -0.73580109262E+02  0.11652360628E+03  0.41800000000E+01 0. -1.
         -5    1    3    3    0  502  0.33394283629E+02  0.30623684135E+02 -0.36506882873E+02  0.58337064601E+02  0.41800000000E+01 0. -1.
        -11    1    1    2    0    0 -0.41560083259E+02  0.38054215017E+02  0.72100570255E+02  0.91508775711E+02  0.00000000000E+00 0. -1.
         11    1    1    2    0    0  0.42118691962E+02  0.14948932928E+02  0.25536295434E+02  0.51473849602E+02  0.00000000000E+00 0.  1.
</event>
<event>
 7    1  0.2899775E-009  0.8469904E+02  0.7561462E-02  0.1316221E+00
         -2   -1    0    0    0  501 -0.00000000000E+00  0.00000000000E+00  0.41708500930E+02  0.41708500930E+02  0.00000000000E+00 0.  1.
          2   -1    0    0  501    0  0.00000000000E+00 -0.00000000000E+00 -0.31778739614E+03  0.31778739614E+03  0.00000000000E+00 0. -1.
         25    2    1    2    0    0  0.38597750632E+02  0.68731775653E+01 -0.16792497060E+03  0.21303324547E+03  0.12508933207E+03 0.  0.
          5    1    3    3  502    0  0.99774201596E+00 -0.22656235386E+02  0.12572295202E+02  0.26264719638E+02  0.41800000000E+01 0.  1.
         -5    1    3    3    0  502  0.37600008616E+02  0.29529412952E+02 -0.18049726580E+03  0.18676852583E+03  0.41800000000E+01 0.  1.
        -11    1    1    2    0    0  0.78894118958E+01 -0.40315107190E+02 -0.51879154563E+02  0.66173993124E+02  0.00000000000E+00 0.  1.
         11    1    1    2    0    0 -0.46487162527E+02  0.33441929624E+02 -0.56274770043E+02  0.80288658478E+02  0.00000000000E+00 0. -1.
</event>
<event>
 7    1  0.2899775E-009  0.9904416E+02  0.7561462E-02  0.1282319E+00
         -2   -1    0    0    0  501 -0.00000000000E+00  0.00000000000E+00  0.47503504614E+02  0.47503504614E+02  0.00000000000E+00 0.  1.
          2   -1    0    0  501    0  0.00000000000E+00 -0.00000000000E+00 -0.44402218387E+03  0.44402218387E+03  0.00000000000E+00 0. -1.
         25    2    1    2    0    0 -0.67252029878E+01  0.37779860463E+02 -0.36464696255E+03  0.38741178961E+03  0.12509173123E+03 0.  0.
          5    1    3    3  502    0  0.41960682857E+02  0.23922865453E+02 -0.30604739919E+03  0.30986365606E+03  0.41800000000E+01 0. -1.
         -5    1    3    3    0  502 -0.48685885845E+02  0.13856995009E+02 -0.58599563364E+02  0.77548133553E+02  0.41800000000E+01 0. -1.
        -11    1    1    2    0    0  0.46687312552E+02 -0.35747177773E+02 -0.14968646393E+02  0.60676406015E+02  0.00000000000E+00 0.  1.
         11    1    1    2    0    0 -0.39962109564E+02 -0.20326826895E+01 -0.16903070314E+02  0.43437492858E+02  0.00000000000E+00 0. -1.
</event>
<event>
 7    1  0.2899775E-009  0.9766732E+02  0.7561462E-02  0.1285279E+00
         -2   -1    0    0    0  501 -0.00000000000E+00  0.00000000000E+00  0.48704604897E+02  0.48704604897E+02  0.00000000000E+00 0.  1.
          2   -1    0    0  501    0  0.00000000000E+00 -0.00000000000E+00 -0.36453419192E+03  0.36453419192E+03  0.00000000000E+00 0. -1.
         25    2    1    2    0    0  0.56754441841E+02  0.31794442164E+02 -0.23909211079E+03  0.27756703679E+03  0.12508584752E+03 0.  0.
          5    1    3    3  502    0  0.91655121327E+01 -0.14758756922E+02  0.94609358140E+01  0.20219031258E+02  0.41800000000E+01 0. -1.
         -5    1    3    3    0  502  0.47588929708E+02  0.46553199086E+02 -0.24855304660E+03  0.25734800553E+03  0.41800000000E+01 0. -1.
        -11    1    1    2    0    0 -0.62181902431E+02  0.14745777534E+02 -0.53631085512E+02  0.83428533957E+02  0.00000000000E+00 0. -1.
         11    1    1    2    0    0  0.54274605904E+01 -0.46540219698E+02 -0.23106390724E+02  0.52243226071E+02  0.00000000000E+00 0.  1.
</event>
<event>
 7    1  0.2899775E-009  0.1576747E+03  0.7561462E-02  0.1191347E+00
         -2   -1    0    0    0  501 -0.00000000000E+00  0.00000000000E+00  0.10918910799E+04  0.10918910799E+04  0.00000000000E+00 0.  1.
          2   -1    0    0  501    0  0.00000000000E+00 -0.00000000000E+00 -0.28716745388E+02  0.28716745388E+02  0.00000000000E+00 0. -1.
         25    2    1    2    0    0  0.42335335345E+02  0.13132357487E+03  0.57836252875E+03  0.60760701820E+03  0.12507962252E+03 0.  0.
          5    1    3    3  502    0 -0.76623687706E+01  0.93978876542E+02  0.16965725814E+03  0.19414375800E+03  0.41800000000E+01 0. -1.
         -5    1    3    3    0  502  0.49997704116E+02  0.37344698329E+02  0.40870527061E+03  0.41346326020E+03  0.41800000000E+01 0. -1.
        -11    1    1    2    0    0  0.79039440221E+01 -0.97584430667E+02  0.21138024527E+03  0.23295235893E+03  0.00000000000E+00 0.  1.
         11    1    1    2    0    0 -0.50239279367E+02 -0.33739144204E+02  0.27343156046E+03  0.28004844812E+03  0.00000000000E+00 0. -1.
</event>
<event>
 7    1  0.2899775E-009  0.1072959E+03  0.7561462E-02  0.1265661E+00
         -2   -1    0    0    0  501 -0.00000000000E+00  0.00000000000E+00  0.39134329870E+03  0.39134329870E+03  0.00000000000E+00 0.  1.
          2   -1    0    0  501    0  0.00000000000E+00 -0.00000000000E+00 -0.38812679307E+02  0.38812679307E+02  0.00000000000E+00 0. -1.
         25    2    1    2    0    0 -0.38204344647E+02  0.25881171132E+02  0.26411148350E+03  0.29585773714E+03  0.12509003933E+03 0.  0.
          5    1    3    3  502    0 -0.65430945067E+02  0.60409708926E+02  0.17502298332E+03  0.19642061652E+03  0.41800000000E+01 0.  1.
         -5    1    3    3    0  502  0.27226600420E+02 -0.34528537794E+02  0.89088500180E+02  0.99437120619E+02  0.41800000000E+01 0.  1.
        -11    1    1    2    0    0  0.57515849803E+02 -0.16726065717E+02  0.20840150481E+02  0.63420392028E+02  0.00000000000E+00 0. -1.
         11    1    1    2    0    0 -0.19311505156E+02 -0.91551054147E+01  0.67578985409E+02  0.70877848834E+02  0.00000000000E+00 0.  1.
</event>
<event>
 7    1  0.2899775E-009  0.8716063E+02  0.7561462E-02  0.1309877E+00
         -2   -1    0    0    0  501 -0.00000000000E+00  0.00000000000E+00  0.60611994966E+02  0.60611994966E+02  0.00000000000E+00 0.  1.
          2   -1    0    0  501    0  0.00000000000E+00 -0.00000000000E+00 -0.25033233346E+03  0.25033233346E+03  0.00000000000E+00 0. -1.
         25    2    1    2    0    0  0.77418580308E+01 -0.58964063969E+02 -0.85016870615E+02  0.16251946844E+03  0.12509201464E+03 0.  0.
          5    1    3    3  502    0 -0.42079305934E+02 -0.73220730160E+01  0.93234316253E+01  0.43916733923E+02  0.41800000000E+01 0. -1.
         -5    1    3    3    0  502  0.49821163965E+02 -0.51641990953E+02 -0.94340302240E+02  0.11860273452E+03  0.41800000000E+01 0. -1.
        -11    1    1    2    0    0 -0.50813776217E+01  0.28700814013E+02  0.91802102834E+01  0.30558687544E+02  0.00000000000E+00 0.  1.
         11    1    1    2    0    0 -0.26604804091E+01  0.30263249956E+02 -0.11388367817E+03  0.11786617244E+03  0.00000000000E+00 0. -1.
</event>
<event>
 7    1  0.2899775E-009  0.1332122E+03  0.7561462E-02  0.1222766E+00
         -2   -1    0    0    0  501 -0.00000000000E+00  0.00000000000E+00  0.10410286206E+02  0.10410286206E+02  0.00000000000E+00 0.  1.
          2   -1    0    0  501    0  0.00000000000E+00 -0.00000000000E+00 -0.31987107171E+04  0.31987107171E+04  0.00000000000E+00 0. -1.
         25    2    1    2    0    0  0.46455751295E+02 -0.10088510299E+03 -0.24986836511E+04  0.25042770662E+04  0.12509074665E+03 0.  0.
          5    1    3    3  502    0  0.19260931538E+02 -0.30169969299E+01 -0.15559510650E+04  0.15560788139E+04  0.41800000000E+01 0. -1.
         -5    1    3    3    0  502  0.27194819757E+02 -0.97868106063E+02 -0.94273258607E+03  0.94819825229E+03  0.41800000000E+01 0. -1.
        -11    1    1    2    0    0  0.84345459899E+01  0.88049197290E+02 -0.38222511617E+03  0.39232619354E+03  0.00000000000E+00 0.  1.
         11    1    1    2    0    0 -0.54890297285E+02  0.12835905703E+02 -0.30739166363E+03  0.31251774362E+03  0.00000000000E+00 0. -1.
</event>
<event>
 7    1  0.2899775E-009  0.2108380E+03  0.7561462E-02  0.1140904E+00
         -2   -1    0    0    0  501 -0.00000000000E+00  0.00000000000E+00  0.37449230095E+02  0.37449230095E+02  0.00000000000E+00 0. -1.
          2   -1    0    0  501    0  0.00000000000E+00 -0.00000000000E+00 -0.17669569371E+04  0.17669569371E+04  0.00000000000E+00 0.  1.
         25    2    1    2    0    0 -0.13902616363E+03 -0.12559145511E+03 -0.13789449305E+04  0.13972252310E+04  0.12509091592E+03 0.  0.
          5    1    3    3  502    0 -0.96694759873E+02 -0.14459343120E+03 -0.95432328822E+03  0.97005543541E+03  0.41800000000E+01 0.  1.
         -5    1    3    3    0  502 -0.42331403757E+02  0.19001976088E+02 -0.42462164223E+03  0.42716979562E+03  0.41800000000E+01 0.  1.
        -11    1    1    2    0    0  0.14308864514E+03  0.98540449645E+02 -0.33006785881E+03  0.37300049867E+03  0.00000000000E+00 0. -1.
         11    1    1    2    0    0 -0.40624815141E+01  0.27051005469E+02 -0.20494917701E+02  0.34180437453E+02  0.00000000000E+00 0.  1.
</event>
<event>
 7    1  0.2899775E-009  0.1307745E+03  0.7561462E-02  0.1226311E+00
          1   -1    0    0  501    0  0.00000000000E+00  0.00000000000E+00  0.46583019129E+03  0.46583019129E+03  0.00000000000E+00 0. -1.
         -1   -1    0    0    0  501 -0.00000000000E+00 -0.00000000000E+00 -0.51955394189E+02  0.51955394189E+02  0.00000000000E+00 0.  1.
         25    2    1    2    0    0  0.47926237530E+02  0.93929516620E+02  0.27843964180E+03  0.32294959801E+03  0.12509248737E+03 0.  0.
          5    1    3    3  502    0  0.65745589995E+02  0.10786114285E+03  0.16851948849E+03  0.21064852039E+03  0.41800000000E+01 0. -1.
         -5    1    3    3    0  502 -0.17819352465E+02 -0.13931626234E+02  0.10992015331E+03  0.11230107762E+03  0.41800000000E+01 0. -1.
        -11    1    1    2    0    0 -0.95630888803E+01 -0.60568926256E+02  0.12996326548E+03  0.14370281094E+03  0.00000000000E+00 0. -1.
         11    1    1    2    0    0 -0.38363148650E+02 -0.33360590364E+02  0.54718898214E+01  0.51133176529E+02  0.00000000000E+00 0.  1.
</event>
<event>
 7    1  0.2899775E-009  0.1026475E+03  0.7561462E-02  0.1274825E+00
          2   -1    0    0  501    0  0.00000000000E+00  0.00000000000E+00  0.22278619574E+04  0.22278619574E+04  0.00000000000E+00 0. -1.
         -2   -1    0    0    0  501 -0.00000000000E+00 -0.00000000000E+00 -0.17105631348E+02  0.17105631348E+02  0.00000000000E+00 0.  1.
         25    2    1    2    0    0  0.32915610203E+02  0.34828113991E+02  0.20569028440E+04  0.20612599611E+04  0.12508749876E+03 0.  0.
          5    1    3    3  502    0  0.29741620549E+02  0.70856389967E+02  0.76871614296E+03  0.77255884750E+03  0.41800000000E+01 0. -1.
         -5    1    3    3    0  502  0.31739896537E+01 -0.36028275977E+02  0.12881867011E+04  0.12887011136E+04  0.41800000000E+01 0. -1.
        -11    1    1    2    0    0  0.13608247084E+02 -0.42634296190E+02  0.38332424873E+02  0.58925736287E+02  0.00000000000E+00 0.  1.
         11    1    1    2    0    0 -0.46523857286E+02  0.78061821990E+01  0.11552105710E+03  0.12478189135E+03  0.00000000000E+00 0. -1.
</event>
<event>
 7    1  0.2899775E-009  0.1240864E+03  0.7561462E-02  0.1236504E+00
         -1   -1    0    0    0  501 -0.00000000000E+00  0.00000000000E+00  0.71398704818E+02  0.71398704818E+02  0.00000000000E+00 0.  1.
          1   -1    0    0  501    0  0.00000000000E+00 -0.00000000000E+00 -0.26880074164E+03  0.26880074164E+03  0.00000000000E+00 0. -1.
         25    2    1    2    0    0 -0.84824182285E+02 -0.44740341571E+01 -0.88557954278E+02  0.17522966760E+03  0.12509103189E+03 0.  0.
          5    1    3    3  502    0 -0.10699057887E+03  0.63214489237E+01 -0.29723227688E+02  0.11130088656E+03  0.41800000000E+01 0.  1.
         -5    1    3    3    0  502  0.22166396590E+02 -0.10795483081E+02 -0.58834726590E+02  0.63928781043E+02  0.41800000000E+01 0.  1.
        -11    1    1    2    0    0  0.57937008578E+02 -0.35339847577E+02 -0.91439922300E+02  0.11387212644E+03  0.00000000000E+00 0. -1.
         11    1    1    2    0    0  0.26887173708E+02  0.39813881734E+02 -0.17404160244E+02  0.51097652417E+02  0.00000000000E+00 0.  1.
</event>
<event>
 7    1  0.2899775E-009  0.9976779E+02  0.7561462E-02  0.1280785E+00
         -2   -1    0    0    0  501 -0.00000000000E+00  0.00000000000E+00  0.29441879784E+02  0.29441879784E+02  0.00000000000E+00 0.  1.
          2   -1    0    0  501    0  0.00000000000E+00 -0.00000000000E+00 -0.55942934507E+03  0.55942934507E+03  0.00000000000E+00 0. -1.
         25    2    1    2    0    0 -0.41789730818E+02  0.40865494645E+02 -0.37835307828E+03  0.40276043350E+03  0.12509414333E+03 0.  0.
          5    1    3    3  502    0 -0.79152663213E+02  0.17355625081E+02 -0.31598230022E+03  0.32623403910E+03  0.41800000000E+01 0.  1.
         -5    1    3    3    0  502  0.37362932395E+02  0.23509869564E+02 -0.62370778056E+02  0.76526394397E+02  0.41800000000E+01 0.  1.
        -11    1    1    2    0    0  0.16744717915E+02 -0.45588764889E+02 -0.15306394809E+03  0.16058422484E+03  0.00000000000E+00 0. -1.
         11    1    1    2    0    0  0.25045012904E+02  0.47232702447E+01  0.14295610831E+01  0.25526566515E+02  0.00000000000E+00 0.  1.
</event>
<event>
 7    1  0.2899775E-009  0.2307421E+03  0.7561462E-02  0.1126119E+00
         -2   -1    0    0    0  501 -0.00000000000E+00  0.00000000000E+00  0.84102769839E+03  0.84102769839E+03  0.00000000000E+00 0.  1.
          2   -1    0    0  501    0  0.00000000000E+00 -0.00000000000E+00 -0.77298127545E+02  0.77298127545E+02  0.00000000000E+00 0. -1.
         25    2    1    2    0    0  0.18798760365E+03 -0.10193649226E+03  0.54442784063E+03  0.59814663580E+03  0.12508931482E+03 0.  0.
          5    1    3    3  502    0  0.20465497533E+03 -0.82966273501E+02  0.46700535831E+03  0.51660288284E+03  0.41800000000E+01 0. -1.
         -5    1    3    3    0  502 -0.16667371677E+02 -0.18970218754E+02  0.77422482320E+02  0.81543752960E+02  0.41800000000E+01 0. -1.
        -11    1    1    2    0    0 -0.12919186385E+03  0.81593433227E+02  0.20612361761E+03  0.25658326479E+03  0.00000000000E+00 0.  1.
         11    1    1    2    0    0 -0.58795739801E+02  0.20343059028E+02  0.13178112596E+02  0.63595925349E+02  0.00000000000E+00 0. -1.
</event>
<event>
 7    1  0.2899775E-009  0.8660679E+02  0.7561462E-02  0.1311283E+00
          1   -1    0    0  501    0  0.00000000000E+00  0.00000000000E+00  0.29245960949E+03  0.29245960949E+03  0.00000000000E+00 0. -1.
         -1   -1    0    0    0  501 -0.00000000000E+00 -0.00000000000E+00 -0.86669227685E+02  0.86669227685E+02  0.00000000000E+00 0.  1.
         25    2    1    2    0    0  0.84256101928E+01  0.25168437166E+02  0.24564113758E+03  0.27693334767E+03  0.12509224374E+03 0.  0.
          5    1    3    3  502    0  0.34234697850E+02  0.60486655401E+02  0.20707250089E+03  0.21846542757E+03  0.41800000000E+01 0. -1.
         -5    1    3    3    0  502 -0.25809087657E+02 -0.35318218235E+02  0.38568636692E+02  0.58467920104E+02  0.41800000000E+01 0. -1.
        -11    1    1    2    0    0  0.19293766928E+02  0.36727433830E+01 -0.55781261991E+02  0.59137870062E+02  0.00000000000E+00 0.  1.
         11    1    1    2    0    0 -0.27719377121E+02 -0.28841180549E+02  0.15930506210E+02  0.43057619436E+02  0.00000000000E+00 0. -1.
</event>
<event>
 7    1  0.2899775E-009  0.1578106E+03  0.7561462E-02  0.1191191E+00
          2   -1    0    0  501    0  0.00000000000E+00  0.00000000000E+00  0.11024585411E+04  0.11024585411E+04  0.00000000000E+00 0. -1.
         -2   -1    0    0    0  501 -0.00000000000E+00 -0.00000000000E+00 -0.29673564927E+02  0.29673564927E+02  0.00000000000E+00 0.  1.
         25    2    1    2    0    0 -0.20365440920E+02  0.13133199005E+03  0.79329760355E+03  0.81402163620E+03  0.12508914260E+03 0.  0.
          5    1    3    3  502    0  0.43810914145E+02  0.10195274135E+03  0.52013024590E+03  0.53185214371E+03  0.41800000000E+01 0.  1.
         -5    1    3    3    0  502 -0.64176355065E+02  0.29379248704E+02  0.27316735765E+03  0.28216949248E+03  0.41800000000E+01 0.  1.
        -11    1    1    2    0    0  0.66254926921E+01 -0.91409781590E+02  0.10869437393E+03  0.14217634208E+03  0.00000000000E+00 0.  1.
         11    1    1    2    0    0  0.13739948228E+02 -0.39922208462E+02  0.17079299871E+03  0.17593412777E+03  0.00000000000E+00 0. -1.
</event>
<event>
 6    1  0.2899775E-009  0.9759444E+02  0.7561462E-02  0.1285437E+00
          2   -1    0    0  501    0  0.00000000000E+00  0.00000000000E+00  0.19505755327E+04  0.19505755327E+04  0.00000000000E+00 0. -1.
         -2   -1    0    0    0  501 -0.00000000000E+00 -0.00000000000E+00 -0.56586112343E+01  0.56586112343E+01  0.00000000000E+00 0.  1.
          5    1    1    2  502    0  0.33236153101E+02 -0.32881998527E+02  0.71858865228E+03  0.72012012282E+03  0.41800000000E+01 0.  1.
         -5    1    1    2    0  502 -0.63119356770E+02  0.53421303793E+02  0.85996851671E+03  0.86394514353E+03  0.41800000000E+01 0.  1.
        -11    1    1    2    0    0  0.44967439504E+02 -0.76553526892E+01  0.24869287350E+03  0.25284149258E+03  0.00000000000E+00 0.  1.
         11    1    1    2    0    0 -0.15084235835E+02 -0.12883952576E+02  0.11766687899E+03  0.11932738502E+03  0.00000000000E+00 0. -1.
</event>
<event>
 7    1  0.2899775E-009  0.1030423E+03  0.7561462E-02  0.1274025E+00
          1   -1    0    0  501    0  0.00000000000E+00  0.00000000000E+00  0.12201888066E+03  0.12201888066E+03  0.00000000000E+00 0. -1.
         -1   -1    0    0    0  501 -0.00000000000E+00 -0.00000000000E+00 -0.13817600949E+03  0.13817600949E+03  0.00000000000E+00 0.  1.
         25    2    1    2    0    0  0.32119583644E+02  0.61029016903E+02 -0.18375922165E+02  0.14402075958E+03  0.12509235035E+03 0.  0.
          5    1    3    3  502    0  0.48752315487E+02  0.37954813917E+02 -0.64662411211E+02  0.89532429814E+02  0.41800000000E+01 0.  1.
         -5    1    3    3    0  502 -0.16632731843E+02  0.23074202986E+02  0.46286489046E+02  0.54488329762E+02  0.41800000000E+01 0.  1.
        -11    1    1    2    0    0 -0.61086480470E+02 -0.18266356140E+02  0.77518674461E+01  0.64228570837E+02  0.00000000000E+00 0.  1.
         11    1    1    2    0    0  0.28966896826E+02 -0.42762660763E+02 -0.55330741167E+01  0.51945559738E+02  0.00000000000E+00 0. -1.
</event>
<event>
 7    1  0.2899775E-009  0.1071269E+03  0.7561462E-02  0.1265985E+00
         -2   -1    0    0    0  501 -0.00000000000E+00  0.00000000000E+00  0.51583524019E+02  0.51583524019E+02  0.00000000000E+00 0. -1.
          2   -1    0    0  501    0  0.00000000000E+00 -0.00000000000E+00 -0.42351949299E+03  0.42351949299E+03  0.00000000000E+00 0.  1.
         25    2    1    2    0    0  0.85633502788E+02 -0.40867673624E+02 -0.24797060516E+03  0.29349504961E+03  0.12508660829E+03 0.  0.
          5    1    3    3  502    0  0.65698090974E+02  0.75854095852E+01 -0.22772436681E+03  0.23717005974E+03  0.41800000000E+01 0. -1.
         -5    1    3    3    0  502  0.19935411815E+02 -0.48453083209E+02 -0.20246238349E+02  0.56324989871E+02  0.41800000000E+01 0. -1.
        -11    1    1    2    0    0 -0.28894218807E+02  0.19197366969E+02  0.86441936393E+01  0.35751040022E+02  0.00000000000E+00 0. -1.
         11    1    1    2    0    0 -0.56739283981E+02  0.21670306655E+02 -0.13260955744E+03  0.14585692737E+03  0.00000000000E+00 0.  1.
</event>
<event>
 7    1  0.2899775E-009  0.1107312E+03  0.7561462E-02  0.1259222E+00
          3   -1    0    0  501    0  0.00000000000E+00  0.00000000000E+00  0.19715776472E+02  0.19715776472E+02  0.00000000000E+00 0. -1.
         -3   -1    0    0    0  501 -0.00000000000E+00 -0.00000000000E+00 -0.72481470703E+03  0.72481470703E+03  0.00000000000E+00 0.  1.
         25    2    1    2    0    0 -0.28255173855E+02  0.45768351226E+02 -0.41551346355E+03  0.43725378142E+03  0.12508530750E+03 0.  0.
          5    1    3    3  502    0 -0.26192590293E+02  0.87476057599E+02 -0.32263136544E+03  0.33533055751E+03  0.41800000000E+01 0. -1.
         -5    1    3    3    0  502 -0.20625835618E+01 -0.41707706373E+02 -0.92882098115E+02  0.10192322391E+03  0.41800000000E+01 0. -1.
        -11    1    1    2    0    0 -0.20783972888E+02 -0.30150763194E+02 -0.20514722852E+03  0.20839008474E+03  0.00000000000E+00 0.  1.
         11    1    1    2    0    0  0.49039146743E+02 -0.15617588032E+02 -0.84438238492E+02  0.98886617339E+02  0.00000000000E+00 0. -1.
</event>
<event>
 6    1  0.2899775E-009  0.1166864E+03  0.7561462E-02  0.1248666E+00
          2   -1    0    0  501    0  0.00000000000E+00  0.00000000000E+00  0.42509060109E+03  0.42509060109E+03  0.00000000000E+00 0. -1.
         -2   -1    0    0    0  501 -0.00000000000E+00 -0.00000000000E+00 -0.54615406344E+02  0.54615406344E+02  0.00000000000E+00 0.  1.
          5    1    1    2  502    0 -0.18215581876E+02 -0.47294690643E+02  0.11344239959E+03  0.12431912809E+03  0.41800000000E+01 0.  1.
         -5    1    1    2    0  502  0.91944204438E+02  0.26801709917E+02  0.20037814987E+03  0.22212821462E+03  0.41800000000E+01 0.  1.
        -11    1    1    2    0    0 -0.38949955497E+02  0.31591258206E+02 -0.15418235580E+02  0.52467405278E+02  0.00000000000E+00 0.  1.
         11    1    1    2    0    0 -0.34778667065E+02 -0.11098277479E+02  0.72072880873E+02  0.80791259448E+02  0.00000000000E+00 0. -1.
</event>
<event>
 7    1  0.2899775E-009  0.1705700E+03  0.7561462E-02  0.1177255E+00
          2   -1    0    0  501    0  0.00000000000E+00  0.00000000000E+00  0.27371984674E+03  0.27371984674E+03  0.00000000000E+00 0. -1.
         -2   -1    0    0    0  501 -0.00000000000E+00 -0.00000000000E+00 -0.12487343056E+03  0.12487343056E+03  0.00000000000E+00 0.  1.
         25    2    1    2    0    0 -0.14199911028E+03  0.10317489174E+02  0.12538688288E+03  0.22724271333E+03  0.12508869838E+03 0.  0.
          5    1    3    3  502    0 -0.13749190250E+03 -0.24540492472E+02  0.58322845092E+02  0.15141098270E+03  0.41800000000E+01 0.  1.
         -5    1    3    3    0  502 -0.45072077785E+01  0.34857981646E+02  0.67064037783E+02  0.75831730628E+02  0.41800000000E+01 0.  1.
        -11    1    1    2    0    0  0.12424630933E+03  0.24772316600E+02  0.23403872111E+01  0.12671341864E+03  0.00000000000E+00 0.  1.
         11    1    1    2    0    0  0.17752800948E+02 -0.35089805773E+02  0.21119146096E+02  0.44637145323E+02  0.00000000000E+00 0. -1.
</event>
<event>
 7    1  0.2899775E-009  0.1190049E+03  0.7561462E-02  0.1244748E+00
          1   -1    0    0  501    0  0.00000000000E+00  0.00000000000E+00  0.68507956498E+03  0.68507956498E+03  0.00000000000E+00 0.  1.
         -1   -1    0    0    0  501 -0.00000000000E+00 -0.00000000000E+00 -0.38975325034E+02  0.38975325034E+02  0.00000000000E+00 0. -1.
         25    2    1    2    0    0  0.18947753069E+02 -0.87413799144E+02  0.16212099891E+03  0.22343350255E+03  0.12505647583E+03 0.  0.
          5    1    3    3  502    0  0.40368354621E+02 -0.20156830453E+02 -0.13403759472E+01  0.45333992504E+02  0.41800000000E+01 0.  1.
         -5    1    3    3    0  502 -0.21420601552E+02 -0.67256968691E+02  0.16346137485E+03  0.17809951004E+03  0.41800000000E+01 0.  1.
        -11    1    1    2    0    0  0.32940961875E+02  0.29398305853E+02  0.25440172084E+03  0.25820457572E+03  0.00000000000E+00 0.  1.
         11    1    1    2    0    0 -0.51888714944E+02  0.58015493290E+02  0.22958152020E+03  0.24241681175E+03  0.00000000000E+00 0. -1.
</event>
<event>
 7    1  0.2899775E-009  0.3440474E+03  0.7561462E-02  0.1065085E+00
         -1   -1    0    0    0  501 -0.00000000000E+00  0.00000000000E+00  0.39195983159E+03  0.39195983159E+03  0.00000000000E+00 0.  1.
          1   -1    0    0  501    0  0.00000000000E+00 -0.00000000000E+00 -0.35217668492E+03  0.35217668492E+03  0.00000000000E+00 0. -1.
         25    2    1    2    0    0 -0.86759094220E+02 -0.31625512935E+03 -0.11522537591E+03  0.36941696242E+03  0.12509019788E+03 0.  0.
          5    1    3    3  502    0 -0.19197766702E+02 -0.26584565144E+03 -0.85919042941E+02  0.28007502384E+03  0.41800000000E+01 0. -1.
         -5    1    3    3    0  502 -0.67561327517E+02 -0.50409477904E+02 -0.29306332967E+02  0.89341938587E+02  0.41800000000E+01 0. -1.
        -11    1    1    2    0    0  0.89680236738E+02  0.18255364851E+03  0.65034360695E+02  0.21353652502E+03  0.00000000000E+00 0.  1.
         11    1    1    2    0    0 -0.29211425182E+01  0.13370148084E+03  0.89974161887E+02  0.16118302907E+03  0.00000000000E+00 0. -1.
</event>
<event>
 7    1  0.2899775E-009  0.1024052E+03  0.7561462E-02  0.1275318E+00
         -1   -1    0    0    0  501 -0.00000000000E+00  0.00000000000E+00  0.11361591068E+03  0.11361591068E+03  0.00000000000E+00 0.  1.
          1   -1    0    0  501    0  0.00000000000E+00 -0.00000000000E+00 -0.14631654971E+03  0.14631654971E+03  0.00000000000E+00 0. -1.
         25    2    1    2    0    0 -0.52554865406E+02 -0.11345341457E+02 -0.23248301346E+02  0.13812686690E+03  0.12509123548E+03 0.  0.
          5    1    3    3  502    0 -0.74652574432E+02 -0.16042247591E+01  0.29160373628E+02  0.80270668345E+02  0.41800000000E+01 0.  1.
         -5    1    3    3    0  502  0.22097709026E+02 -0.97411166982E+01 -0.52408674975E+02  0.57856198556E+02  0.41800000000E+01 0.  1.
        -11    1    1    2    0    0  0.65920074136E+02  0.37718844402E+02 -0.34157369507E+02  0.83276006681E+02  0.00000000000E+00 0. -1.
         11    1    1    2    0    0 -0.13365208729E+02 -0.26373502944E+02  0.24705031831E+02  0.38529586809E+02  0.00000000000E+00 0.  1.
</event>
<event>
 7    1  0.2899775E-009  0.1113268E+03  0.7561462E-02  0.1258132E+00
          2   -1    0    0  501    0  0.00000000000E+00  0.00000000000E+00  0.60082211865E+03  0.60082211865E+03  0.00000000000E+00 0. -1.
         -2   -1    0    0    0  501 -0.00000000000E+00 -0.00000000000E+00 -0.29585067701E+02  0.29585067701E+02  0.00000000000E+00 0.  1.
         25    2    1    2    0    0 -0.75609044398E+01 -0.57489084303E+02  0.43530058167E+03  0.45661189670E+03  0.12508263554E+03 0.  0.
          5    1    3    3  502    0  0.33043259158E+02  0.21543367681E+02  0.22185540648E+03  0.22537361747E+03  0.41800000000E+01 0. -1.
         -5    1    3    3    0  502 -0.40604163598E+02 -0.79032451985E+02  0.21344517519E+03  0.23123827923E+03  0.41800000000E+01 0. -1.
        -11    1    1    2    0    0  0.98097850940E+01 -0.16938570024E+02  0.75196023228E+02  0.77701923704E+02  0.00000000000E+00 0. -1.
         11    1    1    2    0    0 -0.22488806542E+01  0.74427654328E+02  0.60740446045E+02  0.96093365945E+02  0.00000000000E+00 0.  1.
</event>
<event>
 7    1  0.2899775E-009  0.1241540E+03  0.7561462E-02  0.1236397E+00
         -1   -1    0    0    0  501 -0.00000000000E+00  0.00000000000E+00  0.11295411409E+03  0.11295411409E+03  0.00000000000E+00 0.  1.
          1   -1    0    0  501    0  0.00000000000E+00 -0.00000000000E+00 -0.25441050493E+03  0.25441050493E+03  0.00000000000E+00 0. -1.
         25    2    1    2    0    0 -0.12128149118E+03  0.76764785545E+01 -0.24221417212E+02  0.17607321184E+03  0.12508785093E+03 0.  0.
          5    1    3    3  502    0 -0.28010009460E+01 -0.34229556814E+01 -0.53182194256E+02  0.53529248246E+02  0.41800000000E+01 0. -1.
         -5    1    3    3    0  502 -0.11848049024E+03  0.11099434236E+02  0.28960777044E+02  0.12254396360E+03  0.41800000000E+01 0. -1.
        -11    1    1    2    0    0  0.66978069111E+02  0.57091742199E+01 -0.11749129259E+03  0.13536196012E+03  0.00000000000E+00 0. -1.
         11    1    1    2    0    0  0.54303422071E+02 -0.13385652774E+02  0.25631895634E+00  0.55929447058E+02  0.00000000000E+00 0.  1.
</event>
<event>
 7    1  0.2899775E-009  0.1539701E+03  0.7561462E-02  0.1195678E+00
          2   -1    0    0  501    0  0.00000000000E+00  0.00000000000E+00  0.37212365507E+03  0.37212365507E+03  0.00000000000E+00 0.  1.
         -2   -1    0    0    0  501 -0.00000000000E+00 -0.00000000000E+00 -0.91162766844E+02  0.91162766844E+02  0.00000000000E+00 0. -1.
         25    2    1    2    0    0 -0.12074291109E+03  0.24922880629E+02  0.24889041083E+03  0.30461992712E+03  0.12508742080E+03 0.  0.
          5    1    3    3  502    0  0.20634842136E+02 -0.16116322816E+01  0.54199678572E+01  0.21800057802E+02  0.41800000000E+01 0.  1.
         -5    1    3    3    0  502 -0.14137775323E+03  0.26534512910E+02  0.24347044297E+03  0.28281986932E+03  0.41800000000E+01 0.  1.
        -11    1    1    2    0    0  0.24517265841E+02 -0.38596683928E+02 -0.18234857882E+02  0.49227130493E+02  0.00000000000E+00 0. -1.
         11    1    1    2    0    0  0.96225645250E+02  0.13673803300E+02  0.50305335284E+02  0.10943936430E+03  0.00000000000E+00 0.  1.
</event>
<event>
 7    1  0.2899775E-009  0.1003281E+03  0.7561462E-02  0.1279607E+00
         -2   -1    0    0    0  501 -0.00000000000E+00  0.00000000000E+00  0.97976185384E+02  0.97976185384E+02  0.00000000000E+00 0. -1.
          2   -1    0    0  501    0  0.00000000000E+00 -0.00000000000E+00 -0.17579483993E+03  0.17579483993E+03  0.00000000000E+00 0.  1.
         25    2    1    2    0    0 -0.90895655806E+01 -0.54397011998E+02  0.70519747708E+01  0.13689187803E+03  0.12509196939E+03 0.  0.
          5    1    3    3  502    0  0.34435838291E+02 -0.60507705742E+02  0.41263124268E+02  0.81037813627E+02  0.41800000000E+01 0.  1.
         -5    1    3    3    0  502 -0.43525403871E+02  0.61106937443E+01 -0.34211149498E+02  0.55854064401E+02  0.41800000000E+01 0.  1.
        -11    1    1    2    0    0 -0.24373670865E+02  0.18258796392E+01 -0.68086365984E+02  0.72340603404E+02  0.00000000000E+00 0.  1.
         11    1    1    2    0    0  0.33463236446E+02  0.52571132359E+02 -0.16784263333E+02  0.64538543883E+02  0.00000000000E+00 0. -1.
</event>
<event>
 7    1  0.2899775E-009  0.1088939E+03  0.7561462E-02  0.1262632E+00
          1   -1    0    0  501    0  0.00000000000E+00  0.00000000000E+00  0.19640272628E+04  0.19640272628E+04  0.00000000000E+00 0. -1.
         -1   -1    0    0    0  501 -0.00000000000E+00 -0.00000000000E+00 -0.91261138935E+01  0.91261138935E+01  0.00000000000E+00 0.  1.
         25    2    1    2    0    0 -0.33009208224E+02  0.50569634552E+02  0.13562750106E+04  0.13633693665E+04  0.12508888634E+03 0.  0.
          5    1    3    3  502    0 -0.36019868175E+02  0.72041579135E+02  0.13056450882E+04  0.13081337809E+04  0.41800000000E+01 0.  1.
         -5    1    3    3    0  502  0.30106599510E+01 -0.21471944583E+02  0.50629922386E+02  0.55235585616E+02  0.41800000000E+01 0.  1.
        -11    1    1    2    0    0 -0.58412714302E+01  0.27360077856E+02  0.11292221566E+03  0.11633624157E+03  0.00000000000E+00 0.  1.
         11    1    1    2    0    0  0.38850479654E+02 -0.77929712408E+02  0.48570392263E+03  0.49344776857E+03  0.00000000000E+00 0. -1.
</event>
<event>
 7    1  0.2899775E-009  0.1023607E+03  0.7561462E-02  0.1275409E+00
         -2   -1    0    0    0  501 -0.00000000000E+00  0.00000000000E+00  0.25828644973E+03  0.25828644973E+03  0.00000000000E+00 0.  1.
          2   -1    0    0  501    0  0.00000000000E+00 -0.00000000000E+00 -0.20632757030E+03  0.20632757030E+03  0.00000000000E+00 0. -1.
         25    2    1    2    0    0 -0.63028953340E+02  0.47380022310E+02 -0.16159730009E+03  0.21904023521E+03  0.12508965493E+03 0.  0.
          5    1    3    3  502    0 -0.23929071011E+02  0.47449104063E+02 -0.59864541726E+00  0.53308992601E+02  0.41800000000E+01 0. -1.
         -5    1    3    3    0  502 -0.39099882329E+02 -0.69081752842E-01 -0.16099865467E+03  0.16573124261E+03  0.41800000000E+01 0. -1.
        -11    1    1    2    0    0  0.21737661163E+02  0.22271882429E+02  0.10884963052E+03  0.11321132772E+03  0.00000000000E+00 0.  1.
         11    1    1    2    0    0  0.41291292177E+02 -0.69651904739E+02  0.10470654900E+03  0.13236245709E+03  0.00000000000E+00 0. -1.
</event>
<event>
 7    1  0.2899775E-009  0.1980294E+03  0.7561462E-02  0.1151412E+00
          1   -1    0    0  501    0  0.00000000000E+00  0.00000000000E+00  0.99044890071E+02  0.99044890071E+02  0.00000000000E+00 0. -1.
         -1   -1    0    0    0  501 -0.00000000000E+00 -0.00000000000E+00 -0.59699612580E+03  0.59699612580E+03  0.00000000000E+00 0.  1.
         25    2    1    2    0    0  0.80785975112E+02 -0.16581599266E+03 -0.42074208698E+03  0.47612107316E+03  0.12508419304E+03 0.  0.
          5    1    3    3  502    0 -0.10757000171E+02  0.78969556412E+01 -0.92931375764E+02  0.93977592875E+02  0.41800000000E+01 0. -1.
         -5    1    3    3    0  502  0.91542975283E+02 -0.17371294831E+03 -0.32781071122E+03  0.38214348028E+03  0.41800000000E+01 0. -1.
        -11    1    1    2    0    0 -0.24273087302E+02  0.73791726710E+02 -0.80512493828E+02  0.11187789487E+03  0.00000000000E+00 0.  1.
         11    1    1    2    0    0 -0.56512887810E+02  0.92024265955E+02  0.33033450832E+01  0.10804204784E+03  0.00000000000E+00 0. -1.
</event>
<event>
 7    1  0.2899775E-009  0.9715589E+02  0.7561462E-02  0.1286393E+00
          2   -1    0    0  501    0  0.00000000000E+00  0.00000000000E+00  0.17532022798E+03  0.17532022798E+03  0.00000000000E+00 0.  1.
         -2   -1    0    0    0  501 -0.00000000000E+00 -0.00000000000E+00 -0.87619771011E+02  0.87619771011E+02  0.00000000000E+00 0. -1.
         25    2    1    2    0    0 -0.35114298179E+02 -0.48742185998E+02  0.54099604496E+02  0.14894092887E+03  0.12509124051E+03 0.  0.
          5    1    3    3  502    0 -0.41816123331E+02  0.25811812292E+02  0.55119682268E+02  0.73962758180E+02  0.41800000000E+01 0.  1.
         -5    1    3    3    0  502  0.67018251519E+01 -0.74553998290E+02 -0.10200777715E+01  0.74978170690E+02  0.41800000000E+01 0.  1.
        -11    1    1    2    0    0  0.31666126632E+02  0.13190452169E+02 -0.27000256466E+02  0.43654844560E+02  0.00000000000E+00 0. -1.
         11    1    1    2    0    0  0.34481715476E+01  0.35551733829E+02  0.60601108935E+02  0.70344225559E+02  0.00000000000E+00 0.  1.
</event>
<event>
 7    1  0.2899775E-009  0.1021710E+03  0.7561462E-02  0.1275796E+00
         -2   -1    0    0    0  501 -0.00000000000E+00  0.00000000000E+00  0.67023550757E+02  0.67023550757E+02  0.00000000000E+00 0.  1.
          2   -1    0    0  501    0  0.00000000000E+00 -0.00000000000E+00 -0.26195033034E+03  0.26195033034E+03  0.00000000000E+00 0. -1.
         25    2    1    2    0    0 -0.23415402603E+02  0.23210340944E+02 -0.21516836104E+02  0.13113636222E+03  0.12508705071E+03 0.  0.
          5    1    3    3  502    0 -0.56800419073E+02  0.56659054369E+02 -0.35825832844E+01  0.80416685780E+02  0.41800000000E+01 0. -1.
         -5    1    3    3    0  502  0.33385016470E+02 -0.33448713425E+02 -0.17934252820E+02  0.50719676445E+02  0.41800000000E+01 0. -1.
        -11    1    1    2    0    0  0.74579648810E+01  0.24837781958E+02 -0.12543920179E+03  0.12809188108E+03  0.00000000000E+00 0. -1.
         11    1    1    2    0    0  0.15957437722E+02 -0.48048122902E+02 -0.47970741692E+02  0.69745637796E+02  0.00000000000E+00 0.  1.
</event>
<event>
 7    1  0.2899775E-009  0.2213234E+03  0.7561462E-02  0.1132900E+00
         -1   -1    0    0    0  501 -0.00000000000E+00  0.00000000000E+00  0.59396448068E+02  0.59396448068E+02  0.00000000000E+00 0.  1.
          1   -1    0    0  501    0  0.00000000000E+00 -0.00000000000E+00 -0.88920590834E+03  0.88920590834E+03  0.00000000000E+00 0. -1.
         25    2    1    2    0    0  0.14228724565E+03  0.14319258733E+03 -0.45553505201E+03  0.51372143696E+03  0.12509098224E+03 0.  0.
          5    1    3    3  502    0  0.90623754214E+02  0.14896062569E+03 -0.27363447614E+03  0.32449226765E+03  0.41800000000E+01 0.  1.
         -5    1    3    3    0  502  0.51663491433E+02 -0.57680383576E+01 -0.18190057588E+03  0.18922916931E+03  0.41800000000E+01 0.  1.
        -11    1    1    2    0    0 -0.10039443330E+02  0.96796824151E+01 -0.57038881018E+02  0.58718997112E+02  0.00000000000E+00 0. -1.
         11    1    1    2    0    0 -0.13224780232E+03 -0.15287226974E+03 -0.31723552724E+03  0.37616192234E+03  0.00000000000E+00 0.  1.
</event>
<event>
 7    1  0.2899775E-009  0.7655251E+02  0.7561462E-02  0.1339130E+00
         -2   -1    0    0    0  501 -0.00000000000E+00  0.00000000000E+00  0.28228355660E+02  0.28228355660E+02  0.00000000000E+00 0.  1.
          2   -1    0    0  501    0  0.00000000000E+00 -0.00000000000E+00 -0.45783636202E+03  0.45783636202E+03  0.00000000000E+00 0. -1.
         25    2    1    2    0    0  0.17003404147E+02 -0.21595174370E+02 -0.20496752291E+03  0.24168951134E+03  0.12508663851E+03 0.  0.
          5    1    3    3  502    0 -0.18629730921E+01  0.20962242557E+02  0.85644377612E+01  0.23102127086E+02  0.41800000000E+01 0.  1.
         -5    1    3    3    0  502  0.18866377239E+02 -0.42557416927E+02 -0.21353196067E+03  0.21858738425E+03  0.41800000000E+01 0.  1.
        -11    1    1    2    0    0 -0.39932123719E+02 -0.14216208733E+02 -0.16963081684E+03  0.17484647299E+03  0.00000000000E+00 0. -1.
         11    1    1    2    0    0  0.22928719572E+02  0.35811383103E+02 -0.55009666607E+02  0.69528733350E+02  0.00000000000E+00 0.  1.
</event>
<event>
 7    1  0.3592082E-009  0.1130199E+03  0.7561462E-02  0.1255077E+00
         -1   -1    0    0    0  501 -0.00000000000E+00  0.00000000000E+00  0.14622724693E+02  0.14622724693E+02  0.00000000000E+00 0.  1.
          1   -1    0    0  501    0  0.00000000000E+00 -0.00000000000E+00 -0.10991265046E+04  0.10991265046E+04  0.00000000000E+00 0. -1.
         25    2    1    2    0    0  0.20040519206E+02  0.29632937851E+02 -0.84139333865E+03  0.85139296728E+03  0.12508997162E+03 0.  0.
          5    1    3    3  502    0  0.69397054530E+02 -0.49533157648E+00 -0.37288541020E+03  0.37931147896E+03  0.41800000000E+01 0.  1.
         -5    1    3    3    0  502 -0.49356535323E+02  0.30128269428E+02 -0.46850792844E+03  0.47208148832E+03  0.41800000000E+01 0.  1.
        -11    1    1    2    0    0  0.21837290032E+01  0.32488474006E+02 -0.85749779410E+02  0.91724011493E+02  0.00000000000E+00 0. -1.
         11    1    1    2    0    0 -0.22224248209E+02 -0.62121411857E+02 -0.15736066186E+03  0.17063225053E+03  0.00000000000E+00 0.  1.
</event>
<event>
 7    1  0.2899775E-009  0.1871912E+03  0.7561462E-02  0.1161019E+00
          3   -1    0    0  501    0  0.00000000000E+00  0.00000000000E+00  0.75826242362E+03  0.75826242362E+03  0.00000000000E+00 0. -1.
         -3   -1    0    0    0  501 -0.00000000000E+00 -0.00000000000E+00 -0.48619577581E+02  0.48619577581E+02  0.00000000000E+00 0.  1.
         25    2    1    2    0    0 -0.15563747102E+03  0.44546862194E+01  0.31299911730E+03  0.37129478705E+03  0.12509398406E+03 0.  0.
          5    1    3    3  502    0 -0.17539694079E+03 -0.80990953269E+01  0.28206121629E+03  0.33227350830E+03  0.41800000000E+01 0.  1.
         -5    1    3    3    0  502  0.19759469768E+02  0.12553781546E+02  0.30937901013E+02  0.39021278756E+02  0.41800000000E+01 0.  1.
        -11    1    1    2    0    0  0.20619708080E+02 -0.31131212415E+02  0.48370763225E+02  0.61106918452E+02  0.00000000000E+00 0.  1.
         11    1    1    2    0    0  0.13501776294E+03  0.26676526195E+02  0.34827296551E+03  0.37448029570E+03  0.00000000000E+00 0. -1.
</event>
<event>
 7    1  0.2899775E-009  0.1587305E+03  0.7561462E-02  0.1190137E+00
         -1   -1    0    0    0  501 -0.00000000000E+00  0.00000000000E+00  0.15214241777E+04  0.15214241777E+04  0.00000000000E+00 0.  1.
          1   -1    0    0  501    0  0.00000000000E+00 -0.00000000000E+00 -0.33355601458E+02  0.33355601458E+02  0.00000000000E+00 0. -1.
         25    2    1    2    0    0 -0.33857307147E+01  0.14143758465E+03  0.12435064237E+04  0.12577649965E+04  0.12509399290E+03 0.  0.
          5    1    3    3  502    0 -0.35840683757E+02  0.10119939449E+03  0.45330911934E+03  0.46586747271E+03  0.41800000000E+01 0.  1.
         -5    1    3    3    0  502  0.32454953042E+02  0.40238190161E+02  0.79019730441E+03  0.79189752381E+03  0.41800000000E+01 0.  1.
        -11    1    1    2    0    0 -0.33518664729E+02 -0.75208946604E+02  0.17801283568E+03  0.19613377119E+03  0.00000000000E+00 0.  1.
         11    1    1    2    0    0  0.36904395444E+02 -0.66228638050E+02  0.66549316815E+02  0.10088101144E+03  0.00000000000E+00 0. -1.
</event>
<event>
 7    1  0.2899775E-009  0.1582658E+03  0.7561462E-02  0.1190669E+00
         -2   -1    0    0    0  501 -0.00000000000E+00  0.00000000000E+00  0.22301559168E+02  0.22301559168E+02  0.00000000000E+00 0.  1.
          2   -1    0    0  501    0  0.00000000000E+00 -0.00000000000E+00 -0.12338697940E+04  0.12338697940E+04  0.00000000000E+00 0. -1.
         25    2    1    2    0    0  0.30999069866E+02  0.11917089918E+03 -0.72862944053E+03  0.74947370081E+03  0.12508925234E+03 0.  0.
          5    1    3    3  502    0 -0.18587296926E+02  0.11183782508E+03 -0.36066214159E+03  0.37808443435E+03  0.41800000000E+01 0. -1.
         -5    1    3    3    0  502  0.49586366792E+02  0.73330741024E+01 -0.36796729894E+03  0.37138926645E+03  0.41800000000E+01 0. -1.
        -11    1    1    2    0    0 -0.36116157945E+02 -0.13311614075E+03 -0.42172925702E+03  0.44371144905E+03  0.00000000000E+00 0.  1.
         11    1    1    2    0    0  0.51170880792E+01  0.13945241571E+02 -0.61209537313E+02  0.62986203338E+02  0.00000000000E+00 0. -1.
</event>
<event>
 7    1  0.2899775E-009  0.1534463E+03  0.7561462E-02  0.1196301E+00
         -1   -1    0    0    0  501 -0.00000000000E+00  0.00000000000E+00  0.57207098101E+02  0.57207098101E+02  0.00000000000E+00 0.  1.
          1   -1    0    0  501    0  0.00000000000E+00 -0.00000000000E+00 -0.50979714924E+03  0.50979714924E+03  0.00000000000E+00 0. -1.
         25    2    1    2    0    0  0.11674274278E+03  0.47222039995E+02 -0.30563211463E+03  0.35343464125E+03  0.12508503942E+03 0.  0.
          5    1    3    3  502    0  0.40222360002E+02  0.62562581288E+02 -0.59950234326E+02  0.95621220538E+02  0.41800000000E+01 0.  1.
         -5    1    3    3    0  502  0.76520382780E+02 -0.15340541293E+02 -0.24568188031E+03  0.25781342071E+03  0.41800000000E+01 0.  1.
        -11    1    1    2    0    0 -0.26311026244E+02 -0.57495898159E+02 -0.50215122040E+02  0.80744082685E+02  0.00000000000E+00 0.  1.
         11    1    1    2    0    0 -0.90431716537E+02  0.10273858165E+02 -0.96742814465E+02  0.13282552341E+03  0.00000000000E+00 0. -1.
</event>
<event>
 7    1  0.2899775E-009  0.2224440E+03  0.7561462E-02  0.1132074E+00
          1   -1    0    0  501    0  0.00000000000E+00  0.00000000000E+00  0.21075608542E+03  0.21075608542E+03  0.00000000000E+00 0.  1.
         -1   -1    0    0    0  501 -0.00000000000E+00 -0.00000000000E+00 -0.32234893036E+03  0.32234893036E+03  0.00000000000E+00 0. -1.
         25    2    1    2    0    0 -0.16916389755E+03 -0.13010862634E+03  0.48180605762E+02  0.25201992475E+03  0.12509193746E+03 0.  0.
          5    1    3    3  502    0 -0.15221471017E+03 -0.12190111592E+03 -0.53404711852E+01  0.19512865778E+03  0.41800000000E+01 0. -1.
         -5    1    3    3    0  502 -0.16949187383E+02 -0.82075104156E+01  0.53521076948E+02  0.56891266973E+02  0.41800000000E+01 0. -1.
        -11    1    1    2    0    0  0.10454664102E+03  0.25542493491E+02 -0.63576575843E+02  0.12499760045E+03  0.00000000000E+00 0.  1.
         11    1    1    2    0    0  0.64617256529E+02  0.10456613285E+03 -0.96196874865E+02  0.15608749057E+03  0.00000000000E+00 0. -1.
</event>
<event>
 7    1  0.2899775E-009  0.9893818E+02  0.7561462E-02  0.1282545E+00
          1   -1    0    0  501    0  0.00000000000E+00  0.00000000000E+00  0.31919581864E+03  0.31919581864E+03  0.00000000000E+00 0. -1.
         -1   -1    0    0    0  501 -0.00000000000E+00 -0.00000000000E+00 -0.45294874017E+02  0.45294874017E+02  0.00000000000E+00 0.  1.
         25    2    1    2    0    0  0.23981545789E+02 -0.18669597664E+02  0.21334300528E+03  0.24916681315E+03  0.12508075175E+03 0.  0.
          5    1    3    3  502    0  0.20252834850E+02 -0.72089275656E+02  0.12589948766E+03  0.14654417210E+03  0.41800000000E+01 0.  1.
         -5    1    3    3    0  502  0.37287109397E+01  0.53419677992E+02  0.87443517623E+02  0.10262264105E+03  0.41800000000E+01 0.  1.
        -11    1    1    2    0    0  0.31511725163E+01  0.36541568799E+02  0.72060880812E+02  0.80857817692E+02  0.00000000000E+00 0. -1.
         11    1    1    2    0    0 -0.27132718306E+02 -0.17871971134E+02 -0.11502941465E+02  0.34466061818E+02  0.00000000000E+00 0.  1.
</event>
<event>
 7    1  0.2899775E-009  0.2147194E+03  0.7561462E-02  0.1137882E+00
          2   -1    0    0  501    0  0.00000000000E+00  0.00000000000E+00  0.85213674232E+03  0.85213674232E+03  0.00000000000E+00 0. -1.
         -2   -1    0    0    0  501 -0.00000000000E+00 -0.00000000000E+00 -0.67566753786E+02  0.67566753786E+02  0.00000000000E+00 0.  1.
         25    2    1    2    0    0 -0.20804298533E+03 -0.48094010735E+02  0.40621592919E+03  0.47566095909E+03  0.12508816593E+03 0.  0.
          5    1    3    3  502    0 -0.18854153305E+03 -0.34601949851E+02  0.40871338967E+03  0.45145244701E+03  0.41800000000E+01 0.  1.
         -5    1    3    3    0  502 -0.19501452282E+02 -0.13492060884E+02 -0.24974604784E+01  0.24208512074E+02  0.41800000000E+01 0.  1.
        -11    1    1    2    0    0  0.22738002080E+02  0.73036284783E+01  0.12638620065E+03  0.12862282629E+03  0.00000000000E+00 0. -1.
         11    1    1    2    0    0  0.18530498325E+03  0.40790382257E+02  0.25196785869E+03  0.31541971073E+03  0.00000000000E+00 0.  1.
</event>
<event>
 7    1  0.2899775E-009  0.1189280E+03  0.7561462E-02  0.1244876E+00
          1   -1    0    0  501    0  0.00000000000E+00  0.00000000000E+00  0.48299080483E+02  0.48299080483E+02  0.00000000000E+00 0. -1.
         -1   -1    0    0    0  501 -0.00000000000E+00 -0.00000000000E+00 -0.38790960278E+03  0.38790960278E+03  0.00000000000E+00 0.  1.
         25    2    1    2    0    0 -0.79942215455E+02  0.22117585846E+02 -0.20110802929E+03  0.25094297257E+03  0.12509192868E+03 0.  0.
          5    1    3    3  502    0 -0.32713343351E+02  0.64160906715E+02 -0.15971708228E+03  0.17525354078E+03  0.41800000000E+01 0. -1.
         -5    1    3    3    0  502 -0.47228872104E+02 -0.42043320869E+02 -0.41390947011E+02  0.75689431788E+02  0.41800000000E+01 0. -1.
        -11    1    1    2    0    0  0.53614302309E+02 -0.43011546776E+02 -0.13497659422E+03  0.15147002197E+03  0.00000000000E+00 0.  1.
         11    1    1    2    0    0  0.26327913146E+02  0.20893960931E+02 -0.35258987811E+01  0.33795688722E+02  0.00000000000E+00 0. -1.
</event>
<event>
 7    1  0.2899775E-009  0.1382500E+03  0.7561462E-02  0.1215703E+00
          2   -1    0    0  501    0  0.00000000000E+00  0.00000000000E+00  0.79122221169E+02  0.79122221169E+02  0.00000000000E+00 0. -1.
         -2   -1    0    0    0  501 -0.00000000000E+00 -0.00000000000E+00 -0.25569607850E+03  0.25569607850E+03  0.00000000000E+00 0.  1.
         25    2    1    2    0    0  0.79294332731E+02  0.40668956637E+02 -0.11971524628E+03  0.19473314059E+03  0.12509076950E+03 0.  0.
          5    1    3    3  502    0  0.92005766039E+02 -0.13954674705E+02 -0.51905974744E+02  0.10663721932E+03  0.41800000000E+01 0. -1.
         -5    1    3    3    0  502 -0.12711433308E+02  0.54623631342E+02 -0.67809271540E+02  0.88095921271E+02  0.41800000000E+01 0. -1.
        -11    1    1    2    0    0  0.13501837912E+02  0.13964997374E+02 -0.29069268074E+01  0.19641053997E+02  0.00000000000E+00 0.  1.
         11    1    1    2    0    0 -0.92796170643E+02 -0.54633954011E+02 -0.53951684244E+02  0.12044410508E+03  0.00000000000E+00 0. -1.
</event>
<event>
 7    1  0.2899775E-009  0.1099755E+03  0.7561462E-02  0.1260615E+00
         -1   -1    0    0    0  501 -0.00000000000E+00  0.00000000000E+00  0.21841791672E+02  0.21841791672E+02  0.00000000000E+00 0.  1.
          1   -1    0    0  501    0  0.00000000000E+00 -0.00000000000E+00 -0.63230023612E+03  0.63230023612E+03  0.00000000000E+00 0. -1.
         25    2    1    2    0    0 -0.29605508966E+01  0.44517343392E+02 -0.34137184776E+03  0.36629533908E+03  0.12508788218E+03 0.  0.
          5    1    3    3  502    0 -0.39230920219E+02 -0.30170305867E+02 -0.12931417883E+03  0.13852415567E+03  0.41800000000E+01 0.  1.
         -5    1    3    3    0  502  0.36270369323E+02  0.74687649259E+02 -0.21205766893E+03  0.22777118341E+03  0.41800000000E+01 0.  1.
        -11    1    1    2    0    0  0.37401635491E+02 -0.35457321035E+02 -0.78125793650E+02  0.93593501835E+02  0.00000000000E+00 0. -1.
         11    1    1    2    0    0 -0.34441084594E+02 -0.90600223576E+01 -0.19096080304E+03  0.19425318687E+03  0.00000000000E+00 0.  1.
</event>
<event>
 7    1  0.2899775E-009  0.6362926E+02  0.7561462E-02  0.1383203E+00
          2   -1    0    0  501    0  0.00000000000E+00  0.00000000000E+00  0.27302735736E+03  0.27302735736E+03  0.00000000000E+00 0. -1.
         -2   -1    0    0    0  501 -0.00000000000E+00 -0.00000000000E+00 -0.51469612206E+02  0.51469612206E+02  0.00000000000E+00 0.  1.
         25    2    1    2    0    0 -0.41929573345E+02 -0.18232765402E+02  0.14897799840E+03  0.19983157158E+03  0.12509072763E+03 0.  0.
          5    1    3    3  502    0 -0.26646487796E+02 -0.34095786808E+02  0.16605277518E+03  0.17164951073E+03  0.41800000000E+01 0. -1.
         -5    1    3    3    0  502 -0.15283085549E+02  0.15863021406E+02 -0.17074776774E+02  0.28182060853E+02  0.41800000000E+01 0. -1.
        -11    1    1    2    0    0  0.84993950546E+01  0.25734693476E+02 -0.14749665582E+02  0.30855579712E+02  0.00000000000E+00 0.  1.
         11    1    1    2    0    0  0.33430178290E+02 -0.75019280740E+01  0.87329412330E+02  0.93809818267E+02  0.00000000000E+00 0. -1.
</event>
<event>
 7    1  0.2899775E-009  0.1185747E+03  0.7561462E-02  0.1245467E+00
          1   -1    0    0  501    0  0.00000000000E+00  0.00000000000E+00  0.66418739502E+02  0.66418739502E+02  0.00000000000E+00 0. -1.
         -1   -1    0    0    0  501 -0.00000000000E+00 -0.00000000000E+00 -0.32202568927E+03  0.32202568927E+03  0.00000000000E+00 0.  1.
         25    2    1    2    0    0  0.92331090852E+02  0.88867441441E+00 -0.18082852298E+03  0.23848025843E+03  0.12509220142E+03 0.  0.
          5    1    3    3  502    0  0.50491842608E+02 -0.27032008560E+02 -0.17898698482E+03  0.18797331936E+03  0.41800000000E+01 0.  1.
         -5    1    3    3    0  502  0.41839248243E+02  0.27920682975E+02 -0.18415381609E+01  0.50506939069E+02  0.41800000000E+01 0.  1.
        -11    1    1    2    0    0  0.97109864881E+01 -0.22889373783E+02 -0.20962316712E+02  0.32521460802E+02  0.00000000000E+00 0.  1.
         11    1    1    2    0    0 -0.10204207734E+03  0.22000699369E+02 -0.53816110077E+02  0.11744270954E+03  0.00000000000E+00 0. -1.
</event>
<event>
 7    1  0.2899775E-009  0.8082425E+02  0.7561462E-02  0.1326728E+00
          1   -1    0    0  501    0  0.00000000000E+00  0.00000000000E+00  0.16681117084E+03  0.16681117084E+03  0.00000000000E+00 0. -1.
         -1   -1    0    0    0  501 -0.00000000000E+00 -0.00000000000E+00 -0.82604476555E+02  0.82604476555E+02  0.00000000000E+00 0.  1.
         25    2    1    2    0    0  0.33223420563E+02  0.89769468791E+00  0.14889104353E+02  0.13028160150E+03  0.12508800395E+03 0.  0.
          5    1    3    3  502    0  0.42972717682E+02  0.17816090202E+02  0.62864346720E+02  0.78316447976E+02  0.41800000000E+01 0.  1.
         -5    1    3    3    0  502 -0.97492971186E+01 -0.16918395514E+02 -0.47975242367E+02  0.51965153528E+02  0.41800000000E+01 0.  1.
        -11    1    1    2    0    0 -0.22852972909E+02 -0.44569285060E+02  0.24702994902E+02  0.55847269393E+02  0.00000000000E+00 0.  1.
         11    1    1    2    0    0 -0.10370447655E+02  0.43671590372E+02  0.44614595034E+02  0.63286776504E+02  0.00000000000E+00 0. -1.
</event>
<event>
 7    1  0.2899775E-009  0.1790465E+03  0.7561462E-02  0.1168729E+00
          2   -1    0    0  501    0  0.00000000000E+00  0.00000000000E+00  0.14133824891E+04  0.14133824891E+04  0.00000000000E+00 0. -1.
         -2   -1    0    0    0  501 -0.00000000000E+00 -0.00000000000E+00 -0.25924722759E+02  0.25924722759E+02  0.00000000000E+00 0.  1.
         25    2    1    2    0    0 -0.13153861099E+03 -0.85415387880E+02  0.71007047976E+03  0.73786543875E+03  0.12508846791E+03 0.  0.
          5    1    3    3  502    0 -0.11177681869E+03 -0.11766098854E+03  0.58827797010E+03  0.61026765270E+03  0.41800000000E+01 0. -1.
         -5    1    3    3    0  502 -0.19761792305E+02  0.32245600657E+02  0.12179250966E+03  0.12759778605E+03  0.41800000000E+01 0. -1.
        -11    1    1    2    0    0  0.12582279512E+02  0.28616067475E+01  0.53263552076E+01  0.13959678030E+02  0.00000000000E+00 0.  1.
         11    1    1    2    0    0  0.11895633148E+03  0.82553781132E+02  0.67206093140E+03  0.68748209510E+03  0.00000000000E+00 0. -1.
</event>
<event>
 7    1  0.2899775E-009  0.1512649E+03  0.7561462E-02  0.1198927E+00
          2   -1    0    0  501    0  0.00000000000E+00  0.00000000000E+00  0.15997020095E+04  0.15997020095E+04  0.00000000000E+00 0.  1.
         -2   -1    0    0    0  501 -0.00000000000E+00 -0.00000000000E+00 -0.15877566070E+02  0.15877566070E+02  0.00000000000E+00 0. -1.
         25    2    1    2    0    0 -0.65038119312E+02  0.85881012228E+02  0.10548991234E+04  0.10677385530E+04  0.12509177314E+03 0.  0.
          5    1    3    3  502    0 -0.90841577452E+02  0.96013517757E+02  0.75149377588E+03  0.76304072982E+03  0.41800000000E+01 0. -1.
         -5    1    3    3    0  502  0.25803458140E+02 -0.10132505529E+02  0.30340534756E+03  0.30469782317E+03  0.41800000000E+01 0. -1.
        -11    1    1    2    0    0  0.16664715984E+02 -0.91996135400E+02  0.36804951316E+03  0.37973865463E+03  0.00000000000E+00 0. -1.
         11    1    1    2    0    0  0.48373403327E+02  0.61151231720E+01  0.16087580680E+03  0.16810236790E+03  0.00000000000E+00 0.  1.
</event>
<event>
 7    1  0.2899775E-009  0.1106669E+03  0.7561462E-02  0.1259340E+00
         -2   -1    0    0    0  501 -0.00000000000E+00  0.00000000000E+00  0.24477206126E+02  0.24477206126E+02  0.00000000000E+00 0.  1.
          2   -1    0    0  501    0  0.00000000000E+00 -0.00000000000E+00 -0.58562696135E+03  0.58562696135E+03  0.00000000000E+00 0. -1.
         25    2    1    2    0    0 -0.28990751930E+02 -0.42777164595E+02 -0.36225313971E+03  0.38669735461E+03  0.12504861983E+03 0.  0.
          5    1    3    3  502    0 -0.25150782745E+01  0.37130253211E+02 -0.20390774378E+03  0.20731816538E+03  0.41800000000E+01 0.  1.
         -5    1    3    3    0  502 -0.26475673655E+02 -0.79907417806E+02 -0.15834539593E+03  0.17937918923E+03  0.41800000000E+01 0.  1.
        -11    1    1    2    0    0  0.47174312463E+02 -0.59913271396E+01 -0.11790023970E+03  0.12712898285E+03  0.00000000000E+00 0.  1.
         11    1    1    2    0    0 -0.18183560534E+02  0.48768491735E+02 -0.80996375812E+02  0.96277830026E+02  0.00000000000E+00 0. -1.
</event>
<event>
 7    1  0.2899775E-009  0.1488698E+03  0.7561462E-02  0.1201869E+00
         -1   -1    0    0    0  501 -0.00000000000E+00  0.00000000000E+00  0.60114017936E+03  0.60114017936E+03  0.00000000000E+00 0.  1.
          1   -1    0    0  501    0  0.00000000000E+00 -0.00000000000E+00 -0.40409772714E+02  0.40409772714E+02  0.00000000000E+00 0. -1.
         25    2    1    2    0    0  0.11102667332E+03  0.18933643533E+00  0.29015448843E+03  0.33491084164E+03  0.12509471074E+03 0.  0.
          5    1    3    3  502    0 -0.18770946767E+01  0.43579063287E+02  0.10421962000E+03  0.11305688760E+03  0.41800000000E+01 0. -1.
         -5    1    3    3    0  502  0.11290376800E+03 -0.43389726852E+02  0.18593486843E+03  0.22185395403E+03  0.41800000000E+01 0. -1.
        -11    1    1    2    0    0 -0.70836256757E+02  0.35419420481E+02  0.21606755006E+03  0.23012495912E+03  0.00000000000E+00 0.  1.
         11    1    1    2    0    0 -0.40190416563E+02 -0.35608756917E+02  0.54508368152E+02  0.76514151313E+02  0.00000000000E+00 0. -1.
</event>
<event>
 7    1  0.2960861E-009  0.9218096E+02  0.7561462E-02  0.1297654E+00
          2   -1    0    0  501    0  0.00000000000E+00  0.00000000000E+00  0.72800639975E+02  0.72800639975E+02  0.00000000000E+00 0.  1.
         -2   -1    0    0    0  501 -0.00000000000E+00 -0.00000000000E+00 -0.20734041482E+03  0.20734041482E+03  0.00000000000E+00 0. -1.
         25    2    1    2    0    0 -0.33497391826E+02 -0.45611675258E+02 -0.84992534725E+02  0.16147411451E+03  0.12509060124E+03 0.  0.
          5    1    3    3  502    0  0.85363234543E+01 -0.71693521040E+02 -0.12167024829E+02  0.73337157501E+02  0.41800000000E+01 0. -1.
         -5    1    3    3    0  502 -0.42033715280E+02  0.26081845781E+02 -0.72825509896E+02  0.88136957011E+02  0.41800000000E+01 0. -1.
        -11    1    1    2    0    0  0.10426804629E+02 -0.91227105686E+00  0.25408475475E+02  0.27479831135E+02  0.00000000000E+00 0.  1.
         11    1    1    2    0    0  0.23070587197E+02  0.46523946315E+02 -0.74955715593E+02  0.91187109146E+02  0.00000000000E+00 0. -1.
</event>
<event>
 7    1  0.2899775E-009  0.1852938E+03  0.7561462E-02  0.1162776E+00
          2   -1    0    0  501    0  0.00000000000E+00  0.00000000000E+00  0.68217169331E+03  0.68217169331E+03  0.00000000000E+00 0. -1.
         -2   -1    0    0    0  501 -0.00000000000E+00 -0.00000000000E+00 -0.68693836335E+02  0.68693836335E+02  0.00000000000E+00 0.  1.
         25    2    1    2    0    0 -0.14325494270E+03 -0.58102244706E+02  0.13636912325E+03  0.24112806770E+03  0.12509339634E+03 0.  0.
          5    1    3    3  502    0  0.16278644276E+02 -0.23798960905E+02  0.11420695945E+01  0.29157529432E+02  0.41800000000E+01 0.  1.
         -5    1    3    3    0  502 -0.15953358698E+03 -0.34303283801E+02  0.13522705366E+03  0.21197053827E+03  0.41800000000E+01 0.  1.
        -11    1    1    2    0    0  0.76464661911E+02  0.77294831917E+02  0.31934503407E+03  0.33734638926E+03  0.00000000000E+00 0. -1.
         11    1    1    2    0    0  0.66790280790E+02 -0.19192587211E+02  0.15776369965E+03  0.17239107268E+03  0.00000000000E+00 0.  1.
</event>
<event>
 7    1  0.2899775E-009  0.1734487E+03  0.7561462E-02  0.1174298E+00
          2   -1    0    0  501    0  0.00000000000E+00  0.00000000000E+00  0.38496668014E+03  0.38496668014E+03  0.00000000000E+00 0. -1.
         -2   -1    0    0    0  501 -0.00000000000E+00 -0.00000000000E+00 -0.11694342140E+03  0.11694342140E+03  0.00000000000E+00 0.  1.
         25    2    1    2    0    0 -0.36403324163E+02  0.16121735230E+03  0.22901935855E+03  0.30889237709E+03  0.12509355436E+03 0.  0.
          5    1    3    3  502    0 -0.17818174690E+02  0.11265414610E+03  0.53994487280E+02  0.12625894439E+03  0.41800000000E+01 0.  1.
         -5    1    3    3    0  502 -0.18585149473E+02  0.48563206205E+02  0.17502487127E+03  0.18263343270E+03  0.41800000000E+01 0.  1.
        -11    1    1    2    0    0 -0.19075357355E+02 -0.80004142408E+02  0.46318238814E+02  0.94392326529E+02  0.00000000000E+00 0.  1.
         11    1    1    2    0    0  0.55478681518E+02 -0.81213209895E+02 -0.73143386224E+01  0.98625397916E+02  0.00000000000E+00 0. -1.
</event>
<event>
 7    1  0.2899775E-009  0.9448195E+02  0.7561462E-02  0.1292347E+00
          4   -1    0    0  501    0  0.00000000000E+00  0.00000000000E+00  0.10037099410E+03  0.10037099410E+03  0.00000000000E+00 0. -1.
         -4   -1    0    0    0  501 -0.00000000000E+00 -0.00000000000E+00 -0.14448976757E+03  0.14448976757E+03  0.00000000000E+00 0.  1.
         25    2    1    2    0    0 -0.23236031029E+01  0.52421602651E+02 -0.31477742515E+02  0.13925656628E+03  0.12509244351E+03 0.  0.
          5    1    3    3  502    0  0.29893191630E+02 -0.11822808038E+02  0.30314630151E+02  0.44382777030E+02  0.41800000000E+01 0. -1.
         -5    1    3    3    0  502 -0.32216794733E+02  0.64244410689E+02 -0.61792372667E+02  0.94873789254E+02  0.41800000000E+01 0. -1.
        -11    1    1    2    0    0  0.17028463988E+02 -0.63755212129E+02 -0.36469370947E+02  0.75397020343E+02  0.00000000000E+00 0.  1.
         11    1    1    2    0    0 -0.14704860885E+02  0.11333609478E+02  0.23828339995E+02  0.30207175048E+02  0.00000000000E+00 0. -1.
</event>
<event>
 7    1  0.2899775E-009  0.4296561E+03  0.7561462E-02  0.1033969E+00
         -1   -1    0    0    0  501 -0.00000000000E+00  0.00000000000E+00  0.29959010427E+03  0.29959010427E+03  0.00000000000E+00 0.  1.
          1   -1    0    0  501    0  0.00000000000E+00 -0.00000000000E+00 -0.64818077007E+03  0.64818077007E+03  0.00000000000E+00 0. -1.
         25    2    1    2    0    0  0.41259419904E+03 -0.96032773271E+02 -0.12094679975E+03  0.45795828479E+03  0.12506556529E+03 0.  0.
          5    1    3    3  502    0  0.13559012422E+03  0.16442216160E+02 -0.34140055115E+01  0.13668999997E+03  0.41800000000E+01 0.  1.
         -5    1    3    3    0  502  0.27700407481E+03 -0.11247498943E+03 -0.11753279424E+03  0.32126828482E+03  0.41800000000E+01 0.  1.
        -11    1    1    2    0    0 -0.37730105516E+03  0.86040471898E+02 -0.23450656321E+03  0.45249572066E+03  0.00000000000E+00 0.  1.
         11    1    1    2    0    0 -0.35293143876E+02  0.99923013725E+01  0.68626971615E+01  0.37316868889E+02  0.00000000000E+00 0. -1.
</event>
<event>
 7    1  0.2899775E-009  0.8380552E+02  0.7561462E-02  0.1318586E+00
         -2   -1    0    0    0  501 -0.00000000000E+00  0.00000000000E+00  0.53126802815E+02  0.53126802815E+02  0.00000000000E+00 0.  1.
          2   -1    0    0  501    0  0.00000000000E+00 -0.00000000000E+00 -0.23830631320E+03  0.23830631320E+03  0.00000000000E+00 0. -1.
         25    2    1    2    0    0 -0.13043797596E+02  0.24045485251E+02 -0.94832156765E+02  0.15934000208E+03  0.12509105599E+03 0.  0.
          5    1    3    3  502    0 -0.51566581266E+01  0.59951074223E+02 -0.30652444819E+01  0.60395285803E+02  0.41800000000E+01 0.  1.
         -5    1    3    3    0  502 -0.78871394690E+01 -0.35905588972E+02 -0.91766912283E+02  0.98944716273E+02  0.41800000000E+01 0.  1.
        -11    1    1    2    0    0  0.36246445182E+02  0.85937672694E+00 -0.91096436397E+02  0.98046438186E+02  0.00000000000E+00 0. -1.
         11    1    1    2    0    0 -0.23202647586E+02 -0.24904861977E+02  0.74908277129E+00  0.34046675757E+02  0.00000000000E+00 0.  1.
</event>
<event>
 7    1  0.2899775E-009  0.1154917E+03  0.7561462E-02  0.1250725E+00
         -2   -1    0    0    0  501 -0.00000000000E+00  0.00000000000E+00  0.39596107440E+02  0.39596107440E+02  0.00000000000E+00 0.  1.
          2   -1    0    0  501    0  0.00000000000E+00 -0.00000000000E+00 -0.89020867275E+03  0.89020867275E+03  0.00000000000E+00 0. -1.
         25    2    1    2    0    0 -0.19432989961E+02 -0.78706232808E+02 -0.75331713294E+03  0.76792383059E+03  0.12509194468E+03 0.  0.
          5    1    3    3  502    0  0.37866292509E+02 -0.24623475555E+02 -0.51264317985E+03  0.51464616379E+03  0.41800000000E+01 0. -1.
         -5    1    3    3    0  502 -0.57299282470E+02 -0.54082757253E+02 -0.24067395309E+03  0.25327766680E+03  0.41800000000E+01 0. -1.
        -11    1    1    2    0    0  0.28575574148E+02  0.11210375499E+01  0.89863060056E+01  0.29976221555E+02  0.00000000000E+00 0.  1.
         11    1    1    2    0    0 -0.91425841877E+01  0.77585195258E+02 -0.10628173838E+03  0.13190472805E+03  0.00000000000E+00 0. -1.
</event>
<event>
 7    1  0.2899775E-009  0.1099089E+03  0.7561462E-02  0.1260739E+00
          1   -1    0    0  501    0  0.00000000000E+00  0.00000000000E+00  0.10961994038E+04  0.10961994038E+04  0.00000000000E+00 0. -1.
         -1   -1    0    0    0  501 -0.00000000000E+00 -0.00000000000E+00 -0.13837088415E+02  0.13837088415E+02  0.00000000000E+00 0.  1.
         25    2    1    2    0    0  0.24964804774E+02  0.45130494925E+02  0.72068963472E+03  0.73328127249E+03  0.12509145430E+03 0.  0.
          5    1    3    3  502    0  0.64742382162E+02  0.47687809908E+02  0.61498791220E+03  0.62023649346E+03  0.41800000000E+01 0. -1.
         -5    1    3    3    0  502 -0.39777577389E+02 -0.25573149833E+01  0.10570172252E+03  0.11304477903E+03  0.41800000000E+01 0. -1.
        -11    1    1    2    0    0 -0.55510558562E+02 -0.17969873009E+02  0.14569759756E+03  0.15694625954E+03  0.00000000000E+00 0.  1.
         11    1    1    2    0    0  0.30545753789E+02 -0.27160621916E+02  0.21597508314E+03  0.21980896022E+03  0.00000000000E+00 0. -1.
</event>
<event>
 7    1  0.2899775E-009  0.1344248E+03  0.7561462E-02  0.1221034E+00
         -1   -1    0    0    0  501 -0.00000000000E+00  0.00000000000E+00  0.61197171369E+03  0.61197171369E+03  0.00000000000E+00 0.  1.
          1   -1    0    0  501    0  0.00000000000E+00 -0.00000000000E+00 -0.40455572156E+02  0.40455572156E+02  0.00000000000E+00 0. -1.
         25    2    1    2    0    0 -0.64543243958E+02 -0.67454057305E+02  0.17735731606E+03  0.23626107090E+03  0.12509115026E+03 0.  0.
          5    1    3    3  502    0 -0.94521640006E+02 -0.33194116292E+02  0.15684162792E+03  0.18615305110E+03  0.41800000000E+01 0.  1.
         -5    1    3    3    0  502  0.29978396048E+02 -0.34259941013E+02  0.20515688141E+02  0.50108019795E+02  0.41800000000E+01 0.  1.
        -11    1    1    2    0    0  0.36459428321E+02  0.83079802783E+02  0.34988949160E+03  0.36146120106E+03  0.00000000000E+00 0.  1.
         11    1    1    2    0    0  0.28083815637E+02 -0.15625745478E+02  0.44269333877E+02  0.54705013887E+02  0.00000000000E+00 0. -1.
</event>
<event>
 7    1  0.2899775E-009  0.1397378E+03  0.7561462E-02  0.1213682E+00
          1   -1    0    0  501    0  0.00000000000E+00  0.00000000000E+00  0.99208561198E+03  0.99208561198E+03  0.00000000000E+00 0. -1.
         -1   -1    0    0    0  501 -0.00000000000E+00 -0.00000000000E+00 -0.24511441045E+02  0.24511441045E+02  0.00000000000E+00 0.  1.
         25    2    1    2    0    0  0.92868173866E+02 -0.16380131482E+02  0.32388789124E+03  0.35978256958E+03  0.12508926756E+03 0.  0.
          5    1    3    3  502    0  0.12275854605E+03 -0.10092296185E+02  0.22965252711E+03  0.26063244364E+03  0.41800000000E+01 0.  1.
         -5    1    3    3    0  502 -0.29890372179E+02 -0.62878352965E+01  0.94235364125E+02  0.99150125938E+02  0.41800000000E+01 0.  1.
        -11    1    1    2    0    0  0.13070657932E+02  0.14397179133E+02  0.48194419334E+02  0.51969442182E+02  0.00000000000E+00 0.  1.
         11    1    1    2    0    0 -0.10593883180E+03  0.19829523482E+01  0.59549186036E+03  0.60484504126E+03  0.00000000000E+00 0. -1.
</event>
<event>
 7    1  0.2899775E-009  0.7171566E+02  0.7561462E-02  0.1354354E+00
         -1   -1    0    0    0  501 -0.00000000000E+00  0.00000000000E+00  0.48015328812E+02  0.48015328812E+02  0.00000000000E+00 0.  1.
          1   -1    0    0  501    0  0.00000000000E+00 -0.00000000000E+00 -0.33123727094E+03  0.33123727094E+03  0.00000000000E+00 0. -1.
         25    2    1    2    0    0 -0.40974897565E+02 -0.15770398918E+02 -0.23273705709E+03  0.26784701329E+03  0.12509131494E+03 0.  0.
          5    1    3    3  502    0 -0.45324045354E+02 -0.48090691959E+02 -0.52134461681E+02  0.84276083411E+02  0.41800000000E+01 0.  1.
         -5    1    3    3    0  502  0.43491477888E+01  0.32320293041E+02 -0.18060259541E+03  0.18357092988E+03  0.41800000000E+01 0.  1.
        -11    1    1    2    0    0  0.26714188122E+02  0.70754423141E+01  0.23057068627E+02  0.35990806391E+02  0.00000000000E+00 0.  1.
         11    1    1    2    0    0  0.14260709443E+02  0.86949566037E+01 -0.73541953667E+02  0.75414780072E+02  0.00000000000E+00 0. -1.
</event>
<event>
 7    1  0.2899775E-009  0.1076556E+03  0.7561462E-02  0.1264974E+00
          3   -1    0    0  501    0  0.00000000000E+00  0.00000000000E+00  0.39975946065E+02  0.39975946065E+02  0.00000000000E+00 0. -1.
         -3   -1    0    0    0  501 -0.00000000000E+00 -0.00000000000E+00 -0.38915377200E+03  0.38915377200E+03  0.00000000000E+00 0.  1.
         25    2    1    2    0    0 -0.46160608661E+01  0.85915946151E+01 -0.29955880983E+03  0.32477415331E+03  0.12509055357E+03 0.  0.
          5    1    3    3  502    0  0.22632523983E+02 -0.52767468644E+02 -0.15452226521E+03  0.16489766443E+03  0.41800000000E+01 0. -1.
         -5    1    3    3    0  502 -0.27248584849E+02  0.61359063259E+02 -0.14503654462E+03  0.15987648888E+03  0.41800000000E+01 0. -1.
        -11    1    1    2    0    0  0.41297706218E+02 -0.27093531149E+02 -0.18213050246E+02  0.52642902354E+02  0.00000000000E+00 0. -1.
         11    1    1    2    0    0 -0.36681645352E+02  0.18501936534E+02 -0.31405965857E+02  0.51712662401E+02  0.00000000000E+00 0.  1.
</event>
<event>
 7    1  0.2899775E-009  0.1327602E+03  0.7561462E-02  0.1223417E+00
         -1   -1    0    0    0  501 -0.00000000000E+00  0.00000000000E+00  0.18509188072E+02  0.18509188072E+02  0.00000000000E+00 0.  1.
          1   -1    0    0  501    0  0.00000000000E+00 -0.00000000000E+00 -0.11066893157E+04  0.11066893157E+04  0.00000000000E+00 0. -1.
         25    2    1    2    0    0  0.85825706927E+02 -0.19509217879E+02 -0.70338994205E+03  0.71982741743E+03  0.12508972283E+03 0.  0.
          5    1    3    3  502    0  0.72543063199E+02  0.45631692943E+02 -0.36581960271E+03  0.37574752368E+03  0.41800000000E+01 0. -1.
         -5    1    3    3    0  502  0.13282643728E+02 -0.65140910822E+02 -0.33757033934E+03  0.34407989376E+03  0.41800000000E+01 0. -1.
        -11    1    1    2    0    0 -0.18051335325E+02 -0.25866705405E+02 -0.39345013698E+02  0.50427842096E+02  0.00000000000E+00 0.  1.
         11    1    1    2    0    0 -0.67774371603E+02  0.45375923284E+02 -0.34544517190E+03  0.35494324426E+03  0.00000000000E+00 0. -1.
</event>
<event>
 7    1  0.2899775E-009  0.7761842E+02  0.7561462E-02  0.1335949E+00
         -1   -1    0    0    0  501 -0.00000000000E+00  0.00000000000E+00  0.14669283446E+03  0.14669283446E+03  0.00000000000E+00 0.  1.
          1   -1    0    0  501    0  0.00000000000E+00 -0.00000000000E+00 -0.81619378775E+02  0.81619378775E+02  0.00000000000E+00 0. -1.
         25    2    1    2    0    0 -0.28254408286E+02 -0.22799051019E+02  0.58510508190E+02  0.14279004608E+03  0.12508960539E+03 0.  0.
          5    1    3    3  502    0 -0.62167504574E+02 -0.30692251064E+02  0.76540362356E+02  0.10335720763E+03  0.41800000000E+01 0.  1.
         -5    1    3    3    0  502  0.33913096288E+02  0.78932000450E+01 -0.18029854165E+02  0.39432838447E+02  0.41800000000E+01 0.  1.
        -11    1    1    2    0    0  0.23380962181E+02 -0.37830813878E+01  0.37556261008E+02  0.44401056724E+02  0.00000000000E+00 0.  1.
         11    1    1    2    0    0  0.48734461047E+01  0.26582132407E+02 -0.30993313514E+02  0.41121110428E+02  0.00000000000E+00 0. -1.
</event>
<event>
 7    1  0.2899775E-009  0.1089543E+03  0.7561462E-02  0.1262519E+00
         -1   -1    0    0    0  501 -0.00000000000E+00  0.00000000000E+00  0.10214968513E+03  0.10214968513E+03  0.00000000000E+00 0. -1.
          1   -1    0    0  501    0  0.00000000000E+00 -0.00000000000E+00 -0.18020806506E+03  0.18020806506E+03  0.00000000000E+00 0.  1.
         25    2    1    2    0    0 -0.51860484553E+02  0.77188013497E+01  0.22116860012E+02  0.13742605683E+03  0.12509067050E+03 0.  0.
          5    1    3    3  502    0 -0.51391941163E+02 -0.42903225690E+02  0.45960274252E+02  0.81311976980E+02  0.41800000000E+01 0.  1.
         -5    1    3    3    0  502 -0.46854339056E+00  0.50622027039E+02 -0.23843414240E+02  0.56114079847E+02  0.41800000000E+01 0.  1.
        -11    1    1    2    0    0  0.12397192851E+02  0.37806168321E+02 -0.61799225181E+02  0.73499258409E+02  0.00000000000E+00 0.  1.
         11    1    1    2    0    0  0.39463291702E+02 -0.45524969670E+02 -0.38376014759E+02  0.71432434959E+02  0.00000000000E+00 0. -1.
</event>
<event>
 7    1  0.2899775E-009  0.1113269E+03  0.7561462E-02  0.1258132E+00
         -2   -1    0    0    0  501 -0.00000000000E+00  0.00000000000E+00  0.31899205759E+02  0.31899205759E+02  0.00000000000E+00 0.  1.
          2   -1    0    0  501    0  0.00000000000E+00 -0.00000000000E+00 -0.48679584929E+03  0.48679584929E+03  0.00000000000E+00 0. -1.
         25    2    1    2    0    0  0.39653585306E+02 -0.38218665406E+02 -0.28002105730E+03  0.31158929108E+03  0.12507206150E+03 0.  0.
          5    1    3    3  502    0 -0.13647998456E+02 -0.56902959283E+02 -0.58144014857E+02  0.82597902520E+02  0.41800000000E+01 0. -1.
         -5    1    3    3    0  502  0.53301583762E+02  0.18684293877E+02 -0.22187704245E+03  0.22899138856E+03  0.41800000000E+01 0. -1.
        -11    1    1    2    0    0 -0.38734818385E+02 -0.23710775728E+02 -0.10072978022E+03  0.11049468613E+03  0.00000000000E+00 0.  1.
         11    1    1    2    0    0 -0.91876692082E+00  0.61929441134E+02 -0.74145806006E+02  0.96611077833E+02  0.00000000000E+00 0. -1.
</event>
<event>
 7    1  0.2899775E-009  0.1286288E+03  0.7561462E-02  0.1229505E+00
          1   -1    0    0  501    0  0.00000000000E+00  0.00000000000E+00  0.19927899957E+03  0.19927899957E+03  0.00000000000E+00 0. -1.
         -1   -1    0    0    0  501 -0.00000000000E+00 -0.00000000000E+00 -0.14604619303E+03  0.14604619303E+03  0.00000000000E+00 0.  1.
         25    2    1    2    0    0 -0.48021097906E+02 -0.95922265022E+02 -0.48580923660E+02  0.17176780966E+03  0.12504786091E+03 0.  0.
          5    1    3    3  502    0 -0.44509881195E+02 -0.28529609693E+02 -0.80973976083E+02  0.96795275483E+02  0.41800000000E+01 0. -1.
         -5    1    3    3    0  502 -0.35112167110E+01 -0.67392655328E+02  0.32393052423E+02  0.74972534173E+02  0.41800000000E+01 0. -1.
        -11    1    1    2    0    0  0.70865527359E+02  0.86695872453E+02  0.65653359703E+02  0.12980162136E+03  0.00000000000E+00 0.  1.
         11    1    1    2    0    0 -0.22844429453E+02  0.92263925682E+01  0.36160370495E+02  0.43755761577E+02  0.00000000000E+00 0. -1.
</event>
<event>
 7    1  0.2899775E-009  0.1095456E+03  0.7561462E-02  0.1261414E+00
         -3   -1    0    0    0  501 -0.00000000000E+00  0.00000000000E+00  0.28099713934E+03  0.28099713934E+03  0.00000000000E+00 0.  1.
          3   -1    0    0  501    0  0.00000000000E+00 -0.00000000000E+00 -0.65267018782E+02  0.65267018782E+02  0.00000000000E+00 0. -1.
         25    2    1    2    0    0 -0.14956395541E+02 -0.67544905657E+02  0.77858155331E+02  0.16277154018E+03  0.12508666553E+03 0.  0.
          5    1    3    3  502    0 -0.42822805066E+02 -0.36176679456E+02 -0.17195428542E+02  0.58785201649E+02  0.41800000000E+01 0.  1.
         -5    1    3    3    0  502  0.27866409525E+02 -0.31368226201E+02  0.95053583873E+02  0.10398633853E+03  0.41800000000E+01 0.  1.
        -11    1    1    2    0    0 -0.42510375761E+02  0.26540014498E+02  0.50238957090E+02  0.70960955647E+02  0.00000000000E+00 0.  1.
         11    1    1    2    0    0  0.57466771302E+02  0.41004891159E+02  0.87633008140E+02  0.11253166229E+03  0.00000000000E+00 0. -1.
</event>
<event>
 7    1  0.2899775E-009  0.8489661E+02  0.7561462E-02  0.1315703E+00
          1   -1    0    0  501    0  0.00000000000E+00  0.00000000000E+00  0.12409005518E+03  0.12409005518E+03  0.00000000000E+00 0. -1.
         -1   -1    0    0    0  501 -0.00000000000E+00 -0.00000000000E+00 -0.14643763422E+03  0.14643763422E+03  0.00000000000E+00 0.  1.
         25    2    1    2    0    0 -0.72886533566E+02  0.23679968894E+02  0.91083431956E+01  0.14698639163E+03  0.12509536246E+03 0.  0.
          5    1    3    3  502    0 -0.35069976206E+02  0.34674284419E+02 -0.53513112902E+02  0.72892625715E+02  0.41800000000E+01 0. -1.
         -5    1    3    3    0  502 -0.37816557360E+02 -0.10994315525E+02  0.62621456098E+02  0.74093765920E+02  0.41800000000E+01 0. -1.
        -11    1    1    2    0    0  0.47247224807E+02 -0.27661138436E+02  0.25917518438E+02  0.60573563487E+02  0.00000000000E+00 0. -1.
         11    1    1    2    0    0  0.25639308759E+02  0.39811695410E+01 -0.57373440674E+02  0.62967734272E+02  0.00000000000E+00 0.  1.
</event>
<event>
 7    1  0.2899775E-009  0.1637218E+03  0.7561462E-02  0.1184558E+00
         -1   -1    0    0    0  501 -0.00000000000E+00  0.00000000000E+00  0.13018432721E+03  0.13018432721E+03  0.00000000000E+00 0.  1.
          1   -1    0    0  501    0  0.00000000000E+00 -0.00000000000E+00 -0.21469479379E+03  0.21469479379E+03  0.00000000000E+00 0. -1.
         25    2    1    2    0    0  0.59019191410E+02 -0.86550426852E+02 -0.14527924208E+02  0.16380854199E+03  0.12509171237E+03 0.  0.
          5    1    3    3  502    0 -0.23165685393E+02  0.17117790453E+02  0.64112117574E+01  0.29803418695E+02  0.41800000000E+01 0.  1.
         -5    1    3    3    0  502  0.82184876803E+02 -0.10366821730E+03 -0.20939135966E+02  0.13400512329E+03  0.41800000000E+01 0.  1.
        -11    1    1    2    0    0 -0.95697276694E+02  0.33313137173E+02 -0.32877261826E+02  0.10653003436E+03  0.00000000000E+00 0.  1.
         11    1    1    2    0    0  0.36678085284E+02  0.53237289679E+02 -0.37105280545E+02  0.74540544651E+02  0.00000000000E+00 0. -1.
</event>
<event>
 7    1  0.2899775E-009  0.1498429E+03  0.7561462E-02  0.1200666E+00
         -1   -1    0    0    0  501 -0.00000000000E+00  0.00000000000E+00  0.46065277739E+02  0.46065277739E+02  0.00000000000E+00 0.  1.
          1   -1    0    0  501    0  0.00000000000E+00 -0.00000000000E+00 -0.67780752765E+03  0.67780752765E+03  0.00000000000E+00 0. -1.
         25    2    1    2    0    0 -0.11982296621E+03 -0.29037344682E+02 -0.46415230432E+03  0.49627253115E+03  0.12509337693E+03 0.  0.
          5    1    3    3  502    0 -0.57876948565E+02 -0.59052557316E+02 -0.12332013177E+03  0.14853374365E+03  0.41800000000E+01 0. -1.
         -5    1    3    3    0  502 -0.61946017641E+02  0.30015212634E+02 -0.34083217255E+03  0.34773878751E+03  0.41800000000E+01 0. -1.
        -11    1    1    2    0    0  0.95687343187E+02 -0.15827992600E+02 -0.13803831904E+03  0.16870438797E+03  0.00000000000E+00 0. -1.
         11    1    1    2    0    0  0.24135623019E+02  0.44865337282E+02 -0.29551626547E+02  0.58895886270E+02  0.00000000000E+00 0.  1.
</event>
<event>
 7    1  0.2899775E-009  0.1288198E+03  0.7561462E-02  0.1229217E+00
          2   -1    0    0  501    0  0.00000000000E+00  0.00000000000E+00  0.10154553694E+04  0.10154553694E+04  0.00000000000E+00 0. -1.
         -2   -1    0    0    0  501 -0.00000000000E+00 -0.00000000000E+00 -0.36688813838E+02  0.36688813838E+02  0.00000000000E+00 0.  1.
         25    2    1    2    0    0 -0.55752527328E+02  0.73917805122E+02  0.86321099593E+03  0.87712860025E+03  0.12509664930E+03 0.  0.
          5    1    3    3  502    0 -0.61528370840E+02  0.17790780652E+01  0.62742274450E+03  0.63044879114E+03  0.41800000000E+01 0. -1.
         -5    1    3    3    0  502  0.57758435117E+01  0.72138727057E+02  0.23578825143E+03  0.24667980911E+03  0.41800000000E+01 0. -1.
        -11    1    1    2    0    0  0.71858097006E+02 -0.32215122210E+02  0.10085165286E+03  0.12795489865E+03  0.00000000000E+00 0. -1.
         11    1    1    2    0    0 -0.16105569678E+02 -0.41702682912E+02  0.14703906790E+02  0.47060684351E+02  0.00000000000E+00 0.  1.
</event>
<event>
 7    1  0.2899775E-009  0.1104760E+03  0.7561462E-02  0.1259691E+00
          1   -1    0    0  501    0  0.00000000000E+00  0.00000000000E+00  0.60227092925E+03  0.60227092925E+03  0.00000000000E+00 0. -1.
         -1   -1    0    0    0  501 -0.00000000000E+00 -0.00000000000E+00 -0.25865819488E+02  0.25865819488E+02  0.00000000000E+00 0.  1.
         25    2    1    2    0    0 -0.17118216914E+02 -0.37154255632E+02  0.23222791832E+03  0.26692838661E+03  0.12508990954E+03 0.  0.
          5    1    3    3  502    0  0.53272180183E+02 -0.15208712790E+02  0.76176837919E+02  0.94284745116E+02  0.41800000000E+01 0. -1.
         -5    1    3    3    0  502 -0.70390397097E+02 -0.21945542841E+02  0.15605108040E+03  0.17264364150E+03  0.41800000000E+01 0. -1.
        -11    1    1    2    0    0 -0.25878140153E+02  0.40883975477E+02  0.27815271860E+03  0.28232979378E+03  0.00000000000E+00 0. -1.
         11    1    1    2    0    0  0.42996357067E+02 -0.37297198450E+01  0.66024472832E+02  0.78878568343E+02  0.00000000000E+00 0.  1.
</event>
<event>
 7    1  0.2899775E-009  0.1106082E+03  0.7561462E-02  0.1259448E+00
         -1   -1    0    0    0  501 -0.00000000000E+00  0.00000000000E+00  0.23197557634E+02  0.23197557634E+02  0.00000000000E+00 0.  1.
          1   -1    0    0  501    0  0.00000000000E+00 -0.00000000000E+00 -0.54587886394E+03  0.54587886394E+03  0.00000000000E+00 0. -1.
         25    2    1    2    0    0  0.22658725513E+02  0.17815914040E+02 -0.31277698926E+03  0.33809256048E+03  0.12508521019E+03 0.  0.
          5    1    3    3  502    0  0.17490271964E+02 -0.52791548710E+02 -0.16518821849E+03  0.17434872284E+03  0.41800000000E+01 0.  1.
         -5    1    3    3    0  502  0.51684535493E+01  0.70607462751E+02 -0.14758877077E+03  0.16374383764E+03  0.41800000000E+01 0.  1.
        -11    1    1    2    0    0 -0.40067735401E+02 -0.46246241760E+02 -0.15639887854E+03  0.16794269114E+03  0.00000000000E+00 0. -1.
         11    1    1    2    0    0  0.17409009888E+02  0.28430327720E+02 -0.53505438500E+02  0.63041169950E+02  0.00000000000E+00 0.  1.
</event>
<event>
 7    1  0.2899775E-009  0.6383951E+02  0.7561462E-02  0.1382391E+00
          1   -1    0    0  501    0  0.00000000000E+00  0.00000000000E+00  0.35483044623E+02  0.35483044623E+02  0.00000000000E+00 0. -1.
         -1   -1    0    0    0  501 -0.00000000000E+00 -0.00000000000E+00 -0.34550538860E+03  0.34550538860E+03  0.00000000000E+00 0.  1.
         25    2    1    2    0    0 -0.17502208646E+02 -0.75807519387E+01 -0.13514762403E+03  0.18514020024E+03  0.12509283895E+03 0.  0.
          5    1    3    3  502    0 -0.14851903343E+01  0.16543704499E+02 -0.15092900042E+03  0.15189777983E+03  0.41800000000E+01 0.  1.
         -5    1    3    3    0  502 -0.16017018312E+02 -0.24124456437E+02  0.15781376391E+02  0.33242420411E+02  0.41800000000E+01 0.  1.
        -11    1    1    2    0    0  0.18533886096E+02  0.42496544450E+02 -0.13550071581E+03  0.14321279694E+03  0.00000000000E+00 0.  1.
         11    1    1    2    0    0 -0.10316774499E+01 -0.34915792512E+02 -0.39374004139E+02  0.52635436039E+02  0.00000000000E+00 0. -1.
</event>
<event>
 7    1  0.2899775E-009  0.1266133E+03  0.7561462E-02  0.1232569E+00
         -1   -1    0    0    0  501 -0.00000000000E+00  0.00000000000E+00  0.48045867722E+02  0.48045867722E+02  0.00000000000E+00 0.  1.
          1   -1    0    0  501    0  0.00000000000E+00 -0.00000000000E+00 -0.39395442162E+03  0.39395442162E+03  0.00000000000E+00 0. -1.
         25    2    1    2    0    0  0.69108117553E+02 -0.13159723327E+02 -0.11763107468E+03  0.18556228283E+03  0.12508869192E+03 0.  0.
          5    1    3    3  502    0  0.18924469014E+01  0.46343658468E+02 -0.69381469925E+02  0.83561814272E+02  0.41800000000E+01 0.  1.
         -5    1    3    3    0  502  0.67215670652E+02 -0.59503381796E+02 -0.48249604759E+02  0.10200046856E+03  0.41800000000E+01 0.  1.
        -11    1    1    2    0    0 -0.52170207908E+02 -0.36926711348E+02 -0.12839428309E+03  0.14342386320E+03  0.00000000000E+00 0.  1.
         11    1    1    2    0    0 -0.16937909645E+02  0.50086434676E+02 -0.99883196116E+02  0.11301414331E+03  0.00000000000E+00 0. -1.
</event>
<event>
 7    1  0.2899775E-009  0.2510718E+03  0.7561462E-02  0.1112629E+00
          2   -1    0    0  501    0  0.00000000000E+00  0.00000000000E+00  0.15749341649E+04  0.15749341649E+04  0.00000000000E+00 0. -1.
         -2   -1    0    0    0  501 -0.00000000000E+00 -0.00000000000E+00 -0.44959341577E+02  0.44959341577E+02  0.00000000000E+00 0.  1.
         25    2    1    2    0    0 -0.58142051757E+02 -0.22409882755E+03  0.10107361467E+04  0.10444309614E+04  0.12509073533E+03 0.  0.
          5    1    3    3  502    0 -0.70187750148E+02 -0.23563585339E+03  0.93929873998E+03  0.97095322802E+03  0.41800000000E+01 0.  1.
         -5    1    3    3    0  502  0.12045698391E+02  0.11537025837E+02  0.71437406759E+02  0.73477733357E+02  0.41800000000E+01 0.  1.
        -11    1    1    2    0    0  0.47423568351E+01  0.13561174493E+03  0.36855374415E+03  0.39274024194E+03  0.00000000000E+00 0. -1.
         11    1    1    2    0    0  0.53399694922E+02  0.88487082617E+02  0.15068493240E+03  0.18272230313E+03  0.00000000000E+00 0.  1.
</event>
<event>
 7    1  0.2899775E-009  0.1407216E+03  0.7561462E-02  0.1212361E+00
         -1   -1    0    0    0  501 -0.00000000000E+00  0.00000000000E+00  0.23356626351E+02  0.23356626351E+02  0.00000000000E+00 0.  1.
          1   -1    0    0  501    0  0.00000000000E+00 -0.00000000000E+00 -0.95450240196E+03  0.95450240196E+03  0.00000000000E+00 0. -1.
         25    2    1    2    0    0  0.92862849181E+02 -0.46698792643E+02 -0.54124176983E+03  0.56515021211E+03  0.12509125807E+03 0.  0.
          5    1    3    3  502    0  0.41620628960E+02 -0.78924782823E+02 -0.42209134227E+03  0.43143941836E+03  0.41800000000E+01 0. -1.
         -5    1    3    3    0  502  0.51242220221E+02  0.32225990180E+02 -0.11915042756E+03  0.13371079375E+03  0.41800000000E+01 0. -1.
        -11    1    1    2    0    0 -0.93269782001E+02  0.89587612580E+01 -0.31778646446E+03  0.33131216191E+03  0.00000000000E+00 0. -1.
         11    1    1    2    0    0  0.40693282038E+00  0.37740031385E+02 -0.72117541319E+02  0.81396654287E+02  0.00000000000E+00 0.  1.
</event>
<event>
 7    1  0.2899775E-009  0.8819541E+02  0.7561462E-02  0.1307282E+00
          1   -1    0    0  501    0  0.00000000000E+00  0.00000000000E+00  0.22414301011E+03  0.22414301011E+03  0.00000000000E+00 0. -1.
         -1   -1    0    0    0  501 -0.00000000000E+00 -0.00000000000E+00 -0.64892789167E+02  0.64892789167E+02  0.00000000000E+00 0.  1.
         25    2    1    2    0    0  0.32527927236E+02  0.15737318800E+02  0.13367749933E+03  0.18660960158E+03  0.12509092821E+03 0.  0.
          5    1    3    3  502    0  0.68097447175E+02 -0.27914656405E+02  0.73834225277E+02  0.10433338668E+03  0.41800000000E+01 0.  1.
         -5    1    3    3    0  502 -0.35569519939E+02  0.43651975205E+02  0.59843274053E+02  0.82276214895E+02  0.41800000000E+01 0.  1.
        -11    1    1    2    0    0 -0.21471903246E+02 -0.24152782436E+02 -0.30633071782E+02  0.44528469715E+02  0.00000000000E+00 0.  1.
         11    1    1    2    0    0 -0.11056023990E+02  0.84154636356E+01  0.56205793397E+02  0.57897727987E+02  0.00000000000E+00 0. -1.
</event>
<event>
 7    1  0.3232272E-009  0.1087779E+03  0.7561462E-02  0.1262850E+00
         -2   -1    0    0    0  501 -0.00000000000E+00  0.00000000000E+00  0.11668679699E+03  0.11668679699E+03  0.00000000000E+00 0.  1.
          2   -1    0    0  501    0  0.00000000000E+00 -0.00000000000E+00 -0.13093152706E+03  0.13093152706E+03  0.00000000000E+00 0. -1.
         25    2    1    2    0    0  0.37612811255E+02  0.10898951999E+02 -0.52277894791E+02  0.14111868765E+03  0.12509194616E+03 0.  0.
          5    1    3    3  502    0 -0.25580583806E+02 -0.40673830402E+02 -0.10420392081E+02  0.49343527625E+02  0.41800000000E+01 0. -1.
         -5    1    3    3    0  502  0.63193395061E+02  0.51572782401E+02 -0.41857502710E+02  0.91775160022E+02  0.41800000000E+01 0. -1.
        -11    1    1    2    0    0 -0.12671898259E+02  0.34002959142E+02  0.41367633108E+02  0.55027804834E+02  0.00000000000E+00 0.  1.
         11    1    1    2    0    0 -0.24940912995E+02 -0.44901911141E+02 -0.33344683931E+01  0.51471831565E+02  0.00000000000E+00 0. -1.
</event>
<event>
 7    1  0.2899775E-009  0.1070781E+03  0.7561462E-02  0.1266079E+00
          4   -1    0    0  501    0  0.00000000000E+00  0.00000000000E+00  0.35627988189E+02  0.35627988189E+02  0.00000000000E+00 0. -1.
         -4   -1    0    0    0  501 -0.00000000000E+00 -0.00000000000E+00 -0.34645401441E+03  0.34645401441E+03  0.00000000000E+00 0.  1.
         25    2    1    2    0    0 -0.10993386501E+02  0.80447083644E+01 -0.21036138609E+03  0.24511931144E+03  0.12508394063E+03 0.  0.
          5    1    3    3  502    0  0.54901899132E+02  0.20164501010E+02 -0.94445599400E+02  0.11116775286E+03  0.41800000000E+01 0.  1.
         -5    1    3    3    0  502 -0.65895285633E+02 -0.12119792645E+02 -0.11591578669E+03  0.13395155858E+03  0.41800000000E+01 0.  1.
        -11    1    1    2    0    0 -0.49582318184E+01  0.38689898486E+02 -0.23562680731E+02  0.45570738757E+02  0.00000000000E+00 0.  1.
         11    1    1    2    0    0  0.15951618320E+02 -0.46734606851E+02 -0.76901959397E+02  0.91391952400E+02  0.00000000000E+00 0. -1.
</event>
<event>
 7    1  0.2908193E-009  0.1103085E+03  0.7561462E-02  0.1260000E+00
          4   -1    0    0  501    0  0.00000000000E+00  0.00000000000E+00  0.28892675782E+03  0.28892675782E+03  0.00000000000E+00 0. -1.
         -4   -1    0    0    0  501 -0.00000000000E+00 -0.00000000000E+00 -0.74503314014E+02  0.74503314014E+02  0.00000000000E+00 0.  1.
         25    2    1    2    0    0 -0.92270521397E+02 -0.27423209718E+02  0.93285306798E+02  0.18334490162E+03  0.12508925987E+03 0.  0.
          5    1    3    3  502    0 -0.12655091078E+02 -0.40167840309E+02  0.93472948191E+02  0.10260736411E+03  0.41800000000E+01 0. -1.
         -5    1    3    3    0  502 -0.79615430319E+02  0.12744630590E+02 -0.18764139375E+00  0.80737537509E+02  0.41800000000E+01 0. -1.
        -11    1    1    2    0    0  0.72785391952E+02  0.14608131371E+02  0.20833181366E+02  0.77104683578E+02  0.00000000000E+00 0.  1.
         11    1    1    2    0    0  0.19485129444E+02  0.12815078347E+02  0.10030495564E+03  0.10298048664E+03  0.00000000000E+00 0. -1.
</event>
<event>
 7    1  0.2899775E-009  0.7110084E+02  0.7561462E-02  0.1356389E+00
          2   -1    0    0  501    0  0.00000000000E+00  0.00000000000E+00  0.11321693499E+04  0.11321693499E+04  0.00000000000E+00 0. -1.
         -2   -1    0    0    0  501 -0.00000000000E+00 -0.00000000000E+00 -0.12466725826E+02  0.12466725826E+02  0.00000000000E+00 0.  1.
         25    2    1    2    0    0  0.11551497118E+02  0.23074399526E+02  0.83984630885E+03  0.84950286483E+03  0.12508968729E+03 0.  0.
          5    1    3    3  502    0 -0.10410173970E+01 -0.11104314629E+02  0.35852607968E+01  0.12438489281E+02  0.41800000000E+01 0. -1.
         -5    1    3    3    0  502  0.12592514515E+02  0.34178714155E+02  0.83626104805E+03  0.83706437555E+03  0.41800000000E+01 0. -1.
        -11    1    1    2    0    0  0.38255529964E+02  0.10834753911E+01  0.12100799803E+03  0.12691570068E+03  0.00000000000E+00 0. -1.
         11    1    1    2    0    0 -0.49807027083E+02 -0.24157874917E+02  0.15884831716E+03  0.16821751018E+03  0.00000000000E+00 0.  1.
</event>
<event>
 7    1  0.5275874E-009  0.7315376E+02  0.7561462E-02  0.1349685E+00
          1   -1    0    0  501    0  0.00000000000E+00  0.00000000000E+00  0.17566263461E+04  0.17566263461E+04  0.00000000000E+00 0. -1.
         -1   -1    0    0    0  501 -0.00000000000E+00 -0.00000000000E+00 -0.92504018742E+01  0.92504018742E+01  0.00000000000E+00 0.  1.
         25    2    1    2    0    0 -0.40005744348E+01  0.40209958884E+02  0.13397105103E+04  0.13461445112E+04  0.12509175980E+03 0.  0.
          5    1    3    3  502    0  0.51527208606E+01  0.40619771754E+02  0.13338654471E+04  0.13345002884E+04  0.41800000000E+01 0. -1.
         -5    1    3    3    0  502 -0.91532952954E+01 -0.40981286984E+00  0.58450631612E+01  0.11644222804E+02  0.41800000000E+01 0. -1.
        -11    1    1    2    0    0 -0.40053380339E+02 -0.29491114696E+02  0.14790035739E+03  0.15604010651E+03  0.00000000000E+00 0.  1.
         11    1    1    2    0    0  0.44053954773E+02 -0.10718844188E+02  0.25976507660E+03  0.26369213028E+03  0.00000000000E+00 0. -1.
</event>
<event>
 7    1  0.2899775E-009  0.5260459E+02  0.7561462E-02  0.1431779E+00
          2   -1    0    0  501    0  0.00000000000E+00  0.00000000000E+00  0.32464736042E+03  0.32464736042E+03  0.00000000000E+00 0. -1.
         -2   -1    0    0    0  501 -0.00000000000E+00 -0.00000000000E+00 -0.45121902732E+02  0.45121902732E+02  0.00000000000E+00 0.  1.
         25    2    1    2    0    0  0.50502347953E+01  0.16567021671E+02  0.21386607046E+03  0.24836322648E+03  0.12508247317E+03 0.  0.
          5    1    3    3  502    0  0.43291464791E+00  0.36186500014E+02  0.22291900453E+03  0.22587608369E+03  0.41800000000E+01 0.  1.
         -5    1    3    3    0  502  0.46173201473E+01 -0.19619478343E+02 -0.90529340711E+01  0.22487142795E+02  0.41800000000E+01 0.  1.
        -11    1    1    2    0    0 -0.20074765246E+02 -0.24118263434E+02 -0.17930728441E+02  0.36141359316E+02  0.00000000000E+00 0.  1.
         11    1    1    2    0    0  0.15024530451E+02  0.75512417628E+01  0.83590115671E+02  0.85264677360E+02  0.00000000000E+00 0. -1.
</event>
<event>
 7    1  0.6705494E-009  0.2062753E+03  0.7561462E-02  0.1144550E+00
          2   -1    0    0  501    0  0.00000000000E+00  0.00000000000E+00  0.28925242547E+03  0.28925242547E+03  0.00000000000E+00 0. -1.
         -2   -1    0    0    0  501 -0.00000000000E+00 -0.00000000000E+00 -0.19753530798E+03  0.19753530798E+03  0.00000000000E+00 0.  1.
         25    2    1    2    0    0  0.70264698047E+02 -0.18179397867E+03 -0.39362326217E+02  0.23490962792E+03  0.12508781752E+03 0.  0.
          5    1    3    3  502    0  0.10460680333E+02 -0.90104839554E+02  0.40412006396E+02  0.99392709014E+02  0.41800000000E+01 0. -1.
         -5    1    3    3    0  502  0.59804017713E+02 -0.91689139114E+02 -0.79774332613E+02  0.13551691891E+03  0.41800000000E+01 0. -1.
        -11    1    1    2    0    0  0.84811229927E+01  0.93516493669E+02  0.78639727739E+02  0.12248049157E+03  0.00000000000E+00 0.  1.
         11    1    1    2    0    0 -0.78745821039E+02  0.88277485000E+02  0.52439715964E+02  0.12939761396E+03  0.00000000000E+00 0. -1.
</event>
<event>
 7    1  0.2899775E-009  0.9062740E+02  0.7561462E-02  0.1301339E+00
         -1   -1    0    0    0  501 -0.00000000000E+00  0.00000000000E+00  0.32370022069E+02  0.32370022069E+02  0.00000000000E+00 0.  1.
          1   -1    0    0  501    0  0.00000000000E+00 -0.00000000000E+00 -0.50031361352E+03  0.50031361352E+03  0.00000000000E+00 0. -1.
         25    2    1    2    0    0  0.66621222531E+02  0.73688711562E+00 -0.30538860340E+03  0.33667247020E+03  0.12508885966E+03 0.  0.
          5    1    3    3  502    0  0.34229175363E+01 -0.10038518234E+02  0.97812114348E+01  0.15021075525E+02  0.41800000000E+01 0. -1.
         -5    1    3    3    0  502  0.63198304995E+02  0.10775405349E+02 -0.31516981483E+03  0.32165139468E+03  0.41800000000E+01 0. -1.
        -11    1    1    2    0    0  0.16804215596E+02  0.12757899775E+02 -0.57090184690E+02  0.60864068682E+02  0.00000000000E+00 0.  1.
         11    1    1    2    0    0 -0.83425438128E+02 -0.13494786891E+02 -0.10546480336E+03  0.13514709671E+03  0.00000000000E+00 0. -1.
</event>
<event>
 7    1  0.2899775E-009  0.1180606E+03  0.7561462E-02  0.1246331E+00
         -2   -1    0    0    0  501 -0.00000000000E+00  0.00000000000E+00  0.12987725008E+02  0.12987725008E+02  0.00000000000E+00 0.  1.
          2   -1    0    0  501    0  0.00000000000E+00 -0.00000000000E+00 -0.18554533587E+04  0.18554533587E+04  0.00000000000E+00 0. -1.
         25    2    1    2    0    0 -0.85194804586E+02  0.45941135136E+02 -0.13163742262E+04  0.13258430899E+04  0.12510017207E+03 0.  0.
          5    1    3    3  502    0 -0.47728415867E+02  0.40432818104E+01 -0.13826762139E+03  0.14638906152E+03  0.41800000000E+01 0. -1.
         -5    1    3    3    0  502 -0.37466388719E+02  0.41897853326E+02 -0.11781066048E+04  0.11794540284E+04  0.41800000000E+01 0. -1.
        -11    1    1    2    0    0  0.15817193763E+02 -0.58999002247E+02 -0.20900301374E+03  0.21774601176E+03  0.00000000000E+00 0.  1.
         11    1    1    2    0    0  0.69377610823E+02  0.13057867110E+02 -0.31708839370E+03  0.32485198198E+03  0.00000000000E+00 0. -1.
</event>
<event>
 7    1  0.2899775E-009  0.2363311E+03  0.7561462E-02  0.1122261E+00
          1   -1    0    0  501    0  0.00000000000E+00  0.00000000000E+00  0.29770963168E+03  0.29770963168E+03  0.00000000000E+00 0. -1.
         -1   -1    0    0    0  501 -0.00000000000E+00 -0.00000000000E+00 -0.20114182276E+03  0.20114182276E+03  0.00000000000E+00 0.  1.
         25    2    1    2    0    0 -0.62924365106E+02 -0.20909280153E+03  0.36015879644E+02  0.25421268658E+03  0.12509065137E+03 0.  0.
          5    1    3    3  502    0  0.22803781275E+02 -0.54383202739E+02 -0.28838125990E+02  0.65777314412E+02  0.41800000000E+01 0.  1.
         -5    1    3    3    0  502 -0.85728146380E+02 -0.15470959879E+03  0.64854005634E+02  0.18843537217E+03  0.41800000000E+01 0.  1.
        -11    1    1    2    0    0  0.61001153836E+02  0.53860935109E+02  0.14054951776E+02  0.82581370596E+02  0.00000000000E+00 0. -1.
         11    1    1    2    0    0  0.19232112699E+01  0.15523186642E+03  0.46496977501E+02  0.16205739727E+03  0.00000000000E+00 0.  1.
</event>
<event>
 7    1  0.2899775E-009  0.9207189E+02  0.7561462E-02  0.1297910E+00
          1   -1    0    0  501    0  0.00000000000E+00  0.00000000000E+00  0.30562640688E+02  0.30562640688E+02  0.00000000000E+00 0. -1.
         -1   -1    0    0    0  501 -0.00000000000E+00 -0.00000000000E+00 -0.66420543990E+03  0.66420543990E+03  0.00000000000E+00 0.  1.
         25    2    1    2    0    0  0.13923096496E+02 -0.13276148882E+02 -0.56778006119E+03  0.58171230323E+03  0.12507956305E+03 0.  0.
          5    1    3    3  502    0 -0.35040796304E+02  0.32878748095E+02 -0.12783122481E+03  0.13662782995E+03  0.41800000000E+01 0. -1.
         -5    1    3    3    0  502  0.48963892801E+02 -0.46154896978E+02 -0.43994883638E+03  0.44508447327E+03  0.41800000000E+01 0. -1.
        -11    1    1    2    0    0  0.20969776917E+02 -0.13124539723E+02 -0.64718826979E+02  0.69285724738E+02  0.00000000000E+00 0.  1.
         11    1    1    2    0    0 -0.34892873414E+02  0.26400688605E+02 -0.11439110377E+01  0.43770052620E+02  0.00000000000E+00 0. -1.
</event>
<event>
 7    1  0.2899775E-009  0.2211166E+03  0.7561462E-02  0.1133053E+00
          2   -1    0    0  501    0  0.00000000000E+00  0.00000000000E+00  0.46688265204E+03  0.46688265204E+03  0.00000000000E+00 0. -1.
         -2   -1    0    0    0  501 -0.00000000000E+00 -0.00000000000E+00 -0.12407396877E+03  0.12407396877E+03  0.00000000000E+00 0.  1.
         25    2    1    2    0    0  0.13663251154E+03  0.16000366622E+03  0.12541454766E+03  0.27503933779E+03  0.12509281416E+03 0.  0.
          5    1    3    3  502    0  0.14957218471E+03  0.13375431123E+03  0.13730942994E+03  0.24317361321E+03  0.41800000000E+01 0. -1.
         -5    1    3    3    0  502 -0.12939673165E+02  0.26249354983E+02 -0.11894882279E+02  0.31865724582E+02  0.41800000000E+01 0. -1.
        -11    1    1    2    0    0 -0.83177741679E+02 -0.11598261157E+03  0.19786303111E+03  0.24396778881E+03  0.00000000000E+00 0. -1.
         11    1    1    2    0    0 -0.53454769862E+02 -0.44021054648E+02  0.19531104503E+02  0.71949494205E+02  0.00000000000E+00 0.  1.
</event>
<event>
 7    1  0.2899775E-009  0.1025526E+03  0.7561462E-02  0.1275018E+00
         -2   -1    0    0    0  501 -0.00000000000E+00  0.00000000000E+00  0.81463753482E+02  0.81463753482E+02  0.00000000000E+00 0.  1.
          2   -1    0    0  501    0  0.00000000000E+00 -0.00000000000E+00 -0.16375509459E+03  0.16375509459E+03  0.00000000000E+00 0. -1.
         25    2    1    2    0    0 -0.11304743877E+02  0.51343129659E+01 -0.58225631853E+01  0.12583867516E+03  0.12508921424E+03 0.  0.
          5    1    3    3  502    0 -0.64834620223E+02 -0.96380531328E+01  0.13195931127E+02  0.66992723828E+02  0.41800000000E+01 0.  1.
         -5    1    3    3    0  502  0.53529876346E+02  0.14772366099E+02 -0.19018494313E+02  0.58845951328E+02  0.41800000000E+01 0.  1.
        -11    1    1    2    0    0 -0.35930202694E+02  0.19035964506E+01 -0.96545657227E+01  0.37253372792E+02  0.00000000000E+00 0.  1.
         11    1    1    2    0    0  0.47234946571E+02 -0.70379094165E+01 -0.66814212197E+02  0.82126800120E+02  0.00000000000E+00 0. -1.
</event>
<event>
 7    1  0.2899775E-009  0.1540284E+03  0.7561462E-02  0.1195609E+00
         -2   -1    0    0    0  501 -0.00000000000E+00  0.00000000000E+00  0.35065351482E+03  0.35065351482E+03  0.00000000000E+00 0.  1.
          2   -1    0    0  501    0  0.00000000000E+00 -0.00000000000E+00 -0.86930073132E+02  0.86930073132E+02  0.00000000000E+00 0. -1.
         25    2    1    2    0    0  0.97946974907E+02 -0.63874995253E+02  0.54023103375E+02  0.17955470429E+03  0.12509105172E+03 0.  0.
          5    1    3    3  502    0 -0.23078223196E+02 -0.65418209260E+01 -0.15241796491E+02  0.28726025955E+02  0.41800000000E+01 0.  1.
         -5    1    3    3    0  502  0.12102519810E+03 -0.57333174327E+02  0.69264899865E+02  0.15082867833E+03  0.41800000000E+01 0.  1.
        -11    1    1    2    0    0 -0.62058917686E+01  0.57421771295E+02  0.92530157167E+02  0.10907613349E+03  0.00000000000E+00 0.  1.
         11    1    1    2    0    0 -0.91741083138E+02  0.64532239585E+01  0.11717018114E+03  0.14895275017E+03  0.00000000000E+00 0. -1.
</event>
<event>
 7    1  0.2899775E-009  0.1804167E+03  0.7561462E-02  0.1167400E+00
         -2   -1    0    0    0  501 -0.00000000000E+00  0.00000000000E+00  0.24083232242E+02  0.24083232242E+02  0.00000000000E+00 0. -1.
          2   -1    0    0  501    0  0.00000000000E+00 -0.00000000000E+00 -0.14669764155E+04  0.14669764155E+04  0.00000000000E+00 0.  1.
         25    2    1    2    0    0  0.85721289929E+02 -0.12432706618E+03 -0.82011451321E+03  0.84323202103E+03  0.12508823918E+03 0.  0.
          5    1    3    3  502    0  0.61335912390E+02  0.75217051772E+01 -0.25590696465E+03  0.26329549398E+03  0.41800000000E+01 0.  1.
         -5    1    3    3    0  502  0.24385377539E+02 -0.13184877136E+03 -0.56420754856E+03  0.57993652704E+03  0.41800000000E+01 0.  1.
        -11    1    1    2    0    0 -0.90202069186E+02  0.81135728160E+02 -0.54876359480E+03  0.56201503774E+03  0.00000000000E+00 0. -1.
         11    1    1    2    0    0  0.44807792572E+01  0.43191338021E+02 -0.74015075283E+02  0.85812589006E+02  0.00000000000E+00 0.  1.
</event>
<event>
 7    1  0.2899775E-009  0.8084083E+02  0.7561462E-02  0.1326682E+00
         -2   -1    0    0    0  501 -0.00000000000E+00  0.00000000000E+00  0.19293624561E+03  0.19293624561E+03  0.00000000000E+00 0.  1.
          2   -1    0    0  501    0  0.00000000000E+00 -0.00000000000E+00 -0.70608682561E+02  0.70608682561E+02  0.00000000000E+00 0. -1.
         25    2    1    2    0    0  0.10056574650E+02 -0.94585466687E+01  0.23832784718E+02  0.12808444567E+03  0.12508806816E+03 0.  0.
          5    1    3    3  502    0  0.56012342928E+02 -0.33857733049E+02 -0.93271520820E+01  0.66243466194E+02  0.41800000000E+01 0. -1.
         -5    1    3    3    0  502 -0.45955768277E+02  0.24399186380E+02  0.33159936800E+02  0.61840979476E+02  0.41800000000E+01 0. -1.
        -11    1    1    2    0    0 -0.24294539575E+02  0.15077148181E+02  0.11166515040E+03  0.11526773557E+03  0.00000000000E+00 0.  1.
         11    1    1    2    0    0  0.14237964925E+02 -0.56186015126E+01 -0.13170372068E+02  0.20192746930E+02  0.00000000000E+00 0. -1.
</event>
<event>
 7    1  0.2899775E-009  0.9650798E+02  0.7561462E-02  0.1287815E+00
          1   -1    0    0  501    0  0.00000000000E+00  0.00000000000E+00  0.45399088223E+02  0.45399088223E+02  0.00000000000E+00 0. -1.
         -1   -1    0    0    0  501 -0.00000000000E+00 -0.00000000000E+00 -0.32926476653E+03  0.32926476653E+03  0.00000000000E+00 0.  1.
         25    2    1    2    0    0  0.52677468184E+01  0.35879012717E+02 -0.88554811416E+02  0.15749497281E+03  0.12509060366E+03 0.  0.
          5    1    3    3  502    0  0.21403996591E+02 -0.26994844726E+02 -0.85616838799E+02  0.92382726729E+02  0.41800000000E+01 0.  1.
         -5    1    3    3    0  502 -0.16136249772E+02  0.62873857443E+02 -0.29379726170E+01  0.65112246080E+02  0.41800000000E+01 0.  1.
        -11    1    1    2    0    0  0.19453880270E+02  0.22574484987E+02 -0.44598395695E+02  0.53638397893E+02  0.00000000000E+00 0.  1.
         11    1    1    2    0    0 -0.24721627088E+02 -0.58453497704E+02 -0.15071247119E+03  0.16353048405E+03  0.00000000000E+00 0. -1.
</event>
<event>
 7    1  0.2899775E-009  0.1756074E+03  0.7561462E-02  0.1172123E+00
         -1   -1    0    0    0  501 -0.00000000000E+00  0.00000000000E+00  0.16746903448E+03  0.16746903448E+03  0.00000000000E+00 0.  1.
          1   -1    0    0  501    0  0.00000000000E+00 -0.00000000000E+00 -0.20976724377E+03  0.20976724377E+03  0.00000000000E+00 0. -1.
         25    2    1    2    0    0 -0.12213898442E+03 -0.85955366235E+02 -0.50618261400E+02  0.20128695456E+03  0.12509185901E+03 0.  0.
          5    1    3    3  502    0  0.94062828230E+01 -0.54788870074E+02  0.29216527890E+01  0.55823891799E+02  0.41800000000E+01 0. -1.
         -5    1    3    3    0  502 -0.13154526724E+03 -0.31166496161E+02 -0.53539914189E+02  0.14546306276E+03  0.41800000000E+01 0. -1.
        -11    1    1    2    0    0  0.10411064631E+03  0.41200916957E+02 -0.28169365134E+02  0.11545585895E+03  0.00000000000E+00 0.  1.
         11    1    1    2    0    0  0.18028338102E+02  0.44754449278E+02  0.36489417250E+02  0.60493464739E+02  0.00000000000E+00 0. -1.
</event>
<event>
 7    1  0.2899775E-009  0.1089082E+03  0.7561462E-02  0.1262605E+00
         -2   -1    0    0    0  501 -0.00000000000E+00  0.00000000000E+00  0.92784879147E+03  0.92784879147E+03  0.00000000000E+00 0.  1.
          2   -1    0    0  501    0  0.00000000000E+00 -0.00000000000E+00 -0.13543290739E+02  0.13543290739E+02  0.00000000000E+00 0. -1.
         25    2    1    2    0    0 -0.11962370909E+02 -0.23480071348E+02  0.54700834895E+03  0.56174042001E+03  0.12505900041E+03 0.  0.
          5    1    3    3  502    0 -0.59511623734E+02  0.14695631728E+02  0.35378055871E+03  0.35907624687E+03  0.41800000000E+01 0. -1.
         -5    1    3    3    0  502  0.47549252825E+02 -0.38175703076E+02  0.19322779025E+03  0.20266417314E+03  0.41800000000E+01 0. -1.
        -11    1    1    2    0    0  0.16465590011E+02 -0.33905233856E+02  0.12191866004E+03  0.12761206920E+03  0.00000000000E+00 0.  1.
         11    1    1    2    0    0 -0.45032191024E+01  0.57385305204E+02  0.24537849173E+03  0.25203959300E+03  0.00000000000E+00 0. -1.
</event>
<event>
 7    1  0.2899775E-009  0.1267059E+03  0.7561462E-02  0.1232427E+00
         -1   -1    0    0    0  501 -0.00000000000E+00  0.00000000000E+00  0.87521942675E+02  0.87521942675E+02  0.00000000000E+00 0.  1.
          1   -1    0    0  501    0  0.00000000000E+00 -0.00000000000E+00 -0.30378154097E+03  0.30378154097E+03  0.00000000000E+00 0. -1.
         25    2    1    2    0    0  0.11202796926E+03  0.45555512970E+02 -0.12753205117E+03  0.21572601588E+03  0.12509084376E+03 0.  0.
          5    1    3    3  502    0  0.39989369675E+02 -0.98902056974E+01  0.17139875046E+02  0.44813095992E+02  0.41800000000E+01 0. -1.
         -5    1    3    3    0  502  0.72038599584E+02  0.55445718668E+02 -0.14467192622E+03  0.17091291989E+03  0.41800000000E+01 0. -1.
        -11    1    1    2    0    0 -0.55369479274E+02 -0.24709888791E+02 -0.97254067770E+02  0.11460676916E+03  0.00000000000E+00 0. -1.
         11    1    1    2    0    0 -0.56658489985E+02 -0.20845624180E+02  0.85265206432E+01  0.60970698611E+02  0.00000000000E+00 0.  1.
</event>
<event>
 7    1  0.4288819E-009  0.2035092E+03  0.7561462E-02  0.1146812E+00
         -1   -1    0    0    0  501 -0.00000000000E+00  0.00000000000E+00  0.12714245335E+03  0.12714245335E+03  0.00000000000E+00 0.  1.
          1   -1    0    0  501    0  0.00000000000E+00 -0.00000000000E+00 -0.40740479997E+03  0.40740479997E+03  0.00000000000E+00 0. -1.
         25    2    1    2    0    0 -0.19324341917E+03  0.34637379735E+02 -0.10171023536E+03  0.25403609108E+03  0.12508635603E+03 0.  0.
          5    1    3    3  502    0 -0.60773644440E+01  0.15018057437E+02  0.22847700276E+02  0.28319008027E+02  0.41800000000E+01 0.  1.
         -5    1    3    3    0  502 -0.18716605473E+03  0.19619322298E+02 -0.12455793563E+03  0.22571708305E+03  0.41800000000E+01 0.  1.
        -11    1    1    2    0    0  0.45358239805E+02  0.12117157209E+02 -0.41702833429E+01  0.47133710656E+02  0.00000000000E+00 0.  1.
         11    1    1    2    0    0  0.14788517937E+03 -0.46754536944E+02 -0.17438182791E+03  0.23337745159E+03  0.00000000000E+00 0. -1.
</event>
<event>
 7    1  0.2899775E-009  0.1115622E+03  0.7561462E-02  0.1257704E+00
          1   -1    0    0  501    0  0.00000000000E+00  0.00000000000E+00  0.47572345304E+02  0.47572345304E+02  0.00000000000E+00 0. -1.
         -1   -1    0    0    0  501 -0.00000000000E+00 -0.00000000000E+00 -0.28103892614E+03  0.28103892614E+03  0.00000000000E+00 0.  1.
         25    2    1    2    0    0  0.31302815496E+02  0.25944839758E+02 -0.15017445163E+03  0.19963251929E+03  0.12509107029E+03 0.  0.
          5    1    3    3  502    0 -0.21287288270E+01 -0.48920512056E+02 -0.49901208409E+02  0.70038210906E+02  0.41800000000E+01 0.  1.
         -5    1    3    3    0  502  0.33431544323E+02  0.74865351815E+02 -0.10027324322E+03  0.12959430838E+03  0.41800000000E+01 0.  1.
        -11    1    1    2    0    0 -0.14527639546E+02  0.30077566229E+02 -0.54190465889E+02  0.63657826654E+02  0.00000000000E+00 0.  1.
         11    1    1    2    0    0 -0.16775175950E+02 -0.56022405988E+02 -0.29101663314E+02  0.65320925502E+02  0.00000000000E+00 0. -1.
</event>
<event>
 7    1  0.2899775E-009  0.1850730E+03  0.7561462E-02  0.1162982E+00
          2   -1    0    0  501    0  0.00000000000E+00  0.00000000000E+00  0.15600025434E+03  0.15600025434E+03  0.00000000000E+00 0. -1.
         -2   -1    0    0    0  501 -0.00000000000E+00 -0.00000000000E+00 -0.26316403177E+03  0.26316403177E+03  0.00000000000E+00 0.  1.
         25    2    1    2    0    0  0.15043387145E+03 -0.62723349430E+02 -0.10846820227E+03  0.23233051449E+03  0.12509016274E+03 0.  0.
          5    1    3    3  502    0  0.38166207429E+01 -0.38725068852E+02  0.12083903555E+02  0.40959622515E+02  0.41800000000E+01 0. -1.
         -5    1    3    3    0  502  0.14661725071E+03 -0.23998280578E+02 -0.12055210582E+03  0.19137089197E+03  0.41800000000E+01 0. -1.
        -11    1    1    2    0    0  0.78845326242E+01  0.15136505896E+02 -0.12182718243E+02  0.20968983982E+02  0.00000000000E+00 0. -1.
         11    1    1    2    0    0 -0.15831840408E+03  0.47586843533E+02  0.13487143081E+02  0.16586478763E+03  0.00000000000E+00 0.  1.
</event>
<event>
 7    1  0.2899775E-009  0.9338151E+02  0.7561462E-02  0.1294863E+00
          2   -1    0    0  501    0  0.00000000000E+00  0.00000000000E+00  0.56336221090E+03  0.56336221090E+03  0.00000000000E+00 0.  1.
         -2   -1    0    0    0  501 -0.00000000000E+00 -0.00000000000E+00 -0.48065138418E+02  0.48065138418E+02  0.00000000000E+00 0. -1.
         25    2    1    2    0    0  0.78822894506E+02 -0.36042202654E+02  0.43383675514E+03  0.45975584104E+03  0.12509601988E+03 0.  0.
          5    1    3    3  502    0  0.52741348846E+02 -0.47913373850E+00  0.48166543243E+02  0.71549757060E+02  0.41800000000E+01 0. -1.
         -5    1    3    3    0  502  0.26081545660E+02 -0.35563068915E+02  0.38567021190E+03  0.38820608398E+03  0.41800000000E+01 0. -1.
        -11    1    1    2    0    0 -0.17978762153E+02  0.19454406046E+02  0.84478745034E+02  0.88534559160E+02  0.00000000000E+00 0.  1.
         11    1    1    2    0    0 -0.60844132353E+02  0.16587796608E+02 -0.30184276930E+01  0.63136949118E+02  0.00000000000E+00 0. -1.
</event>
<event>
 7    1  0.2899775E-009  0.1327738E+03  0.7561462E-02  0.1223397E+00
         -2   -1    0    0    0  501 -0.00000000000E+00  0.00000000000E+00  0.26764128186E+03  0.26764128186E+03  0.00000000000E+00 0. -1.
          2   -1    0    0  501    0  0.00000000000E+00 -0.00000000000E+00 -0.78360556868E+02  0.78360556868E+02  0.00000000000E+00 0.  1.
         25    2    1    2    0    0 -0.59180880668E+02 -0.64853223438E+02  0.14905721626E+03  0.21346775885E+03  0.12506843376E+03 0.  0.
          5    1    3    3  502    0 -0.49128149387E+02 -0.95709684556E+02  0.71369346801E+02  0.12917033267E+03  0.41800000000E+01 0.  1.
         -5    1    3    3    0  502 -0.10052731282E+02  0.30856461119E+02  0.77687869455E+02  0.84297426174E+02  0.41800000000E+01 0.  1.
        -11    1    1    2    0    0  0.43066723383E+02 -0.13529253469E+02  0.23066829641E+02  0.50693806249E+02  0.00000000000E+00 0. -1.
         11    1    1    2    0    0  0.16114157286E+02  0.78382476907E+02  0.17156679099E+02  0.81840273635E+02  0.00000000000E+00 0.  1.
</event>
<event>
 7    1  0.2899775E-009  0.3711604E+03  0.7561462E-02  0.1054250E+00
          2   -1    0    0  501    0  0.00000000000E+00  0.00000000000E+00  0.20036746268E+04  0.20036746268E+04  0.00000000000E+00 0. -1.
         -2   -1    0    0    0  501 -0.00000000000E+00 -0.00000000000E+00 -0.78773675340E+02  0.78773675340E+02  0.00000000000E+00 0.  1.
         25    2    1    2    0    0 -0.24927698187E+03 -0.26067220856E+03  0.13036796677E+04  0.13584246936E+04  0.12509179912E+03 0.  0.
          5    1    3    3  502    0 -0.77016284417E+02 -0.14886199265E+02  0.20687289638E+03  0.22128482697E+03  0.41800000000E+01 0. -1.
         -5    1    3    3    0  502 -0.17226069746E+03 -0.24578600929E+03  0.10968067713E+04  0.11371398666E+04  0.41800000000E+01 0. -1.
        -11    1    1    2    0    0  0.12281417869E+03  0.16146699790E+03  0.26953663289E+03  0.33734983381E+03  0.00000000000E+00 0. -1.
         11    1    1    2    0    0  0.12646280318E+03  0.99205210657E+02  0.35168465087E+03  0.38667377474E+03  0.00000000000E+00 0.  1.
</event>
<event>
 7    1  0.2899775E-009  0.1088160E+03  0.7561462E-02  0.1262778E+00
         -3   -1    0    0    0  501 -0.00000000000E+00  0.00000000000E+00  0.64985398352E+03  0.64985398352E+03  0.00000000000E+00 0.  1.
          3   -1    0    0  501    0  0.00000000000E+00 -0.00000000000E+00 -0.23559761678E+02  0.23559761678E+02  0.00000000000E+00 0. -1.
         25    2    1    2    0    0 -0.52102717145E+02  0.24578265678E+02  0.35640139310E+03  0.38208427229E+03  0.12509058259E+03 0.  0.
          5    1    3    3  502    0  0.96195524833E+01  0.63648085787E+02  0.17182500849E+03  0.18353452143E+03  0.41800000000E+01 0.  1.
         -5    1    3    3    0  502 -0.61722269628E+02 -0.39069820108E+02  0.18457638461E+03  0.19854975086E+03  0.41800000000E+01 0.  1.
        -11    1    1    2    0    0  0.37428709915E+02  0.12995045809E+02  0.23401471782E+03  0.23734503934E+03  0.00000000000E+00 0.  1.
         11    1    1    2    0    0  0.14674007230E+02 -0.37573311487E+02  0.35878110919E+02  0.53984433566E+02  0.00000000000E+00 0. -1.
</event>
<event>
 7    1  0.2899775E-009  0.1126854E+03  0.7561462E-02  0.1255676E+00
         -2   -1    0    0    0  501 -0.00000000000E+00  0.00000000000E+00  0.45510817964E+03  0.45510817964E+03  0.00000000000E+00 0.  1.
          2   -1    0    0  501    0  0.00000000000E+00 -0.00000000000E+00 -0.32402435331E+02  0.32402435331E+02  0.00000000000E+00 0. -1.
         25    2    1    2    0    0 -0.44855250995E+02 -0.32309675868E+02  0.24392846224E+03  0.27965154438E+03  0.12509189777E+03 0.  0.
          5    1    3    3  502    0 -0.82303546659E+02 -0.48560368030E+02  0.16643912249E+03  0.19196728115E+03  0.41800000000E+01 0. -1.
         -5    1    3    3    0  502  0.37448295664E+02  0.16250692162E+02  0.77489339747E+02  0.87684263231E+02  0.41800000000E+01 0. -1.
        -11    1    1    2    0    0  0.22543287673E+02 -0.21051450801E+02  0.12545851956E+03  0.12919444079E+03  0.00000000000E+00 0.  1.
         11    1    1    2    0    0  0.22311963323E+02  0.53361126669E+02  0.53318762506E+02  0.78664629802E+02  0.00000000000E+00 0. -1.
</event>
<event>
 7    1  0.2899775E-009  0.1090217E+03  0.7561462E-02  0.1262392E+00
         -1   -1    0    0    0  501 -0.00000000000E+00  0.00000000000E+00  0.14338171559E+03  0.14338171559E+03  0.00000000000E+00 0.  1.
          1   -1    0    0  501    0  0.00000000000E+00 -0.00000000000E+00 -0.88165857967E+02  0.88165857967E+02  0.00000000000E+00 0. -1.
         25    2    1    2    0    0  0.26420631202E+02 -0.82730966891E+01  0.17853809181E+02  0.12935499302E+03  0.12508981507E+03 0.  0.
          5    1    3    3  502    0 -0.18565567105E+02  0.47498125369E+02 -0.10407714122E+02  0.52216329905E+02  0.41800000000E+01 0. -1.
         -5    1    3    3    0  502  0.44986198306E+02 -0.55771222059E+02  0.28261523303E+02  0.77138663116E+02  0.41800000000E+01 0. -1.
        -11    1    1    2    0    0 -0.15884384337E+02 -0.41388948092E+02  0.18410186964E+02  0.48003059007E+02  0.00000000000E+00 0.  1.
         11    1    1    2    0    0 -0.10536246865E+02  0.49662044782E+02  0.18951861474E+02  0.54189521526E+02  0.00000000000E+00 0. -1.
</event>
<event>
 7    1  0.2899775E-009  0.1185548E+03  0.7561462E-02  0.1245500E+00
         -1   -1    0    0    0  501 -0.00000000000E+00  0.00000000000E+00  0.67233363503E+02  0.67233363503E+02  0.00000000000E+00 0.  1.
          1   -1    0    0  501    0  0.00000000000E+00 -0.00000000000E+00 -0.38101859011E+03  0.38101859011E+03  0.00000000000E+00 0. -1.
         25    2    1    2    0    0  0.96452518089E+02 -0.64363220204E+02 -0.17715985193E+03  0.24592550468E+03  0.12509207950E+03 0.  0.
          5    1    3    3  502    0  0.36021348117E+02 -0.39922821467E+02  0.32730688489E+01  0.54032902696E+02  0.41800000000E+01 0.  1.
         -5    1    3    3    0  502  0.60431169971E+02 -0.24440398737E+02 -0.18043292078E+03  0.19189260198E+03  0.41800000000E+01 0.  1.
        -11    1    1    2    0    0 -0.89785951848E+02  0.51861978532E+02 -0.51027076360E+02  0.11556359500E+03  0.00000000000E+00 0.  1.
         11    1    1    2    0    0 -0.66665662406E+01  0.12501241673E+02 -0.85598298317E+02  0.86762853939E+02  0.00000000000E+00 0. -1.
</event>
<event>
 7    1  0.2899775E-009  0.4751566E+02  0.7561462E-02  0.1459221E+00
         -1   -1    0    0    0  501 -0.00000000000E+00  0.00000000000E+00  0.14008910835E+03  0.14008910835E+03  0.00000000000E+00 0.  1.
          1   -1    0    0  501    0  0.00000000000E+00 -0.00000000000E+00 -0.84682723717E+02  0.84682723717E+02  0.00000000000E+00 0. -1.
         25    2    1    2    0    0  0.35788470659E+01  0.51334812628E+01  0.46062416147E+02  0.13345090410E+03  0.12509291286E+03 0.  0.
          5    1    3    3  502    0  0.20788373811E+02  0.22148261642E+01 -0.40112681073E+02  0.45426440797E+02  0.41800000000E+01 0.  1.
         -5    1    3    3    0  502 -0.17209526745E+02  0.29186550986E+01  0.86175097220E+02  0.88024463300E+02  0.41800000000E+01 0.  1.
        -11    1    1    2    0    0  0.16149285271E+02  0.18775534667E+02 -0.31485406376E+02  0.40058094456E+02  0.00000000000E+00 0. -1.
         11    1    1    2    0    0 -0.19728132337E+02 -0.23909015929E+02  0.40829374862E+02  0.51262833513E+02  0.00000000000E+00 0.  1.
</event>
<event>
 7    1  0.2899775E-009  0.1102496E+03  0.7561462E-02  0.1260108E+00
         -1   -1    0    0    0  501 -0.00000000000E+00  0.00000000000E+00  0.64582129133E+02  0.64582129133E+02  0.00000000000E+00 0.  1.
          1   -1    0    0  501    0  0.00000000000E+00 -0.00000000000E+00 -0.21145446521E+03  0.21145446521E+03  0.00000000000E+00 0. -1.
         25    2    1    2    0    0 -0.30914804396E+02 -0.14037834082E+02 -0.54092095359E+02  0.14044996671E+03  0.12508977757E+03 0.  0.
          5    1    3    3  502    0  0.43463173911E+02 -0.30306764296E+02 -0.26200113376E+02  0.59257622205E+02  0.41800000000E+01 0.  1.
         -5    1    3    3    0  502 -0.74377978307E+02  0.16268930214E+02 -0.27891981983E+02  0.81192344505E+02  0.41800000000E+01 0.  1.
        -11    1    1    2    0    0  0.24969401192E+01  0.47290085745E+02 -0.74285679776E+02  0.88096249293E+02  0.00000000000E+00 0. -1.
         11    1    1    2    0    0  0.28417864277E+02 -0.33252251662E+02 -0.18494560946E+02  0.47490378344E+02  0.00000000000E+00 0.  1.
</event>
<event>
 7    1  0.2899775E-009  0.1052193E+03  0.7561462E-02  0.1269688E+00
          1   -1    0    0  501    0  0.00000000000E+00  0.00000000000E+00  0.98713899214E+03  0.98713899214E+03  0.00000000000E+00 0. -1.
         -1   -1    0    0    0  501 -0.00000000000E+00 -0.00000000000E+00 -0.25852039598E+02  0.25852039598E+02  0.00000000000E+00 0.  1.
         25    2    1    2    0    0  0.75021839232E+01 -0.48022464131E+02  0.85346056247E+03  0.86394779282E+03  0.12509363375E+03 0.  0.
          5    1    3    3  502    0  0.53767754488E+02 -0.37612825158E+02  0.24634717758E+03  0.25497078331E+03  0.41800000000E+01 0. -1.
         -5    1    3    3    0  502 -0.46265570565E+02 -0.10409638973E+02  0.60711338489E+03  0.60897700951E+03  0.41800000000E+01 0. -1.
        -11    1    1    2    0    0  0.36846342357E+02  0.35100225637E+02  0.80902657419E+02  0.95576768946E+02  0.00000000000E+00 0. -1.
         11    1    1    2    0    0 -0.44348526280E+02  0.12922238494E+02  0.26923732650E+02  0.53466469967E+02  0.00000000000E+00 0.  1.
</event>
<event>
 7    1  0.2899775E-009  0.2311097E+03  0.7561462E-02  0.1125861E+00
         -3   -1    0    0    0  501 -0.00000000000E+00  0.00000000000E+00  0.30527666019E+03  0.30527666019E+03  0.00000000000E+00 0.  1.
          3   -1    0    0  501    0  0.00000000000E+00 -0.00000000000E+00 -0.29145180673E+03  0.29145180673E+03  0.00000000000E+00 0. -1.
         25    2    1    2    0    0 -0.17082690016E+03  0.13650568324E+03 -0.16467119922E+03  0.30096427138E+03  0.12508899800E+03 0.  0.
          5    1    3    3  502    0 -0.53207907681E+02 -0.66778094617E+00 -0.91583542705E+02  0.10600257103E+03  0.41800000000E+01 0.  1.
         -5    1    3    3    0  502 -0.11761899248E+03  0.13717346419E+03 -0.73087656514E+02  0.19496170035E+03  0.41800000000E+01 0.  1.
        -11    1    1    2    0    0  0.85756949590E+02 -0.10900508580E+03  0.70568076445E+02  0.15561560509E+03  0.00000000000E+00 0. -1.
         11    1    1    2    0    0  0.85069950570E+02 -0.27500597438E+02  0.10792797623E+03  0.14014859044E+03  0.00000000000E+00 0.  1.
</event>
<event>
 7    1  0.2899775E-009  0.1076923E+03  0.7561462E-02  0.1264904E+00
         -1   -1    0    0    0  501 -0.00000000000E+00  0.00000000000E+00  0.25969531971E+02  0.25969531971E+02  0.00000000000E+00 0.  1.
          1   -1    0    0  501    0  0.00000000000E+00 -0.00000000000E+00 -0.62051432768E+03  0.62051432768E+03  0.00000000000E+00 0. -1.
         25    2    1    2    0    0 -0.10144608061E+02 -0.46954244977E+02 -0.20783870634E+03  0.24728916774E+03  0.12508952967E+03 0.  0.
          5    1    3    3  502    0  0.31684250141E+02 -0.68507554468E+02 -0.17236159716E+03  0.18821043887E+03  0.41800000000E+01 0.  1.
         -5    1    3    3    0  502 -0.41828858202E+02  0.21553309492E+02 -0.35477109184E+02  0.59078728867E+02  0.41800000000E+01 0.  1.
        -11    1    1    2    0    0 -0.29822941196E+02 -0.13498773808E+01 -0.66284396393E+02  0.72696982026E+02  0.00000000000E+00 0.  1.
         11    1    1    2    0    0  0.39967549257E+02  0.48304122357E+02 -0.32042169297E+03  0.32649770988E+03  0.00000000000E+00 0. -1.
</event>
<event>
 7    1  0.2899775E-009  0.8688451E+02  0.7561462E-02  0.1310577E+00
          2   -1    0    0  501    0  0.00000000000E+00  0.00000000000E+00  0.16361370465E+03  0.16361370465E+03  0.00000000000E+00 0. -1.
         -2   -1    0    0    0  501 -0.00000000000E+00 -0.00000000000E+00 -0.95868851068E+02  0.95868851068E+02  0.00000000000E+00 0.  1.
         25    2    1    2    0    0  0.27459392127E+02 -0.40653935891E+02  0.10857504290E+02  0.13476614967E+03  0.12504906628E+03 0.  0.
          5    1    3    3  502    0  0.59289180983E+02 -0.23047009802E+02  0.50111680711E+02  0.81086525305E+02  0.41800000000E+01 0. -1.
         -5    1    3    3    0  502 -0.31829788856E+02 -0.17606926089E+02 -0.39254176421E+02  0.53679624360E+02  0.41800000000E+01 0. -1.
        -11    1    1    2    0    0  0.16594932402E+02  0.15330515869E+02 -0.21573462576E+02  0.31238290378E+02  0.00000000000E+00 0.  1.
         11    1    1    2    0    0 -0.44054324529E+02  0.25323420022E+02  0.78460811867E+02  0.93478115675E+02  0.00000000000E+00 0. -1.
</event>
<event>
 7    1  0.2899775E-009  0.2653816E+03  0.7561462E-02  0.1103952E+00
          3   -1    0    0  501    0  0.00000000000E+00  0.00000000000E+00  0.11225999234E+03  0.11225999234E+03  0.00000000000E+00 0. -1.
         -3   -1    0    0    0  501 -0.00000000000E+00 -0.00000000000E+00 -0.70656521133E+03  0.70656521133E+03  0.00000000000E+00 0.  1.
         25    2    1    2    0    0  0.15536297098E+03 -0.20599454413E+03 -0.34293797794E+03  0.44701793000E+03  0.12508864085E+03 0.  0.
          5    1    3    3  502    0  0.14757004855E+03 -0.15563745011E+03 -0.19284399175E+03  0.28845487110E+03  0.41800000000E+01 0.  1.
         -5    1    3    3    0  502  0.77929224202E+01 -0.50357094017E+02 -0.15009398619E+03  0.15856305891E+03  0.41800000000E+01 0.  1.
        -11    1    1    2    0    0 -0.14378947525E+03  0.14940479235E+03 -0.23134820008E+03  0.31067538501E+03  0.00000000000E+00 0.  1.
         11    1    1    2    0    0 -0.11573495720E+02  0.56589751776E+02 -0.20019040958E+02  0.61131888652E+02  0.00000000000E+00 0. -1.
</event>
<event>
 7    1  0.2899775E-009  0.1323600E+03  0.7561462E-02  0.1223995E+00
          1   -1    0    0  501    0  0.00000000000E+00  0.00000000000E+00  0.76301645489E+03  0.76301645489E+03  0.00000000000E+00 0. -1.
         -1   -1    0    0    0  501 -0.00000000000E+00 -0.00000000000E+00 -0.28439188617E+02  0.28439188617E+02  0.00000000000E+00 0.  1.
         25    2    1    2    0    0 -0.26430394865E+02 -0.85348943296E+02  0.28322204458E+03  0.32225073223E+03  0.12509116673E+03 0.  0.
          5    1    3    3  502    0 -0.68746252200E+02 -0.80513518408E+02  0.16084013092E+03  0.19260190537E+03  0.41800000000E+01 0. -1.
         -5    1    3    3    0  502  0.42315857335E+02 -0.48354248882E+01  0.12238191366E+03  0.12964882686E+03  0.41800000000E+01 0. -1.
        -11    1    1    2    0    0  0.37534278993E+02  0.87090280674E+01  0.68473186078E+02  0.78570010061E+02  0.00000000000E+00 0.  1.
         11    1    1    2    0    0 -0.11103884128E+02  0.76639915228E+02  0.38288203562E+03  0.39063490122E+03  0.00000000000E+00 0. -1.
</event>
<event>
 7    1  0.2899775E-009  0.1204863E+03  0.7561462E-02  0.1242297E+00
          1   -1    0    0  501    0  0.00000000000E+00  0.00000000000E+00  0.12468988312E+04  0.12468988312E+04  0.00000000000E+00 0. -1.
         -1   -1    0    0    0  501 -0.00000000000E+00 -0.00000000000E+00 -0.17803097963E+02  0.17803097963E+02  0.00000000000E+00 0.  1.
         25    2    1    2    0    0 -0.67961940558E+02 -0.54298856147E+01  0.91938968834E+03  0.93036238633E+03  0.12509381219E+03 0.  0.
          5    1    3    3  502    0  0.86834322216E+01  0.31683145804E+02  0.56076259527E+03  0.56173960549E+03  0.41800000000E+01 0. -1.
         -5    1    3    3    0  502 -0.76645372779E+02 -0.37113031419E+02  0.35862709307E+03  0.36862278084E+03  0.41800000000E+01 0. -1.
        -11    1    1    2    0    0  0.94353438199E+02 -0.43418217906E+01  0.20158741502E+03  0.22261830250E+03  0.00000000000E+00 0.  1.
         11    1    1    2    0    0 -0.26391497642E+02  0.97717074053E+01  0.10811862984E+03  0.11172124029E+03  0.00000000000E+00 0. -1.
</event>
<event>
 7    1  0.2899775E-009  0.1098634E+03  0.7561462E-02  0.1260823E+00
         -1   -1    0    0    0  501 -0.00000000000E+00  0.00000000000E+00  0.41723692410E+02  0.41723692410E+02  0.00000000000E+00 0.  1.
          1   -1    0    0  501    0  0.00000000000E+00 -0.00000000000E+00 -0.44648611406E+03  0.44648611406E+03  0.00000000000E+00 0. -1.
         25    2    1    2    0    0  0.31125001559E+02 -0.41589483058E+02 -0.33798484503E+03  0.36411385313E+03  0.12508673690E+03 0.  0.
          5    1    3    3  502    0 -0.22695086491E+02 -0.69108676574E+02 -0.21505888033E+03  0.22706578460E+03  0.41800000000E+01 0.  1.
         -5    1    3    3    0  502  0.53820088050E+02  0.27519193515E+02 -0.12292596470E+03  0.13704806853E+03  0.41800000000E+01 0.  1.
        -11    1    1    2    0    0 -0.36755978019E+02 -0.69523610079E+01  0.44978745059E+01  0.37677156459E+02  0.00000000000E+00 0.  1.
         11    1    1    2    0    0  0.56309764607E+01  0.48541844066E+02 -0.71275451123E+02  0.86418796879E+02  0.00000000000E+00 0. -1.
</event>
<event>
 7    1  0.2899775E-009  0.2142498E+03  0.7561462E-02  0.1138244E+00
          2   -1    0    0  501    0  0.00000000000E+00  0.00000000000E+00  0.66161990939E+02  0.66161990939E+02  0.00000000000E+00 0. -1.
         -2   -1    0    0    0  501 -0.00000000000E+00 -0.00000000000E+00 -0.12298695909E+04  0.12298695909E+04  0.00000000000E+00 0.  1.
         25    2    1    2    0    0  0.20818576329E+02  0.19180111868E+03 -0.10032930200E+04  0.10293041633E+04  0.12509633988E+03 0.  0.
          5    1    3    3  502    0  0.41611069891E+02  0.19864888277E+03 -0.95158750270E+03  0.97300005522E+03  0.41800000000E+01 0. -1.
         -5    1    3    3    0  502 -0.20792493562E+02 -0.68477640920E+01 -0.51705517320E+02  0.56304108047E+02  0.41800000000E+01 0. -1.
        -11    1    1    2    0    0 -0.16759072458E+02 -0.66755006245E+01 -0.45131311115E+02  0.48603128101E+02  0.00000000000E+00 0.  1.
         11    1    1    2    0    0 -0.40595038710E+01 -0.18512561805E+03 -0.11528326887E+03  0.21812429052E+03  0.00000000000E+00 0. -1.
</event>
<event>
 7    1  0.2899775E-009  0.5053684E+03  0.7561462E-02  0.1012387E+00
          1   -1    0    0  501    0  0.00000000000E+00  0.00000000000E+00  0.12511324468E+04  0.12511324468E+04  0.00000000000E+00 0. -1.
         -1   -1    0    0    0  501 -0.00000000000E+00 -0.00000000000E+00 -0.22435877924E+03  0.22435877924E+03  0.00000000000E+00 0.  1.
         25    2    1    2    0    0 -0.48889921219E+03 -0.11936526811E+03  0.69076202110E+03  0.86375361445E+03  0.12509048635E+03 0.  0.
          5    1    3    3  502    0 -0.88027301869E+02 -0.40454426114E+02  0.21991203410E+03  0.24034171841E+03  0.41800000000E+01 0.  1.
         -5    1    3    3    0  502 -0.40087191032E+03 -0.78910841998E+02  0.47084998700E+03  0.62341189604E+03  0.41800000000E+01 0.  1.
        -11    1    1    2    0    0  0.37582242022E+02  0.21775139281E+02  0.52599797638E+01  0.43752131299E+02  0.00000000000E+00 0.  1.
         11    1    1    2    0    0  0.45131697017E+03  0.97590128830E+02  0.33075166674E+03  0.56798548033E+03  0.00000000000E+00 0. -1.
</event>
<event>
 7    1  0.2899775E-009  0.1647885E+03  0.7561462E-02  0.1183394E+00
         -2   -1    0    0    0  501 -0.00000000000E+00  0.00000000000E+00  0.92587538151E+02  0.92587538151E+02  0.00000000000E+00 0.  1.
          2   -1    0    0  501    0  0.00000000000E+00 -0.00000000000E+00 -0.48478802700E+03  0.48478802700E+03  0.00000000000E+00 0. -1.
         25    2    1    2    0    0  0.56025098536E+02 -0.12447561028E+03 -0.40328130009E+02  0.18949188962E+03  0.12509128244E+03 0.  0.
          5    1    3    3  502    0  0.50893043145E+02  0.37017179540E+01 -0.33046788620E+02  0.60937403904E+02  0.41800000000E+01 0. -1.
         -5    1    3    3    0  502  0.51320553906E+01 -0.12817732824E+03 -0.72813413886E+01  0.12855448572E+03  0.41800000000E+01 0. -1.
        -11    1    1    2    0    0 -0.30964095496E+01  0.82286490114E+02 -0.11440265335E+03  0.14095609707E+03  0.00000000000E+00 0.  1.
         11    1    1    2    0    0 -0.52928688986E+02  0.42189120168E+02 -0.23746970549E+03  0.24692757846E+03  0.00000000000E+00 0. -1.
</event>
<event>
 7    1  0.3080219E-009  0.1103397E+03  0.7561462E-02  0.1259942E+00
          2   -1    0    0  501    0  0.00000000000E+00  0.00000000000E+00  0.22510130651E+03  0.22510130651E+03  0.00000000000E+00 0. -1.
         -2   -1    0    0    0  501 -0.00000000000E+00 -0.00000000000E+00 -0.85879680979E+02  0.85879680979E+02  0.00000000000E+00 0.  1.
         25    2    1    2    0    0 -0.64010516810E+02  0.24497467227E+02  0.16998326720E+02  0.14365415224E+03  0.12510036044E+03 0.  0.
          5    1    3    3  502    0  0.48704595148E+01 -0.42731124284E+02  0.19207276089E+02  0.47287019501E+02  0.41800000000E+01 0.  1.
         -5    1    3    3    0  502 -0.68880976325E+02  0.67228591511E+02 -0.22089493691E+01  0.96367132744E+02  0.41800000000E+01 0.  1.
        -11    1    1    2    0    0  0.10570086430E+02 -0.25577699825E+02  0.10873234484E+03  0.11219923471E+03  0.00000000000E+00 0. -1.
         11    1    1    2    0    0  0.53440430380E+02  0.10802325982E+01  0.13490953974E+02  0.55127600536E+02  0.00000000000E+00 0.  1.
</event>
<event>
 7    1  0.2899775E-009  0.2559754E+03  0.7561462E-02  0.1109586E+00
         -2   -1    0    0    0  501 -0.00000000000E+00  0.00000000000E+00  0.24335801808E+03  0.24335801808E+03  0.00000000000E+00 0.  1.
          2   -1    0    0  501    0  0.00000000000E+00 -0.00000000000E+00 -0.34072916007E+03  0.34072916007E+03  0.00000000000E+00 0. -1.
         25    2    1    2    0    0 -0.34748802080E+02  0.24590660516E+03 -0.14795901529E+03  0.31498591375E+03  0.12508684164E+03 0.  0.
          5    1    3    3  502    0 -0.18261899331E+01  0.40424345010E+02  0.22015671485E+02  0.46256078844E+02  0.41800000000E+01 0. -1.
         -5    1    3    3    0  502 -0.32922612147E+02  0.20548226015E+03 -0.16997468678E+03  0.26872983491E+03  0.41800000000E+01 0. -1.
        -11    1    1    2    0    0 -0.29346185927E+02 -0.84944763893E+02  0.53052149265E+01  0.90027533826E+02  0.00000000000E+00 0.  1.
         11    1    1    2    0    0  0.64094988007E+02 -0.16096184126E+03  0.45282658378E+02  0.17907373057E+03  0.00000000000E+00 0. -1.
</event>
<event>
 7    1  0.2899775E-009  0.9645918E+02  0.7561462E-02  0.1287923E+00
          2   -1    0    0  501    0  0.00000000000E+00  0.00000000000E+00  0.44870665977E+03  0.44870665977E+03  0.00000000000E+00 0. -1.
         -2   -1    0    0    0  501 -0.00000000000E+00 -0.00000000000E+00 -0.29411501700E+02  0.29411501700E+02  0.00000000000E+00 0.  1.
         25    2    1    2    0    0  0.23255118635E+02 -0.14453344045E+02  0.28645589763E+03  0.31377342331E+03  0.12508828959E+03 0.  0.
          5    1    3    3  502    0  0.49726504307E+02 -0.45634185521E+02  0.24946390398E+03  0.25846646960E+03  0.41800000000E+01 0.  1.
         -5    1    3    3    0  502 -0.26471385672E+02  0.31180841476E+02  0.36991993650E+02  0.55306953711E+02  0.41800000000E+01 0.  1.
        -11    1    1    2    0    0 -0.51363540380E+02  0.20716423108E+02  0.43338326773E+02  0.70324917591E+02  0.00000000000E+00 0.  1.
         11    1    1    2    0    0  0.28108421745E+02 -0.62630790627E+01  0.89500933673E+02  0.94019820573E+02  0.00000000000E+00 0. -1.
</event>
<event>
 7    1  0.2899775E-009  0.8643738E+02  0.7561462E-02  0.1311716E+00
          1   -1    0    0  501    0  0.00000000000E+00  0.00000000000E+00  0.17657569445E+03  0.17657569445E+03  0.00000000000E+00 0. -1.
         -1   -1    0    0    0  501 -0.00000000000E+00 -0.00000000000E+00 -0.95185136211E+02  0.95185136211E+02  0.00000000000E+00 0.  1.
         25    2    1    2    0    0 -0.11164524801E+02 -0.13197121071E+02 -0.12894264031E+02  0.12693394785E+03  0.12508858642E+03 0.  0.
          5    1    3    3  502    0 -0.23471032021E+02  0.52924140139E+02  0.13360451218E+01  0.58061272550E+02  0.41800000000E+01 0. -1.
         -5    1    3    3    0  502  0.12306507219E+02 -0.66121261210E+02 -0.14230309152E+02  0.68872675296E+02  0.41800000000E+01 0. -1.
        -11    1    1    2    0    0  0.25817522000E+02  0.18605494881E+02  0.11475076199E+03  0.11908167894E+03  0.00000000000E+00 0. -1.
         11    1    1    2    0    0 -0.14652997198E+02 -0.54083738102E+01 -0.20465939717E+02  0.25745203877E+02  0.00000000000E+00 0.  1.
</event>
<event>
 7    1  0.2899775E-009  0.2124754E+03  0.7561462E-02  0.1139621E+00
          2   -1    0    0  501    0  0.00000000000E+00  0.00000000000E+00  0.15667870276E+04  0.15667870276E+04  0.00000000000E+00 0. -1.
         -2   -1    0    0    0  501 -0.00000000000E+00 -0.00000000000E+00 -0.37264096352E+02  0.37264096352E+02  0.00000000000E+00 0.  1.
         25    2    1    2    0    0  0.88569805582E+02 -0.17664683284E+03  0.11041774717E+04  0.11286736005E+04  0.12508994134E+03 0.  0.
          5    1    3    3  502    0  0.92413169853E+02 -0.10131338456E+03  0.45833734193E+03  0.47842991886E+03  0.41800000000E+01 0. -1.
         -5    1    3    3    0  502 -0.38433642710E+01 -0.75333448273E+02  0.64584012981E+03  0.65024368167E+03  0.41800000000E+01 0. -1.
        -11    1    1    2    0    0 -0.13727701619E+02  0.11338538450E+03  0.22260611551E+03  0.25019627870E+03  0.00000000000E+00 0. -1.
         11    1    1    2    0    0 -0.74842103963E+02  0.63261448335E+02  0.20273934397E+03  0.22518124470E+03  0.00000000000E+00 0.  1.
</event>
<event>
 7    1  0.2948285E-009  0.8747552E+02  0.7561462E-02  0.1309083E+00
         -1   -1    0    0    0  501 -0.00000000000E+00  0.00000000000E+00  0.17994312699E+03  0.17994312699E+03  0.00000000000E+00 0.  1.
          1   -1    0    0  501    0  0.00000000000E+00 -0.00000000000E+00 -0.11118979492E+03  0.11118979492E+03  0.00000000000E+00 0. -1.
         25    2    1    2    0    0 -0.32149191949E+02 -0.70748451726E+02 -0.92790970185E+01  0.14755040938E+03  0.12508440231E+03 0.  0.
          5    1    3    3  502    0 -0.92222470572E+01 -0.15788036612E+02 -0.63924372082E+02  0.66619139044E+02  0.41800000000E+01 0. -1.
         -5    1    3    3    0  502 -0.22926944891E+02 -0.54960415114E+02  0.54645275064E+02  0.80931270337E+02  0.41800000000E+01 0. -1.
        -11    1    1    2    0    0  0.17087326849E+01  0.65603396594E+02  0.89210864713E+02  0.11074883203E+03  0.00000000000E+00 0.  1.
         11    1    1    2    0    0  0.30440459264E+02  0.51450551321E+01 -0.11178435620E+02  0.32833680504E+02  0.00000000000E+00 0. -1.
</event>
<event>
 7    1  0.2899775E-009  0.1235708E+03  0.7561462E-02  0.1237320E+00
          3   -1    0    0  501    0  0.00000000000E+00  0.00000000000E+00  0.59374300466E+03  0.59374300466E+03  0.00000000000E+00 0. -1.
         -3   -1    0    0    0  501 -0.00000000000E+00 -0.00000000000E+00 -0.37666338598E+02  0.37666338598E+02  0.00000000000E+00 0.  1.
         25    2    1    2    0    0  0.96116803357E+02  0.39588340946E+01  0.37880752271E+03  0.41036127170E+03  0.12508845587E+03 0.  0.
          5    1    3    3  502    0  0.14562982686E+02 -0.49771450020E+02  0.19913079365E+03  0.20581502151E+03  0.41800000000E+01 0.  1.
         -5    1    3    3    0  502  0.81553820672E+02  0.53730284115E+02  0.17967672906E+03  0.20454625018E+03  0.41800000000E+01 0.  1.
        -11    1    1    2    0    0 -0.44605745465E+02 -0.93362349580E+01  0.10974496246E+02  0.46875125382E+02  0.00000000000E+00 0.  1.
         11    1    1    2    0    0 -0.51511057892E+02  0.53774008634E+01  0.16629464711E+03  0.17417294618E+03  0.00000000000E+00 0. -1.
</event>
<event>
 7    1  0.2899775E-009  0.1100236E+03  0.7561462E-02  0.1260526E+00
          2   -1    0    0  501    0  0.00000000000E+00  0.00000000000E+00  0.11776480450E+03  0.11776480450E+03  0.00000000000E+00 0. -1.
         -2   -1    0    0    0  501 -0.00000000000E+00 -0.00000000000E+00 -0.19101869658E+03  0.19101869658E+03  0.00000000000E+00 0.  1.
         25    2    1    2    0    0 -0.40590052388E+02  0.85782441990E+02 -0.12561193056E+02  0.15751900815E+03  0.12509306396E+03 0.  0.
          5    1    3    3  502    0  0.95853751722E+01  0.62574879065E+02 -0.57906582748E+02  0.85896097890E+02  0.41800000000E+01 0.  1.
         -5    1    3    3    0  502 -0.50175427560E+02  0.23207562925E+02  0.45345389692E+02  0.71622910260E+02  0.41800000000E+01 0.  1.
        -11    1    1    2    0    0  0.42137429031E+02 -0.50168848481E+02  0.15341112063E+02  0.67289122469E+02  0.00000000000E+00 0. -1.
         11    1    1    2    0    0 -0.15473766429E+01 -0.35613593508E+02 -0.76033811086E+02  0.83975370469E+02  0.00000000000E+00 0.  1.
</event>
<event>
 7    1  0.2899775E-009  0.1657575E+03  0.7561462E-02  0.1182346E+00
         -1   -1    0    0    0  501 -0.00000000000E+00  0.00000000000E+00  0.12418603305E+03  0.12418603305E+03  0.00000000000E+00 0.  1.
          1   -1    0    0  501    0  0.00000000000E+00 -0.00000000000E+00 -0.31098083525E+03  0.31098083525E+03  0.00000000000E+00 0. -1.
         25    2    1    2    0    0 -0.16059877155E+03 -0.99039487074E+01 -0.12704756349E+03  0.24016193298E+03  0.12508643827E+03 0.  0.
          5    1    3    3  502    0 -0.16332763606E+03 -0.13472432343E+02 -0.62691311700E+02  0.17551380600E+03  0.41800000000E+01 0. -1.
         -5    1    3    3    0  502  0.27288645124E+01  0.35684836358E+01 -0.64356251790E+02  0.64648126976E+02  0.41800000000E+01 0. -1.
        -11    1    1    2    0    0  0.57445332155E+02  0.98856532039E+01  0.23101035578E+02  0.62700479826E+02  0.00000000000E+00 0.  1.
         11    1    1    2    0    0  0.10315343939E+03  0.18295503480E-01 -0.82848274281E+02  0.13230445550E+03  0.00000000000E+00 0. -1.
</event>
<event>
 7    1  0.3280120E-009  0.7698798E+02  0.7561462E-02  0.1337823E+00
          3   -1    0    0  501    0  0.00000000000E+00  0.00000000000E+00  0.75539716164E+02  0.75539716164E+02  0.00000000000E+00 0. -1.
         -3   -1    0    0    0  501 -0.00000000000E+00 -0.00000000000E+00 -0.21351373020E+03  0.21351373020E+03  0.00000000000E+00 0.  1.
         25    2    1    2    0    0 -0.24273876268E+02 -0.50137219315E+01 -0.14625835754E+03  0.19404442296E+03  0.12508945781E+03 0.  0.
          5    1    3    3  502    0 -0.67550414002E+00  0.33091105773E+02 -0.14523571425E+03  0.14901799449E+03  0.41800000000E+01 0.  1.
         -5    1    3    3    0  502 -0.23598372128E+02 -0.38104827705E+02 -0.10226432897E+01  0.45026428471E+02  0.41800000000E+01 0.  1.
        -11    1    1    2    0    0 -0.33300046674E+01  0.34817919943E+02 -0.24585465630E+02  0.42753030308E+02  0.00000000000E+00 0.  1.
         11    1    1    2    0    0  0.27603880936E+02 -0.29804198011E+02  0.32869809136E+02  0.52255993096E+02  0.00000000000E+00 0. -1.
</event>
<event>
 7    1  0.2899775E-009  0.1089960E+03  0.7561462E-02  0.1262440E+00
         -2   -1    0    0    0  501 -0.00000000000E+00  0.00000000000E+00  0.30685832079E+02  0.30685832079E+02  0.00000000000E+00 0.  1.
          2   -1    0    0  501    0  0.00000000000E+00 -0.00000000000E+00 -0.44476554515E+03  0.44476554515E+03  0.00000000000E+00 0. -1.
         25    2    1    2    0    0  0.37188142778E+02  0.71375974971E+01 -0.19236701992E+03  0.23255941156E+03  0.12507959982E+03 0.  0.
          5    1    3    3  502    0 -0.20156763502E+01 -0.55480428910E+02 -0.97129062864E+02  0.11195386637E+03  0.41800000000E+01 0. -1.
         -5    1    3    3    0  502  0.39203819128E+02  0.62618026408E+02 -0.95237957060E+02  0.12060554519E+03  0.41800000000E+01 0. -1.
        -11    1    1    2    0    0 -0.42519743546E+02 -0.37985798134E+02 -0.83041623445E+02  0.10073113062E+03  0.00000000000E+00 0.  1.
         11    1    1    2    0    0  0.53316007684E+01  0.30848200637E+02 -0.13867106970E+03  0.14216083504E+03  0.00000000000E+00 0. -1.
</event>
<event>
 7    1  0.2899775E-009  0.2666749E+03  0.7561462E-02  0.1103198E+00
          1   -1    0    0  501    0  0.00000000000E+00  0.00000000000E+00  0.91335673109E+02  0.91335673109E+02  0.00000000000E+00 0. -1.
         -1   -1    0    0    0  501 -0.00000000000E+00 -0.00000000000E+00 -0.93306320574E+03  0.93306320574E+03  0.00000000000E+00 0.  1.
         25    2    1    2    0    0 -0.16355016009E+03  0.19714140661E+03 -0.27765918974E+03  0.39793887400E+03  0.12508929902E+03 0.  0.
          5    1    3    3  502    0 -0.53408821662E+02  0.31200120332E+02 -0.77543475963E+01  0.62478412645E+02  0.41800000000E+01 0. -1.
         -5    1    3    3    0  502 -0.11014133843E+03  0.16594128628E+03 -0.26990484214E+03  0.33546046136E+03  0.41800000000E+01 0. -1.
        -11    1    1    2    0    0 -0.67907042500E+01 -0.39407237821E+02 -0.95471371512E+02  0.10350761728E+03  0.00000000000E+00 0.  1.
         11    1    1    2    0    0  0.17034086434E+03 -0.15773416879E+03 -0.46859697138E+03  0.52295238756E+03  0.00000000000E+00 0. -1.
</event>
<event>
 7    1  0.2899775E-009  0.6587606E+02  0.7561462E-02  0.1374706E+00
         -2   -1    0    0    0  501 -0.00000000000E+00  0.00000000000E+00  0.17003767530E+02  0.17003767530E+02  0.00000000000E+00 0. -1.
          2   -1    0    0  501    0  0.00000000000E+00 -0.00000000000E+00 -0.81029135947E+03  0.81029135947E+03  0.00000000000E+00 0.  1.
         25    2    1    2    0    0 -0.29508138160E+02  0.23031093641E+02 -0.59591096642E+03  0.61004847184E+03  0.12509235234E+03 0.  0.
          5    1    3    3  502    0  0.10587756102E+02  0.32979622577E+01  0.58563585756E+00  0.11865601700E+02  0.41800000000E+01 0.  1.
         -5    1    3    3    0  502 -0.40095894262E+02  0.19733131383E+02 -0.59649660227E+03  0.59818287015E+03  0.41800000000E+01 0.  1.
        -11    1    1    2    0    0 -0.20233756540E+02 -0.75497957302E-01 -0.11094366284E+02  0.23075865464E+02  0.00000000000E+00 0. -1.
         11    1    1    2    0    0  0.49741894700E+02 -0.22955595684E+02 -0.18628225924E+03  0.19417078969E+03  0.00000000000E+00 0.  1.
</event>
<event>
 7    1  0.2899775E-009  0.1068860E+03  0.7561462E-02  0.1266448E+00
          2   -1    0    0  501    0  0.00000000000E+00  0.00000000000E+00  0.40700071005E+02  0.40700071005E+02  0.00000000000E+00 0. -1.
         -2   -1    0    0    0  501 -0.00000000000E+00 -0.00000000000E+00 -0.34321958997E+03  0.34321958997E+03  0.00000000000E+00 0.  1.
         25    2    1    2    0    0 -0.29038475236E+02  0.33233210017E+02 -0.20797762904E+03  0.24667750003E+03  0.12508963007E+03 0.  0.
          5    1    3    3  502    0  0.26220164565E+02  0.57676526257E+02 -0.62496465695E+02  0.89091858973E+02  0.41800000000E+01 0.  1.
         -5    1    3    3    0  502 -0.55258639801E+02 -0.24443316241E+02 -0.14548116334E+03  0.15758564106E+03  0.41800000000E+01 0.  1.
        -11    1    1    2    0    0  0.13533129283E+02 -0.58510814961E+02 -0.32052767910E+02  0.68073790744E+02  0.00000000000E+00 0. -1.
         11    1    1    2    0    0  0.15505345953E+02  0.25277604944E+02 -0.62489122017E+02  0.69168370194E+02  0.00000000000E+00 0.  1.
</event>
<event>
 7    1  0.3120298E-009  0.1092449E+03  0.7561462E-02  0.1261975E+00
          2   -1    0    0  501    0  0.00000000000E+00  0.00000000000E+00  0.14785753480E+04  0.14785753480E+04  0.00000000000E+00 0.  1.
         -2   -1    0    0    0  501 -0.00000000000E+00 -0.00000000000E+00 -0.12021994620E+02  0.12021994620E+02  0.00000000000E+00 0. -1.
         25    2    1    2    0    0  0.46445497082E+02 -0.53578828946E+02  0.99185307102E+03  0.10022211127E+04  0.12508704592E+03 0.  0.
          5    1    3    3  502    0 -0.27834085617E+02 -0.29415599912E+02  0.66076715636E+03  0.66202018184E+03  0.41800000000E+01 0.  1.
         -5    1    3    3    0  502  0.74279582700E+02 -0.24163229035E+02  0.33108591466E+03  0.34020093081E+03  0.41800000000E+01 0.  1.
        -11    1    1    2    0    0  0.17746440090E+02  0.21237246751E+02  0.45938349092E+02  0.53631042342E+02  0.00000000000E+00 0. -1.
         11    1    1    2    0    0 -0.64191937172E+02  0.32341582195E+02  0.42876193324E+03  0.43474518759E+03  0.00000000000E+00 0.  1.
</event>
<event>
 7    1  0.2899775E-009  0.9300514E+02  0.7561462E-02  0.1295733E+00
          4   -1    0    0  501    0  0.00000000000E+00  0.00000000000E+00  0.35470880964E+03  0.35470880964E+03  0.00000000000E+00 0. -1.
         -4   -1    0    0    0  501 -0.00000000000E+00 -0.00000000000E+00 -0.38660386684E+02  0.38660386684E+02  0.00000000000E+00 0.  1.
         25    2    1    2    0    0  0.12304733586E+02  0.40711761267E+02  0.15640757516E+03  0.20474348550E+03  0.12509081227E+03 0.  0.
          5    1    3    3  502    0  0.28542842085E+02 -0.27819504198E+02  0.11755885315E+03  0.12420215378E+03  0.41800000000E+01 0.  1.
         -5    1    3    3    0  502 -0.16238108499E+02  0.68531265466E+02  0.38848722001E+02  0.80541331719E+02  0.41800000000E+01 0.  1.
        -11    1    1    2    0    0 -0.35119952749E+02 -0.88930136707E+01  0.15751379253E+02  0.39504464578E+02  0.00000000000E+00 0.  1.
         11    1    1    2    0    0  0.22815219162E+02 -0.31818747597E+02  0.14388946855E+03  0.14912124625E+03  0.00000000000E+00 0. -1.
</event>
<event>
 7    1  0.2899775E-009  0.1226792E+03  0.7561462E-02  0.1238741E+00
         -2   -1    0    0    0  501 -0.00000000000E+00  0.00000000000E+00  0.13298082704E+03  0.13298082704E+03  0.00000000000E+00 0. -1.
          2   -1    0    0  501    0  0.00000000000E+00 -0.00000000000E+00 -0.12940475647E+03  0.12940475647E+03  0.00000000000E+00 0.  1.
         25    2    1    2    0    0  0.56595032723E+02  0.44759414654E+02 -0.10575108459E+02  0.14479464136E+03  0.12508897760E+03 0.  0.
          5    1    3    3  502    0  0.67584673562E+02 -0.22064684030E+02 -0.24905354874E+02  0.75447249673E+02  0.41800000000E+01 0. -1.
         -5    1    3    3    0  502 -0.10989640840E+02  0.66824098685E+02  0.14330246415E+02  0.69347391682E+02  0.41800000000E+01 0. -1.
        -11    1    1    2    0    0  0.19092583027E+02 -0.17331238430E+02  0.25530607657E+02  0.36286505474E+02  0.00000000000E+00 0. -1.
         11    1    1    2    0    0 -0.75687615749E+02 -0.27428176224E+02 -0.11379428624E+02  0.81304436685E+02  0.00000000000E+00 0.  1.
</event>
<event>
 7    1  0.2899775E-009  0.1397509E+03  0.7561462E-02  0.1213665E+00
          1   -1    0    0  501    0  0.00000000000E+00  0.00000000000E+00  0.93180786084E+02  0.93180786084E+02  0.00000000000E+00 0. -1.
         -1   -1    0    0    0  501 -0.00000000000E+00 -0.00000000000E+00 -0.23419338301E+03  0.23419338301E+03  0.00000000000E+00 0.  1.
         25    2    1    2    0    0 -0.82967944205E+02  0.32901097507E+02 -0.27021613991E+02  0.15602745295E+03  0.12509291135E+03 0.  0.
          5    1    3    3  502    0 -0.11032279385E+03  0.23870083057E+01 -0.30852204746E+02  0.11465665087E+03  0.41800000000E+01 0.  1.
         -5    1    3    3    0  502  0.27354849647E+02  0.30514089202E+02  0.38305907546E+01  0.41370802078E+02  0.41800000000E+01 0.  1.
        -11    1    1    2    0    0  0.18464803104E+02  0.31639345750E+02 -0.30554271451E+02  0.47702836992E+02  0.00000000000E+00 0.  1.
         11    1    1    2    0    0  0.64503141101E+02 -0.64540443257E+02 -0.83436711480E+02  0.12364387915E+03  0.00000000000E+00 0. -1.
</event>
<event>
 7    1  0.2899775E-009  0.1003045E+03  0.7561462E-02  0.1279657E+00
          1   -1    0    0  501    0  0.00000000000E+00  0.00000000000E+00  0.64822360312E+03  0.64822360312E+03  0.00000000000E+00 0. -1.
         -1   -1    0    0    0  501 -0.00000000000E+00 -0.00000000000E+00 -0.21567137164E+02  0.21567137164E+02  0.00000000000E+00 0.  1.
         25    2    1    2    0    0 -0.49466191315E+02  0.11863740608E+01  0.37869708950E+03  0.40187941144E+03  0.12508902500E+03 0.  0.
          5    1    3    3  502    0  0.31412862585E+02 -0.23609379587E+02  0.20327341938E+03  0.20707903362E+03  0.41800000000E+01 0. -1.
         -5    1    3    3    0  502 -0.80879053900E+02  0.24795753648E+02  0.17542367013E+03  0.19480037782E+03  0.41800000000E+01 0. -1.
        -11    1    1    2    0    0  0.41927393688E+02 -0.26754939563E+02  0.23105254938E+03  0.23634511568E+03  0.00000000000E+00 0. -1.
         11    1    1    2    0    0  0.75387976262E+01  0.25568565502E+02  0.16906827074E+02  0.31566213159E+02  0.00000000000E+00 0.  1.
</event>
<event>
 7    1  0.2899775E-009  0.1916900E+03  0.7561462E-02  0.1156946E+00
          2   -1    0    0  501    0  0.00000000000E+00  0.00000000000E+00  0.55826397717E+02  0.55826397717E+02  0.00000000000E+00 0. -1.
         -2   -1    0    0    0  501 -0.00000000000E+00 -0.00000000000E+00 -0.89755945610E+03  0.89755945610E+03  0.00000000000E+00 0.  1.
         25    2    1    2    0    0 -0.83891681326E+02 -0.15059660835E+03 -0.23939736906E+03  0.32043069255E+03  0.12509027049E+03 0.  0.
          5    1    3    3  502    0 -0.16557249112E+02  0.63306886273E+01  0.79190410903E+01  0.19859600410E+02  0.41800000000E+01 0. -1.
         -5    1    3    3    0  502 -0.67334432214E+02 -0.15692729697E+03 -0.24731641015E+03  0.30057109214E+03  0.41800000000E+01 0. -1.
        -11    1    1    2    0    0  0.30470774972E+02  0.13543773952E+03 -0.44054720507E+03  0.46190225081E+03  0.00000000000E+00 0. -1.
         11    1    1    2    0    0  0.53420906354E+02  0.15158868829E+02 -0.16178848425E+03  0.17105291046E+03  0.00000000000E+00 0.  1.
</event>
<event>
 7    1  0.2899775E-009  0.7310895E+02  0.7561462E-02  0.1349829E+00
          1   -1    0    0  501    0  0.00000000000E+00  0.00000000000E+00  0.24286893892E+02  0.24286893892E+02  0.00000000000E+00 0. -1.
         -1   -1    0    0    0  501 -0.00000000000E+00 -0.00000000000E+00 -0.50982371912E+03  0.50982371912E+03  0.00000000000E+00 0.  1.
         25    2    1    2    0    0 -0.21242965216E+02  0.28057151163E+01 -0.30350487594E+03  0.32897103932E+03  0.12509036486E+03 0.  0.
          5    1    3    3  502    0 -0.14261201236E+02  0.24649742633E+02 -0.30428908218E+03  0.30564736153E+03  0.41800000000E+01 0. -1.
         -5    1    3    3    0  502 -0.69817639801E+01 -0.21844027517E+02  0.78420623846E+00  0.23323677794E+02  0.41800000000E+01 0. -1.
        -11    1    1    2    0    0 -0.13408521355E+02  0.38172690462E+02 -0.68342407913E+02  0.79420573288E+02  0.00000000000E+00 0. -1.
         11    1    1    2    0    0  0.34651486571E+02 -0.40978405579E+02 -0.11368954137E+03  0.12571900040E+03  0.00000000000E+00 0.  1.
</event>
<event>
 7    1  0.2899775E-009  0.1011529E+03  0.7561462E-02  0.1277890E+00
          1   -1    0    0  501    0  0.00000000000E+00  0.00000000000E+00  0.12804275716E+03  0.12804275716E+03  0.00000000000E+00 0. -1.
         -1   -1    0    0    0  501 -0.00000000000E+00 -0.00000000000E+00 -0.11411949892E+03  0.11411949892E+03  0.00000000000E+00 0.  1.
         25    2    1    2    0    0  0.30792686074E+02 -0.38194172382E+02  0.28564565495E+02  0.13736955622E+03  0.12508987271E+03 0.  0.
          5    1    3    3  502    0  0.30381914450E+02 -0.76571366238E+02  0.46622197407E+02  0.94748807614E+02  0.41800000000E+01 0.  1.
         -5    1    3    3    0  502  0.41077162438E+00  0.38377193857E+02 -0.18057631912E+02  0.42620748608E+02  0.41800000000E+01 0.  1.
        -11    1    1    2    0    0  0.55832313867E+01  0.44022436679E+02 -0.40263217148E+02  0.59918895675E+02  0.00000000000E+00 0.  1.
         11    1    1    2    0    0 -0.36375917461E+02 -0.58282642974E+01  0.25621909890E+02  0.44873804188E+02  0.00000000000E+00 0. -1.
</event>
<event>
 7    1  0.2899775E-009  0.1129906E+03  0.7561462E-02  0.1255130E+00
         -1   -1    0    0    0  501 -0.00000000000E+00  0.00000000000E+00  0.38050377151E+02  0.38050377151E+02  0.00000000000E+00 0.  1.
          1   -1    0    0  501    0  0.00000000000E+00 -0.00000000000E+00 -0.41574728548E+03  0.41574728548E+03  0.00000000000E+00 0. -1.
         25    2    1    2    0    0 -0.63416868378E+02  0.79001582161E+01 -0.20867811290E+03  0.25155250071E+03  0.12509194264E+03 0.  0.
          5    1    3    3  502    0 -0.97298741634E+02 -0.13241770471E+02 -0.16629391533E+03  0.19316709939E+03  0.41800000000E+01 0. -1.
         -5    1    3    3    0  502  0.33881873256E+02  0.21141928687E+02 -0.42384197569E+02  0.58385401322E+02  0.41800000000E+01 0. -1.
        -11    1    1    2    0    0  0.49448177903E+01  0.21523109310E+02 -0.11578914830E+03  0.11787630093E+03  0.00000000000E+00 0. -1.
         11    1    1    2    0    0  0.58472050588E+02 -0.29423267527E+02 -0.53229647133E+02  0.84368860996E+02  0.00000000000E+00 0.  1.
</event>
<event>
 7    1  0.2899775E-009  0.1554268E+03  0.7561462E-02  0.1193959E+00
         -1   -1    0    0    0  501 -0.00000000000E+00  0.00000000000E+00  0.65375357180E+02  0.65375357180E+02  0.00000000000E+00 0.  1.
          1   -1    0    0  501    0  0.00000000000E+00 -0.00000000000E+00 -0.43267731219E+03  0.43267731219E+03  0.00000000000E+00 0. -1.
         25    2    1    2    0    0  0.90589658408E+02  0.91183102249E+02 -0.20358519203E+03  0.27132139179E+03  0.12509005909E+03 0.  0.
          5    1    3    3  502    0 -0.20774216441E+02  0.32020893326E+02 -0.10311892056E+03  0.11003585714E+03  0.41800000000E+01 0. -1.
         -5    1    3    3    0  502  0.11136387485E+03  0.59162208923E+02 -0.10046627147E+03  0.16128553465E+03  0.41800000000E+01 0. -1.
        -11    1    1    2    0    0 -0.65003805467E+02 -0.16110552047E+02 -0.35061712332E+02  0.75593440748E+02  0.00000000000E+00 0.  1.
         11    1    1    2    0    0 -0.25585852941E+02 -0.75072550202E+02 -0.12865505065E+03  0.15113783683E+03  0.00000000000E+00 0. -1.
</event>
<event>
 7    1  0.2899775E-009  0.1424481E+03  0.7561462E-02  0.1210072E+00
          1   -1    0    0  501    0  0.00000000000E+00  0.00000000000E+00  0.10226327883E+04  0.10226327883E+04  0.00000000000E+00 0. -1.
         -1   -1    0    0    0  501 -0.00000000000E+00 -0.00000000000E+00 -0.26317915275E+02  0.26317915275E+02  0.00000000000E+00 0.  1.
         25    2    1    2    0    0  0.56595345212E+02  0.10692242591E+03  0.59441294012E+03  0.61936341796E+03  0.12509541106E+03 0.  0.
          5    1    3    3  502    0  0.81608698907E+02  0.10855794119E+03  0.56191129068E+03  0.57810602602E+03  0.41800000000E+01 0.  1.
         -5    1    3    3    0  502 -0.25013353694E+02 -0.16355152800E+01  0.32501649440E+02  0.41257391939E+02  0.41800000000E+01 0.  1.
        -11    1    1    2    0    0 -0.12469163389E+02 -0.50293744036E+02  0.55923282770E+02  0.76238797739E+02  0.00000000000E+00 0.  1.
         11    1    1    2    0    0 -0.44126181823E+02 -0.56628681877E+02  0.34597865016E+03  0.35334848790E+03  0.00000000000E+00 0. -1.
</event>
<event>
 6    1  0.2899775E-009  0.8260923E+02  0.7561462E-02  0.1321806E+00
         -3   -1    0    0    0  501 -0.00000000000E+00  0.00000000000E+00  0.63872446621E+02  0.63872446621E+02  0.00000000000E+00 0.  1.
          3   -1    0    0  501    0  0.00000000000E+00 -0.00000000000E+00 -0.20659154890E+03  0.20659154890E+03  0.00000000000E+00 0. -1.
          5    1    1    2  502    0  0.32391133396E+02 -0.35544463862E+02  0.99908632523E+01  0.49293855423E+02  0.41800000000E+01 0.  1.
         -5    1    1    2    0  502 -0.17791484849E+02  0.10665793070E+02 -0.11380468773E+03  0.11575523929E+03  0.41800000000E+01 0.  1.
        -11    1    1    2    0    0  0.13876743752E+02 -0.30504187817E+02 -0.24452508637E+02  0.41484872787E+02  0.00000000000E+00 0. -1.
         11    1    1    2    0    0 -0.28476392299E+02  0.55382858608E+02 -0.14452769168E+02  0.63930028020E+02  0.00000000000E+00 0.  1.
</event>
<event>
 7    1  0.2899775E-009  0.1077353E+03  0.7561462E-02  0.1264822E+00
          1   -1    0    0  501    0  0.00000000000E+00  0.00000000000E+00  0.37253715586E+03  0.37253715586E+03  0.00000000000E+00 0. -1.
         -1   -1    0    0    0  501 -0.00000000000E+00 -0.00000000000E+00 -0.68574984151E+02  0.68574984151E+02  0.00000000000E+00 0.  1.
         25    2    1    2    0    0  0.59442062859E+02 -0.42525391556E+02  0.39224887249E+02  0.15009129286E+03  0.12508811553E+03 0.  0.
          5    1    3    3  502    0  0.33070377770E+02  0.25603584464E+02 -0.28179107159E+02  0.50603635280E+02  0.41800000000E+01 0. -1.
         -5    1    3    3    0  502  0.26371685088E+02 -0.68128976020E+02  0.67403994408E+02  0.99487657577E+02  0.41800000000E+01 0. -1.
        -11    1    1    2    0    0 -0.42861131736E+02 -0.10982913109E+02  0.20253593796E+03  0.20731258322E+03  0.00000000000E+00 0. -1.
         11    1    1    2    0    0 -0.16580931123E+02  0.53508304665E+02  0.62201346494E+02  0.83708263933E+02  0.00000000000E+00 0.  1.
</event>
<event>
 7    1  0.4116471E-009  0.8190619E+02  0.7561462E-02  0.1323727E+00
         -1   -1    0    0    0  501 -0.00000000000E+00  0.00000000000E+00  0.34157352577E+02  0.34157352577E+02  0.00000000000E+00 0.  1.
          1   -1    0    0  501    0  0.00000000000E+00 -0.00000000000E+00 -0.37282313604E+03  0.37282313604E+03  0.00000000000E+00 0. -1.
         25    2    1    2    0    0  0.97841769705E+00  0.29955598599E+02 -0.16994082102E+03  0.21313033864E+03  0.12508542446E+03 0.  0.
          5    1    3    3  502    0  0.50533340316E+02  0.10642576045E+02 -0.22779713653E+02  0.56597443957E+02  0.41800000000E+01 0.  1.
         -5    1    3    3    0  502 -0.49554922619E+02  0.19313022555E+02 -0.14716110737E+03  0.15653289468E+03  0.41800000000E+01 0.  1.
        -11    1    1    2    0    0  0.24595797697E+02 -0.17637452179E+02 -0.89335105413E+01  0.31556942094E+02  0.00000000000E+00 0.  1.
         11    1    1    2    0    0 -0.25574215394E+02 -0.12318146420E+02 -0.15979145190E+03  0.16229320788E+03  0.00000000000E+00 0. -1.
</event>
<event>
 7    1  0.2899775E-009  0.1517711E+03  0.7561462E-02  0.1198313E+00
          3   -1    0    0  501    0  0.00000000000E+00  0.00000000000E+00  0.23985301954E+02  0.23985301954E+02  0.00000000000E+00 0. -1.
         -3   -1    0    0    0  501 -0.00000000000E+00 -0.00000000000E+00 -0.11984681689E+04  0.11984681689E+04  0.00000000000E+00 0.  1.
         25    2    1    2    0    0 -0.69595975306E+02 -0.10341850217E+03 -0.73702968415E+03  0.75789057728E+03  0.12508551252E+03 0.  0.
          5    1    3    3  502    0  0.16738392361E+02 -0.26149855143E+02 -0.40484053897E+03  0.40605088733E+03  0.41800000000E+01 0. -1.
         -5    1    3    3    0  502 -0.86334367667E+02 -0.77268647025E+02 -0.33218914518E+03  0.35183968996E+03  0.41800000000E+01 0. -1.
        -11    1    1    2    0    0  0.66552225740E+02  0.15536570373E+02 -0.18311852579E+03  0.19545582176E+03  0.00000000000E+00 0. -1.
         11    1    1    2    0    0  0.30437495658E+01  0.87881931794E+02 -0.25433465696E+03  0.26910707177E+03  0.00000000000E+00 0.  1.
</event>
<event>
 7    1  0.2899775E-009  0.9771529E+02  0.7561462E-02  0.1285175E+00
         -2   -1    0    0    0  501 -0.00000000000E+00  0.00000000000E+00  0.47287260773E+02  0.47287260773E+02  0.00000000000E+00 0.  1.
          2   -1    0    0  501    0  0.00000000000E+00 -0.00000000000E+00 -0.68650022933E+03  0.68650022933E+03  0.00000000000E+00 0. -1.
         25    2    1    2    0    0  0.32752299380E+02  0.57981477863E+02 -0.58709240757E+03  0.60395264033E+03  0.12508689719E+03 0.  0.
          5    1    3    3  502    0  0.17157151608E+02  0.80992300645E+02 -0.55555708068E+03  0.56170745313E+03  0.41800000000E+01 0. -1.
         -5    1    3    3    0  502  0.15595147772E+02 -0.23010822782E+02 -0.31535326888E+02  0.42245187194E+02  0.41800000000E+01 0. -1.
        -11    1    1    2    0    0 -0.42232645113E+02 -0.22810536166E+02  0.17638964918E+02  0.51137559160E+02  0.00000000000E+00 0.  1.
         11    1    1    2    0    0  0.94803457327E+01 -0.35170941697E+02 -0.69759525909E+02  0.78697290615E+02  0.00000000000E+00 0. -1.
</event>
<event>
 7    1  0.2899775E-009  0.9075777E+02  0.7561462E-02  0.1301027E+00
         -1   -1    0    0    0  501 -0.00000000000E+00  0.00000000000E+00  0.44026712504E+02  0.44026712504E+02  0.00000000000E+00 0.  1.
          1   -1    0    0  501    0  0.00000000000E+00 -0.00000000000E+00 -0.31806532636E+03  0.31806532636E+03  0.00000000000E+00 0. -1.
         25    2    1    2    0    0  0.13979460315E+01  0.20729761237E+02 -0.22320814391E+03  0.25671113352E+03  0.12508818213E+03 0.  0.
          5    1    3    3  502    0  0.26360020404E+02  0.54545948436E+02 -0.50702505472E+02  0.79109592513E+02  0.41800000000E+01 0.  1.
         -5    1    3    3    0  502 -0.24962074373E+02 -0.33816187199E+02 -0.17250563844E+03  0.17760154100E+03  0.41800000000E+01 0.  1.
        -11    1    1    2    0    0  0.36674352561E+02 -0.16598045680E+02  0.17959203107E+01  0.40295515705E+02  0.00000000000E+00 0.  1.
         11    1    1    2    0    0 -0.38072298592E+02 -0.41317155578E+01 -0.52626390256E+02  0.65085389642E+02  0.00000000000E+00 0. -1.
</event>
<event>
 7    1  0.2899775E-009  0.6949732E+02  0.7561462E-02  0.1361811E+00
          1   -1    0    0  501    0  0.00000000000E+00  0.00000000000E+00  0.13000569391E+04  0.13000569391E+04  0.00000000000E+00 0. -1.
         -1   -1    0    0    0  501 -0.00000000000E+00 -0.00000000000E+00 -0.10324124424E+02  0.10324124424E+02  0.00000000000E+00 0.  1.
         25    2    1    2    0    0 -0.33817200623E+02 -0.13424902398E+02  0.81522755491E+03  0.82557103626E+03  0.12509092114E+03 0.  0.
          5    1    3    3  502    0 -0.79396302701E+01 -0.10739932460E+02  0.78636438829E+03  0.78648891120E+03  0.41800000000E+01 0.  1.
         -5    1    3    3    0  502 -0.25877570353E+02 -0.26849699382E+01  0.28863166625E+02  0.39082125052E+02  0.41800000000E+01 0.  1.
        -11    1    1    2    0    0  0.32504636977E+02  0.51311336408E+02  0.32073279181E+03  0.32643365086E+03  0.00000000000E+00 0.  1.
         11    1    1    2    0    0  0.13125636462E+01 -0.37886434010E+02  0.15377246798E+03  0.15837637644E+03  0.00000000000E+00 0. -1.
</event>
<event>
 7    1  0.2899775E-009  0.1320157E+03  0.7561462E-02  0.1224495E+00
         -1   -1    0    0    0  501 -0.00000000000E+00  0.00000000000E+00  0.13670928593E+03  0.13670928593E+03  0.00000000000E+00 0.  1.
          1   -1    0    0  501    0  0.00000000000E+00 -0.00000000000E+00 -0.31243607831E+03  0.31243607831E+03  0.00000000000E+00 0. -1.
         25    2    1    2    0    0  0.85848470144E+02  0.42073560127E+02 -0.25714450913E+03  0.30152904508E+03  0.12512522594E+03 0.  0.
          5    1    3    3  502    0  0.36148172147E+02  0.73500836363E+02 -0.78965866855E+02  0.11385141116E+03  0.41800000000E+01 0. -1.
         -5    1    3    3    0  502  0.49700297997E+02 -0.31427276236E+02 -0.17817864227E+03  0.18767763392E+03  0.41800000000E+01 0. -1.
        -11    1    1    2    0    0 -0.10021194197E+03 -0.42112969864E+02  0.70300322798E+02  0.12945296802E+03  0.00000000000E+00 0.  1.
         11    1    1    2    0    0  0.14363471825E+02  0.39409736623E-01  0.11117393950E+02  0.18163351129E+02  0.00000000000E+00 0. -1.
</event>
<event>
 7    1  0.2899775E-009  0.1247172E+03  0.7561462E-02  0.1235512E+00
          4   -1    0    0  501    0  0.00000000000E+00  0.00000000000E+00  0.75519437570E+02  0.75519437570E+02  0.00000000000E+00 0. -1.
         -4   -1    0    0    0  501 -0.00000000000E+00 -0.00000000000E+00 -0.27895074662E+03  0.27895074662E+03  0.00000000000E+00 0.  1.
         25    2    1    2    0    0  0.71383184117E+02  0.31291816724E+02 -0.17327664702E+03  0.22748111659E+03  0.12509246674E+03 0.  0.
          5    1    3    3  502    0  0.17249645962E+02  0.65132508005E+02 -0.13986535737E+03  0.15530481151E+03  0.41800000000E+01 0.  1.
         -5    1    3    3    0  502  0.54133538155E+02 -0.33840691282E+02 -0.33411289650E+02  0.72176305085E+02  0.41800000000E+01 0.  1.
        -11    1    1    2    0    0  0.20384163593E+02  0.16450701800E+01 -0.20592865307E+02  0.29022172262E+02  0.00000000000E+00 0. -1.
         11    1    1    2    0    0 -0.91767347710E+02 -0.32936886904E+02 -0.95617967200E+01  0.97966895333E+02  0.00000000000E+00 0.  1.
</event>
<event>
 6    1  0.2899775E-009  0.1246433E+03  0.7561462E-02  0.1235628E+00
         -3   -1    0    0    0  501 -0.00000000000E+00  0.00000000000E+00  0.50750915993E+03  0.50750915993E+03  0.00000000000E+00 0.  1.
          3   -1    0    0  501    0  0.00000000000E+00 -0.00000000000E+00 -0.31426162130E+02  0.31426162130E+02  0.00000000000E+00 0. -1.
          5    1    1    2  502    0  0.37559958804E+02 -0.76930237668E+01  0.67809187698E+02  0.78009560031E+02  0.41800000000E+01 0.  1.
         -5    1    1    2    0  502 -0.98537252923E+02  0.25319881278E+02  0.18017243798E+03  0.20695474484E+03  0.41800000000E+01 0.  1.
        -11    1    1    2    0    0  0.64873948057E+02 -0.46463747210E+02  0.18962000204E+03  0.20572616294E+03  0.00000000000E+00 0.  1.
         11    1    1    2    0    0 -0.38966539370E+01  0.28836889698E+02  0.38481370075E+02  0.48244854256E+02  0.00000000000E+00 0. -1.
</event>
<event>
 7    1  0.2899775E-009  0.1523254E+03  0.7561462E-02  0.1197644E+00
          1   -1    0    0  501    0  0.00000000000E+00  0.00000000000E+00  0.50823601087E+03  0.50823601087E+03  0.00000000000E+00 0. -1.
         -1   -1    0    0    0  501 -0.00000000000E+00 -0.00000000000E+00 -0.69394622297E+02  0.69394622297E+02  0.00000000000E+00 0.  1.
         25    2    1    2    0    0  0.14513852743E+03  0.46482559799E+00  0.31172358816E+03  0.36590200193E+03  0.12508905386E+03 0.  0.
          5    1    3    3  502    0  0.12919649943E+03  0.15816442529E+02  0.13436305501E+03  0.18711707103E+03  0.41800000000E+01 0.  1.
         -5    1    3    3    0  502  0.15942027998E+02 -0.15351616931E+02  0.17736053315E+03  0.17878493090E+03  0.41800000000E+01 0.  1.
        -11    1    1    2    0    0 -0.48572957333E+02  0.21095925837E+02  0.93087969336E+02  0.10709687347E+03  0.00000000000E+00 0. -1.
         11    1    1    2    0    0 -0.96565570096E+02 -0.21560751435E+02  0.34029831078E+02  0.10463175777E+03  0.00000000000E+00 0.  1.
</event>
<event>
 7    1  0.2899775E-009  0.1037033E+03  0.7561462E-02  0.1272696E+00
          3   -1    0    0  501    0  0.00000000000E+00  0.00000000000E+00  0.92399499984E+02  0.92399499984E+02  0.00000000000E+00 0. -1.
         -3   -1    0    0    0  501 -0.00000000000E+00 -0.00000000000E+00 -0.14814314696E+03  0.14814314696E+03  0.00000000000E+00 0.  1.
         25    2    1    2    0    0  0.11228412828E+01  0.11515025841E+02 -0.17895165579E+00  0.12562315564E+03  0.12508912270E+03 0.  0.
          5    1    3    3  502    0 -0.53618855198E+02  0.81947011464E+01 -0.30959438933E+02  0.62594680435E+02  0.41800000000E+01 0.  1.
         -5    1    3    3    0  502  0.54741696481E+02  0.33203246945E+01  0.30780487278E+02  0.63028475206E+02  0.41800000000E+01 0.  1.
        -11    1    1    2    0    0 -0.31849176129E+02  0.31727527313E+02 -0.38519135943E+02  0.59200758807E+02  0.00000000000E+00 0. -1.
         11    1    1    2    0    0  0.30726334846E+02 -0.43242553154E+02 -0.17045559375E+02  0.55718732494E+02  0.00000000000E+00 0.  1.
</event>
<event>
 7    1  0.2899775E-009  0.1248346E+03  0.7561462E-02  0.1235328E+00
          1   -1    0    0  501    0  0.00000000000E+00  0.00000000000E+00  0.50749670272E+03  0.50749670272E+03  0.00000000000E+00 0. -1.
         -1   -1    0    0    0  501 -0.00000000000E+00 -0.00000000000E+00 -0.99777959907E+02  0.99777959907E+02  0.00000000000E+00 0.  1.
         25    2    1    2    0    0  0.31936374393E+02  0.56282895383E+02  0.46218294006E+03  0.48316487003E+03  0.12509006845E+03 0.  0.
          5    1    3    3  502    0 -0.24763947016E+02  0.74440218261E+02  0.30721630812E+03  0.31710239914E+03  0.41800000000E+01 0.  1.
         -5    1    3    3    0  502  0.56700321409E+02 -0.18157322878E+02  0.15496663195E+03  0.16606247089E+03  0.41800000000E+01 0.  1.
        -11    1    1    2    0    0  0.31658891388E+02 -0.11674392185E+02 -0.18895657875E+02  0.38673281776E+02  0.00000000000E+00 0.  1.
         11    1    1    2    0    0 -0.63595265780E+02 -0.44608503198E+02 -0.35568539377E+02  0.85436510817E+02  0.00000000000E+00 0. -1.
</event>
<event>
 7    1  0.2899775E-009  0.1113350E+03  0.7561462E-02  0.1258117E+00
         -4   -1    0    0    0  501 -0.00000000000E+00  0.00000000000E+00  0.54941909845E+03  0.54941909845E+03  0.00000000000E+00 0.  1.
          4   -1    0    0  501    0  0.00000000000E+00 -0.00000000000E+00 -0.31524005161E+02  0.31524005161E+02  0.00000000000E+00 0. -1.
         25    2    1    2    0    0 -0.40384529870E+02  0.54132594270E+02  0.33989861071E+03  0.36842848375E+03  0.12508890461E+03 0.  0.
          5    1    3    3  502    0 -0.83504429735E+02  0.30296914088E+02  0.25644018276E+03  0.27142205607E+03  0.41800000000E+01 0. -1.
         -5    1    3    3    0  502  0.43119899864E+02  0.23835680182E+02  0.83458427953E+02  0.97006427676E+02  0.41800000000E+01 0. -1.
        -11    1    1    2    0    0  0.22831577226E+02  0.43434799270E+01  0.13703809793E+03  0.13899491725E+03  0.00000000000E+00 0.  1.
         11    1    1    2    0    0  0.17552952644E+02 -0.58476074197E+02  0.40958384651E+02  0.73519702619E+02  0.00000000000E+00 0. -1.
</event>
<event>
 7    1  0.2899775E-009  0.1452436E+03  0.7561462E-02  0.1206443E+00
         -2   -1    0    0    0  501 -0.00000000000E+00  0.00000000000E+00  0.81497531918E+02  0.81497531918E+02  0.00000000000E+00 0.  1.
          2   -1    0    0  501    0  0.00000000000E+00 -0.00000000000E+00 -0.28816873554E+03  0.28816873554E+03  0.00000000000E+00 0. -1.
         25    2    1    2    0    0  0.93207865156E+02  0.72449142223E+02 -0.14806131150E+03  0.22694996654E+03  0.12509017152E+03 0.  0.
          5    1    3    3  502    0  0.81309882528E+02 -0.15730933396E+02 -0.71488622432E+02  0.10948449570E+03  0.41800000000E+01 0.  1.
         -5    1    3    3    0  502  0.11897982628E+02  0.88180075619E+02 -0.76572689071E+02  0.11746547083E+03  0.41800000000E+01 0.  1.
        -11    1    1    2    0    0 -0.65613120867E+02 -0.56676743947E+02 -0.67309537032E+02  0.10976296602E+03  0.00000000000E+00 0.  1.
         11    1    1    2    0    0 -0.27594744289E+02 -0.15772398276E+02  0.86996449081E+01  0.32953334904E+02  0.00000000000E+00 0. -1.
</event>
<event>
 7    1  0.2899775E-009  0.3557891E+03  0.7561462E-02  0.1060264E+00
         -2   -1    0    0    0  501 -0.00000000000E+00  0.00000000000E+00  0.24608537146E+03  0.24608537146E+03  0.00000000000E+00 0.  1.
          2   -1    0    0  501    0  0.00000000000E+00 -0.00000000000E+00 -0.74569777959E+03  0.74569777959E+03  0.00000000000E+00 0. -1.
         25    2    1    2    0    0 -0.33556425522E+03 -0.90299351975E+02  0.84522420642E+01  0.36942756287E+03  0.12509173221E+03 0.  0.
          5    1    3    3  502    0 -0.48126747037E+02  0.21585400489E+02  0.28877411339E+02  0.60278442086E+02  0.41800000000E+01 0. -1.
         -5    1    3    3    0  502 -0.28743750818E+03 -0.11188475246E+03 -0.20425169274E+02  0.30914912079E+03  0.41800000000E+01 0. -1.
        -11    1    1    2    0    0  0.17982780789E+03  0.70707873559E+02 -0.34877182965E+03  0.39872225049E+03  0.00000000000E+00 0.  1.
         11    1    1    2    0    0  0.15573644733E+03  0.19591478417E+02 -0.15929282054E+03  0.22363333769E+03  0.00000000000E+00 0. -1.
</event>
<event>
 7    1  0.2899775E-009  0.9835180E+02  0.7561462E-02  0.1283801E+00
         -2   -1    0    0    0  501 -0.00000000000E+00  0.00000000000E+00  0.54096414494E+02  0.54096414494E+02  0.00000000000E+00 0.  1.
          2   -1    0    0  501    0  0.00000000000E+00 -0.00000000000E+00 -0.27330132786E+03  0.27330132786E+03  0.00000000000E+00 0. -1.
         25    2    1    2    0    0  0.20921182616E+02  0.43879542076E+02 -0.18304869328E+03  0.22697395581E+03  0.12508893800E+03 0.  0.
          5    1    3    3  502    0  0.60120469917E+02  0.55021894565E+02 -0.16088263624E+03  0.18039560645E+03  0.41800000000E+01 0.  1.
         -5    1    3    3    0  502 -0.39199287302E+02 -0.11142352489E+02 -0.22166057037E+02  0.46578349354E+02  0.41800000000E+01 0.  1.
        -11    1    1    2    0    0  0.19200538292E+02 -0.18467969461E+02 -0.44827788898E+02  0.52146497717E+02  0.00000000000E+00 0. -1.
         11    1    1    2    0    0 -0.40121720907E+02 -0.25411572615E+02  0.86715688068E+01  0.48277288831E+02  0.00000000000E+00 0.  1.
</event>
<event>
 6    1  0.2899775E-009  0.9452416E+02  0.7561462E-02  0.1292251E+00
          2   -1    0    0  501    0  0.00000000000E+00  0.00000000000E+00  0.49370667174E+03  0.49370667174E+03  0.00000000000E+00 0. -1.
         -2   -1    0    0    0  501 -0.00000000000E+00 -0.00000000000E+00 -0.29322700100E+02  0.29322700100E+02  0.00000000000E+00 0.  1.
          5    1    1    2  502    0 -0.44042598393E+02 -0.29234148481E+02  0.27742876988E+02  0.59845848095E+02  0.41800000000E+01 0. -1.
         -5    1    1    2    0  502  0.31304682535E+02 -0.20254591573E+02  0.21216714844E+03  0.21545905157E+03  0.41800000000E+01 0. -1.
        -11    1    1    2    0    0  0.44151460083E+02  0.55647050894E+01  0.60613857098E+02  0.75195458922E+02  0.00000000000E+00 0.  1.
         11    1    1    2    0    0 -0.31413544225E+02  0.43924034964E+02  0.16386008912E+03  0.17252901326E+03  0.00000000000E+00 0. -1.
</event>
<event>
 7    1  0.2899775E-009  0.1123236E+03  0.7561462E-02  0.1256326E+00
         -2   -1    0    0    0  501 -0.00000000000E+00  0.00000000000E+00  0.43590711109E+02  0.43590711109E+02  0.00000000000E+00 0.  1.
          2   -1    0    0  501    0  0.00000000000E+00 -0.00000000000E+00 -0.38532593099E+03  0.38532593099E+03  0.00000000000E+00 0. -1.
         25    2    1    2    0    0  0.12898526053E+02  0.43662351946E+02 -0.98434123620E+02  0.16555721553E+03  0.12508853652E+03 0.  0.
          5    1    3    3  502    0 -0.29300692272E+02  0.72596291939E+02 -0.40814761836E+02  0.88385911517E+02  0.41800000000E+01 0.  1.
         -5    1    3    3    0  502  0.42199218325E+02 -0.28933939993E+02 -0.57619361784E+02  0.77171304014E+02  0.41800000000E+01 0.  1.
        -11    1    1    2    0    0  0.35481018025E+02 -0.23145242328E+02 -0.15422702747E+03  0.15993930375E+03  0.00000000000E+00 0.  1.
         11    1    1    2    0    0 -0.48379544078E+02 -0.20517109618E+02 -0.89074068792E+02  0.10342012282E+03  0.00000000000E+00 0. -1.
</event>
<event>
 7    1  0.2899775E-009  0.1045674E+03  0.7561462E-02  0.1270974E+00
         -2   -1    0    0    0  501 -0.00000000000E+00  0.00000000000E+00  0.67638524282E+02  0.67638524282E+02  0.00000000000E+00 0. -1.
          2   -1    0    0  501    0  0.00000000000E+00 -0.00000000000E+00 -0.31251536004E+03  0.31251536004E+03  0.00000000000E+00 0.  1.
         25    2    1    2    0    0  0.44390873757E+02  0.56410880360E+01 -0.18644114084E+02  0.13415994434E+03  0.12509562794E+03 0.  0.
          5    1    3    3  502    0  0.40969041470E+02 -0.55120961277E+02 -0.24124404771E+02  0.72912564326E+02  0.41800000000E+01 0.  1.
         -5    1    3    3    0  502  0.34218322868E+01  0.60762049313E+02  0.54802906877E+01  0.61247380017E+02  0.41800000000E+01 0.  1.
        -11    1    1    2    0    0 -0.23778331666E+02 -0.35691404745E+02 -0.49281694379E+02  0.65329708635E+02  0.00000000000E+00 0. -1.
         11    1    1    2    0    0 -0.20612542090E+02  0.30050316709E+02 -0.17695102730E+03  0.18066423135E+03  0.00000000000E+00 0.  1.
</event>
<event>
 7    1  0.2899775E-009  0.2392386E+03  0.7561462E-02  0.1120301E+00
         -1   -1    0    0    0  501 -0.00000000000E+00  0.00000000000E+00  0.25572971925E+03  0.25572971925E+03  0.00000000000E+00 0.  1.
          1   -1    0    0  501    0  0.00000000000E+00 -0.00000000000E+00 -0.25734540436E+03  0.25734540436E+03  0.00000000000E+00 0. -1.
         25    2    1    2    0    0  0.24713149494E+01 -0.22328201312E+03 -0.63881386113E+02  0.26379790139E+03  0.12509011354E+03 0.  0.
          5    1    3    3  502    0  0.34529331636E+02 -0.20008207503E+03 -0.83321365644E+02  0.21951089692E+03  0.41800000000E+01 0.  1.
         -5    1    3    3    0  502 -0.32058016687E+02 -0.23199938091E+02  0.19439979531E+02  0.44287004476E+02  0.41800000000E+01 0.  1.
        -11    1    1    2    0    0  0.33162449197E+02  0.15579397015E+03  0.67024050226E+02  0.17281126260E+03  0.00000000000E+00 0.  1.
         11    1    1    2    0    0 -0.35633764147E+02  0.67488042970E+02 -0.47583492210E+01  0.76465959606E+02  0.00000000000E+00 0. -1.
</event>
<event>
 7    1  0.2899775E-009  0.2131131E+03  0.7561462E-02  0.1139124E+00
         -2   -1    0    0    0  501 -0.00000000000E+00  0.00000000000E+00  0.76975438329E+02  0.76975438329E+02  0.00000000000E+00 0.  1.
          2   -1    0    0  501    0  0.00000000000E+00 -0.00000000000E+00 -0.97118232308E+03  0.97118232308E+03  0.00000000000E+00 0. -1.
         25    2    1    2    0    0 -0.78883938980E+02 -0.17813131873E+03 -0.76723887190E+03  0.80140897432E+03  0.12508962795E+03 0.  0.
          5    1    3    3  502    0 -0.45518532349E+02 -0.18967093893E+03 -0.62190601125E+03  0.65179104097E+03  0.41800000000E+01 0.  1.
         -5    1    3    3    0  502 -0.33365406631E+02  0.11539620201E+02 -0.14533286065E+03  0.14961793335E+03  0.41800000000E+01 0.  1.
        -11    1    1    2    0    0  0.11183783357E+02  0.43021781010E+02  0.67494168867E+01  0.44961153007E+02  0.00000000000E+00 0.  1.
         11    1    1    2    0    0  0.67700155623E+02  0.13510953772E+03 -0.13371742974E+03  0.20178763409E+03  0.00000000000E+00 0. -1.
</event>
<event>
 7    1  0.3142332E-009  0.1269366E+03  0.7561462E-02  0.1232073E+00
         -2   -1    0    0    0  501 -0.00000000000E+00  0.00000000000E+00  0.68031165651E+02  0.68031165651E+02  0.00000000000E+00 0.  1.
          2   -1    0    0  501    0  0.00000000000E+00 -0.00000000000E+00 -0.30218794358E+03  0.30218794358E+03  0.00000000000E+00 0. -1.
         25    2    1    2    0    0  0.22738415714E+01  0.90470758698E+02 -0.95326232923E+02  0.18145165591E+03  0.12508990453E+03 0.  0.
          5    1    3    3  502    0 -0.35349851912E+02  0.10052396681E+03 -0.40499488036E+02  0.11407173561E+03  0.41800000000E+01 0.  1.
         -5    1    3    3    0  502  0.37623693483E+02 -0.10053208115E+02 -0.54826744886E+02  0.67379920299E+02  0.41800000000E+01 0.  1.
        -11    1    1    2    0    0 -0.30680117460E+02 -0.45688226000E+02 -0.12081495495E+03  0.13275894298E+03  0.00000000000E+00 0. -1.
         11    1    1    2    0    0  0.28406275888E+02 -0.44782532698E+02 -0.18015590050E+02  0.56008510332E+02  0.00000000000E+00 0.  1.
</event>
<event>
 7    1  0.2899775E-009  0.1232989E+03  0.7561462E-02  0.1237752E+00
          2   -1    0    0  501    0  0.00000000000E+00  0.00000000000E+00  0.12907434043E+03  0.12907434043E+03  0.00000000000E+00 0.  1.
         -2   -1    0    0    0  501 -0.00000000000E+00 -0.00000000000E+00 -0.12936870629E+03  0.12936870629E+03  0.00000000000E+00 0. -1.
         25    2    1    2    0    0 -0.26343828006E+01  0.62190396998E+02 -0.32463089957E+02  0.14344288097E+03  0.12508965761E+03 0.  0.
          5    1    3    3  502    0 -0.59096630183E+02  0.10180478870E+02 -0.31804418277E+00  0.60113454410E+02  0.41800000000E+01 0. -1.
         -5    1    3    3    0  502  0.56462247382E+02  0.52009918127E+02 -0.32145045774E+02  0.83329426560E+02  0.41800000000E+01 0. -1.
        -11    1    1    2    0    0 -0.43609055718E+02 -0.25033240829E+02  0.78744152660E+01  0.50896161965E+02  0.00000000000E+00 0.  1.
         11    1    1    2    0    0  0.46243438519E+02 -0.37157156169E+02  0.24294308830E+02  0.64104003792E+02  0.00000000000E+00 0. -1.
</event>
<event>
 7    1  0.2899775E-009  0.2141400E+03  0.7561462E-02  0.1138329E+00
          1   -1    0    0  501    0  0.00000000000E+00  0.00000000000E+00  0.90641892781E+03  0.90641892781E+03  0.00000000000E+00 0. -1.
         -1   -1    0    0    0  501 -0.00000000000E+00 -0.00000000000E+00 -0.61334188684E+02  0.61334188684E+02  0.00000000000E+00 0.  1.
         25    2    1    2    0    0 -0.12064862361E+03  0.15454548030E+03  0.28109559545E+03  0.36483214997E+03  0.12508944003E+03 0.  0.
          5    1    3    3  502    0 -0.36027943136E+02 -0.17619859002E+02  0.41382390625E+02  0.57779293624E+02  0.41800000000E+01 0. -1.
         -5    1    3    3    0  502 -0.84620680471E+02  0.17216533930E+03  0.23971320483E+03  0.30705285634E+03  0.41800000000E+01 0. -1.
        -11    1    1    2    0    0  0.84058579909E+02 -0.10928129180E+03  0.26931696141E+03  0.30255556729E+03  0.00000000000E+00 0.  1.
         11    1    1    2    0    0  0.36590043697E+02 -0.45264188500E+02  0.29467218227E+03  0.30036539924E+03  0.00000000000E+00 0. -1.
</event>
<event>
 7    1  0.2899775E-009  0.1153010E+03  0.7561462E-02  0.1251057E+00
         -2   -1    0    0    0  501 -0.00000000000E+00  0.00000000000E+00  0.64135699559E+02  0.64135699559E+02  0.00000000000E+00 0.  1.
          2   -1    0    0  501    0  0.00000000000E+00 -0.00000000000E+00 -0.22381563893E+03  0.22381563893E+03  0.00000000000E+00 0. -1.
         25    2    1    2    0    0 -0.32073484843E+02 -0.39219323154E+02 -0.88123649672E+02  0.16118577985E+03  0.12509282255E+03 0.  0.
          5    1    3    3  502    0 -0.14350258537E+02 -0.82918954277E+02 -0.38607143371E+02  0.92679376442E+02  0.41800000000E+01 0. -1.
         -5    1    3    3    0  502 -0.17723226306E+02  0.43699631123E+02 -0.49516506301E+02  0.68506403403E+02  0.41800000000E+01 0. -1.
        -11    1    1    2    0    0 -0.90757156478E+01  0.54394764409E+02 -0.59826799222E+02  0.81365870700E+02  0.00000000000E+00 0. -1.
         11    1    1    2    0    0  0.41149200491E+02 -0.15175441255E+02 -0.11729490475E+02  0.45399687941E+02  0.00000000000E+00 0.  1.
</event>
<event>
 7    1  0.2899775E-009  0.1767675E+03  0.7561462E-02  0.1170969E+00
          2   -1    0    0  501    0  0.00000000000E+00  0.00000000000E+00  0.67261717862E+03  0.67261717862E+03  0.00000000000E+00 0. -1.
         -2   -1    0    0    0  501 -0.00000000000E+00 -0.00000000000E+00 -0.58044050680E+02  0.58044050680E+02  0.00000000000E+00 0.  1.
         25    2    1    2    0    0  0.14628813606E+03 -0.68010338217E+02  0.38899507219E+03  0.43930606332E+03  0.12508807387E+03 0.  0.
          5    1    3    3  502    0  0.17646140198E+02 -0.57112718038E+02  0.55526007931E+02  0.81693688755E+02  0.41800000000E+01 0. -1.
         -5    1    3    3    0  502  0.12864199586E+03 -0.10897620179E+02  0.33346906426E+03  0.35761237456E+03  0.41800000000E+01 0. -1.
        -11    1    1    2    0    0 -0.82562214190E+02  0.20824041163E+02  0.18186348306E+03  0.20080957739E+03  0.00000000000E+00 0.  1.
         11    1    1    2    0    0 -0.63725921867E+02  0.47186297054E+02  0.43714572695E+02  0.90545588592E+02  0.00000000000E+00 0. -1.
</event>
<event>
 7    1  0.2899775E-009  0.1257460E+03  0.7561462E-02  0.1233908E+00
         -1   -1    0    0    0  501 -0.00000000000E+00  0.00000000000E+00  0.42651743554E+02  0.42651743554E+02  0.00000000000E+00 0.  1.
          1   -1    0    0  501    0  0.00000000000E+00 -0.00000000000E+00 -0.54744859895E+03  0.54744859895E+03  0.00000000000E+00 0. -1.
         25    2    1    2    0    0 -0.36972707379E+02  0.89249015503E+02 -0.18185855974E+03  0.24094142586E+03  0.12509143490E+03 0.  0.
          5    1    3    3  502    0 -0.33873087570E+02  0.11944733249E+03 -0.12430923243E+03  0.17574216616E+03  0.41800000000E+01 0.  1.
         -5    1    3    3    0  502 -0.30996198091E+01 -0.30198316983E+02 -0.57549327312E+02  0.65199259702E+02  0.41800000000E+01 0.  1.
        -11    1    1    2    0    0  0.83196018000E+01 -0.22094276547E+02 -0.66137873695E+01  0.24517646983E+02  0.00000000000E+00 0.  1.
         11    1    1    2    0    0  0.28653105579E+02 -0.67154738956E+02 -0.31632450829E+03  0.32464126966E+03  0.00000000000E+00 0. -1.
</event>
<event>
 7    1  0.2899775E-009  0.9527391E+02  0.7561462E-02  0.1290560E+00
         -2   -1    0    0    0  501 -0.00000000000E+00  0.00000000000E+00  0.55202249739E+02  0.55202249739E+02  0.00000000000E+00 0.  1.
          2   -1    0    0  501    0  0.00000000000E+00 -0.00000000000E+00 -0.28034686664E+03  0.28034686664E+03  0.00000000000E+00 0. -1.
         25    2    1    2    0    0 -0.47783990157E+02  0.13775570578E+02 -0.17303304392E+03  0.21922805400E+03  0.12508968508E+03 0.  0.
          5    1    3    3  502    0 -0.37683982066E+02  0.48460279512E+02 -0.17218844891E+03  0.18285189508E+03  0.41800000000E+01 0. -1.
         -5    1    3    3    0  502 -0.10100008091E+02 -0.34684708934E+02 -0.84459500739E+00  0.36376158923E+02  0.41800000000E+01 0. -1.
        -11    1    1    2    0    0  0.68636777041E+02 -0.18873688108E+02 -0.60353664753E+02  0.93326245582E+02  0.00000000000E+00 0. -1.
         11    1    1    2    0    0 -0.20852786884E+02  0.50981175301E+01  0.82420917637E+01  0.22994816803E+02  0.00000000000E+00 0.  1.
</event>
<event>
 7    1  0.2899775E-009  0.1456349E+03  0.7561462E-02  0.1205942E+00
         -2   -1    0    0    0  501 -0.00000000000E+00  0.00000000000E+00  0.12094496682E+03  0.12094496682E+03  0.00000000000E+00 0. -1.
          2   -1    0    0  501    0  0.00000000000E+00 -0.00000000000E+00 -0.26763894840E+03  0.26763894840E+03  0.00000000000E+00 0.  1.
         25    2    1    2    0    0 -0.56103423139E+02  0.84492095134E+02  0.33659110196E+02  0.16451987818E+03  0.12508935362E+03 0.  0.
          5    1    3    3  502    0 -0.85375353565E+02  0.96139722867E+02  0.32654561301E+02  0.13272373594E+03  0.41800000000E+01 0.  1.
         -5    1    3    3    0  502  0.29271930426E+02 -0.11647627733E+02  0.10045488955E+01  0.31796142237E+02  0.41800000000E+01 0.  1.
        -11    1    1    2    0    0  0.73835032337E+02 -0.42334447907E+02 -0.13545176356E+03  0.15997186544E+03  0.00000000000E+00 0. -1.
         11    1    1    2    0    0 -0.17731609198E+02 -0.42157647227E+02 -0.44901328220E+02  0.64092171599E+02  0.00000000000E+00 0.  1.
</event>
<event>
 7    1  0.2899775E-009  0.1265641E+03  0.7561462E-02  0.1232645E+00
          2   -1    0    0  501    0  0.00000000000E+00  0.00000000000E+00  0.62600766394E+03  0.62600766394E+03  0.00000000000E+00 0.  1.
         -2   -1    0    0    0  501 -0.00000000000E+00 -0.00000000000E+00 -0.28526848967E+02  0.28526848967E+02  0.00000000000E+00 0. -1.
         25    2    1    2    0    0 -0.56035807492E+02 -0.54850722677E+02  0.32022265597E+03  0.35261668728E+03  0.12508942903E+03 0.  0.
          5    1    3    3  502    0 -0.73619518960E+02  0.63824034931E+01  0.23335015653E+03  0.24480673316E+03  0.41800000000E+01 0.  1.
         -5    1    3    3    0  502  0.17583711468E+02 -0.61233126170E+02  0.86872499434E+02  0.10780995412E+03  0.41800000000E+01 0.  1.
        -11    1    1    2    0    0  0.78518587501E+02  0.38364295994E+02  0.23976911049E+03  0.25519838192E+03  0.00000000000E+00 0.  1.
         11    1    1    2    0    0 -0.22482780009E+02  0.16486426682E+02  0.37489048520E+02  0.46719443710E+02  0.00000000000E+00 0. -1.
</event>
<event>
 7    1  0.2899775E-009  0.7725064E+02  0.7561462E-02  0.1337040E+00
          2   -1    0    0  501    0  0.00000000000E+00  0.00000000000E+00  0.11543433749E+03  0.11543433749E+03  0.00000000000E+00 0. -1.
         -2   -1    0    0    0  501 -0.00000000000E+00 -0.00000000000E+00 -0.12788385433E+03  0.12788385433E+03  0.00000000000E+00 0.  1.
         25    2    1    2    0    0 -0.30067681909E+02  0.47924452291E+02 -0.10304086829E+02  0.13767342683E+03  0.12508788762E+03 0.  0.
          5    1    3    3  502    0  0.11365143660E+02  0.43809586162E+02  0.47870870116E+02  0.66011657574E+02  0.41800000000E+01 0. -1.
         -5    1    3    3    0  502 -0.41432825570E+02  0.41148661291E+01 -0.58174956945E+02  0.71661769260E+02  0.41800000000E+01 0. -1.
        -11    1    1    2    0    0  0.27529072017E+02 -0.10145903705E+02 -0.41636122736E+02  0.50934819962E+02  0.00000000000E+00 0.  1.
         11    1    1    2    0    0  0.25386098926E+01 -0.37778548586E+02  0.39490692724E+02  0.54709945030E+02  0.00000000000E+00 0. -1.
</event>
<event>
 7    1  0.2899775E-009  0.1433237E+03  0.7561462E-02  0.1208925E+00
         -1   -1    0    0    0  501 -0.00000000000E+00  0.00000000000E+00  0.19815999590E+03  0.19815999590E+03  0.00000000000E+00 0.  1.
          1   -1    0    0  501    0  0.00000000000E+00 -0.00000000000E+00 -0.11343119968E+03  0.11343119968E+03  0.00000000000E+00 0. -1.
         25    2    1    2    0    0  0.73236878063E+02  0.69902490376E+02  0.69474916719E+02  0.17528397915E+03  0.12509081032E+03 0.  0.
          5    1    3    3  502    0  0.10745897102E+03  0.38795409891E+02  0.53005314728E+02  0.12601408680E+03  0.41800000000E+01 0.  1.
         -5    1    3    3    0  502 -0.34222092962E+02  0.31107080485E+02  0.16469601992E+02  0.49269892356E+02  0.41800000000E+01 0.  1.
        -11    1    1    2    0    0 -0.44366845288E+02  0.59152007976E+01  0.29954272355E+02  0.53857822028E+02  0.00000000000E+00 0.  1.
         11    1    1    2    0    0 -0.28870032775E+02 -0.75817691173E+02 -0.14700392856E+02  0.82449394403E+02  0.00000000000E+00 0. -1.
</event>
<event>
 6    1  0.3046340E-009  0.8919734E+02  0.7561462E-02  0.1304807E+00
          3   -1    0    0  501    0  0.00000000000E+00  0.00000000000E+00  0.10424733310E+04  0.10424733310E+04  0.00000000000E+00 0. -1.
         -3   -1    0    0    0  501 -0.00000000000E+00 -0.00000000000E+00 -0.16970047069E+02  0.16970047069E+02  0.00000000000E+00 0.  1.
          5    1    1    2  502    0 -0.86586671367E+01 -0.67687947701E+02  0.17610618404E+03  0.18891133168E+03  0.41800000000E+01 0. -1.
         -5    1    1    2    0  502  0.26324382547E+02  0.45788970012E+01  0.55892611459E+03  0.55958003305E+03  0.41800000000E+01 0. -1.
        -11    1    1    2    0    0 -0.26459127068E+02  0.86780018606E+01  0.18459762420E+02  0.33408920218E+02  0.00000000000E+00 0.  1.
         11    1    1    2    0    0  0.87934116576E+01  0.54431048839E+02  0.27201122285E+03  0.27754309309E+03  0.00000000000E+00 0. -1.
</event>
<event>
 7    1  0.2899775E-009  0.7196746E+02  0.7561462E-02  0.1353528E+00
          1   -1    0    0  501    0  0.00000000000E+00  0.00000000000E+00  0.10621729757E+03  0.10621729757E+03  0.00000000000E+00 0. -1.
         -1   -1    0    0    0  501 -0.00000000000E+00 -0.00000000000E+00 -0.12340886650E+03  0.12340886650E+03  0.00000000000E+00 0.  1.
         25    2    1    2    0    0  0.12121967349E+02 -0.29347292150E+02  0.12051366013E+02  0.12961726868E+03  0.12508874957E+03 0.  0.
          5    1    3    3  502    0 -0.75601987035E+01 -0.29415503523E+02 -0.53162963503E+02  0.61369386019E+02  0.41800000000E+01 0.  1.
         -5    1    3    3    0  502  0.19682166053E+02  0.68211373471E-01  0.65214329516E+02  0.68247882660E+02  0.41800000000E+01 0.  1.
        -11    1    1    2    0    0 -0.50128741184E+02  0.13030600530E+02 -0.49243088838E+01  0.52028223695E+02  0.00000000000E+00 0. -1.
         11    1    1    2    0    0  0.38006773835E+02  0.16316691620E+02 -0.24318626059E+02  0.47980671693E+02  0.00000000000E+00 0.  1.
</event>
<event>
 7    1  0.2899775E-009  0.1025610E+03  0.7561462E-02  0.1275001E+00
         -2   -1    0    0    0  501 -0.00000000000E+00  0.00000000000E+00  0.26295689828E+02  0.26295689828E+02  0.00000000000E+00 0.  1.
          2   -1    0    0  501    0  0.00000000000E+00 -0.00000000000E+00 -0.54806679078E+03  0.54806679078E+03  0.00000000000E+00 0. -1.
         25    2    1    2    0    0  0.23901974431E+01  0.47771759383E+02 -0.33178522791E+03  0.35779312078E+03  0.12508647321E+03 0.  0.
          5    1    3    3  502    0  0.35965363944E+02 -0.29416368662E+02 -0.84240444813E+02  0.96295145731E+02  0.41800000000E+01 0.  1.
         -5    1    3    3    0  502 -0.33575166501E+02  0.77188128045E+02 -0.24754478310E+03  0.26149797505E+03  0.41800000000E+01 0.  1.
        -11    1    1    2    0    0 -0.99374473067E+00  0.13183992438E+02  0.35224965930E+01  0.13682586285E+02  0.00000000000E+00 0.  1.
         11    1    1    2    0    0 -0.13964527124E+01 -0.60955751821E+02 -0.19350836964E+03  0.20288677355E+03  0.00000000000E+00 0. -1.
</event>
<event>
 7    1  0.2899775E-009  0.7804196E+02  0.7561462E-02  0.1334702E+00
         -2   -1    0    0    0  501 -0.00000000000E+00  0.00000000000E+00  0.82915323470E+02  0.82915323470E+02  0.00000000000E+00 0.  1.
          2   -1    0    0  501    0  0.00000000000E+00 -0.00000000000E+00 -0.18444403906E+03  0.18444403906E+03  0.00000000000E+00 0. -1.
         25    2    1    2    0    0  0.30586365541E+02 -0.37588963529E+02 -0.94783319934E+02  0.16425494656E+03  0.12508938322E+03 0.  0.
          5    1    3    3  502    0  0.37856576191E+02  0.27044357835E+01  0.19437531077E+02  0.42845353870E+02  0.41800000000E+01 0. -1.
         -5    1    3    3    0  502 -0.72702106509E+01 -0.40293399312E+02 -0.11422085101E+03  0.12140959269E+03  0.41800000000E+01 0. -1.
        -11    1    1    2    0    0  0.15951486599E+02  0.22968137211E+02  0.30760869563E+02  0.41571821562E+02  0.00000000000E+00 0.  1.
         11    1    1    2    0    0 -0.46537852139E+02  0.14620826318E+02 -0.37506265215E+02  0.61532594406E+02  0.00000000000E+00 0. -1.
</event>
<event>
 7    1  0.2899775E-009  0.1166853E+03  0.7561462E-02  0.1248668E+00
          2   -1    0    0  501    0  0.00000000000E+00  0.00000000000E+00  0.64141684860E+03  0.64141684860E+03  0.00000000000E+00 0.  1.
         -2   -1    0    0    0  501 -0.00000000000E+00 -0.00000000000E+00 -0.28624708553E+02  0.28624708553E+02  0.00000000000E+00 0. -1.
         25    2    1    2    0    0 -0.88598136624E+01 -0.79448381558E+02  0.33266972203E+03  0.36428930877E+03  0.12508802858E+03 0.  0.
          5    1    3    3  502    0 -0.43619727554E+02 -0.47786069707E+02  0.62597025330E+02  0.90122411586E+02  0.41800000000E+01 0. -1.
         -5    1    3    3    0  502  0.34759913891E+02 -0.31662311851E+02  0.27007269670E+03  0.27416689718E+03  0.41800000000E+01 0. -1.
        -11    1    1    2    0    0  0.35280274598E+02 -0.23627907212E+01  0.63278026612E+02  0.72487165813E+02  0.00000000000E+00 0. -1.
         11    1    1    2    0    0 -0.26420460936E+02  0.81811172279E+02  0.21684439141E+03  0.23326508258E+03  0.00000000000E+00 0.  1.
</event>
<event>
 7    1  0.2899775E-009  0.1180325E+03  0.7561462E-02  0.1246379E+00
         -1   -1    0    0    0  501 -0.00000000000E+00  0.00000000000E+00  0.75500080966E+02  0.75500080966E+02  0.00000000000E+00 0.  1.
          1   -1    0    0  501    0  0.00000000000E+00 -0.00000000000E+00 -0.29962927062E+03  0.29962927062E+03  0.00000000000E+00 0. -1.
         25    2    1    2    0    0  0.88989873555E+02  0.30767731877E+02 -0.17289543504E+03  0.23325049596E+03  0.12508841468E+03 0.  0.
          5    1    3    3  502    0  0.78656225140E+02 -0.19827326020E+02 -0.16064754386E+03  0.18001397268E+03  0.41800000000E+01 0.  1.
         -5    1    3    3    0  502  0.10333648415E+02  0.50595057897E+02 -0.12247891181E+02  0.53236523285E+02  0.41800000000E+01 0.  1.
        -11    1    1    2    0    0 -0.57610641164E+02  0.20229840840E+01  0.16846244876E+02  0.60057259398E+02  0.00000000000E+00 0.  1.
         11    1    1    2    0    0 -0.31379232391E+02 -0.32790715961E+02 -0.68079999488E+02  0.81821596226E+02  0.00000000000E+00 0. -1.
</event>
<event>
 7    1  0.2899775E-009  0.1144865E+03  0.7561462E-02  0.1252480E+00
         -1   -1    0    0    0  501 -0.00000000000E+00  0.00000000000E+00  0.21469958776E+03  0.21469958776E+03  0.00000000000E+00 0. -1.
          1   -1    0    0  501    0  0.00000000000E+00 -0.00000000000E+00 -0.70750649581E+02  0.70750649581E+02  0.00000000000E+00 0.  1.
         25    2    1    2    0    0  0.54361105588E+02 -0.71038530420E+01  0.50525529004E+02  0.14561773191E+03  0.12508437247E+03 0.  0.
          5    1    3    3  502    0  0.13215547965E+02  0.51434261325E+02  0.51278716322E+02  0.73939928954E+02  0.41800000000E+01 0. -1.
         -5    1    3    3    0  502  0.41145557624E+02 -0.58538114367E+02 -0.75318731829E+00  0.71677802959E+02  0.41800000000E+01 0. -1.
        -11    1    1    2    0    0 -0.64068061853E+02 -0.26291253887E+02  0.61099246629E+02  0.92352934546E+02  0.00000000000E+00 0.  1.
         11    1    1    2    0    0  0.97069562649E+01  0.33395106929E+02  0.32324162541E+02  0.47479570878E+02  0.00000000000E+00 0. -1.
</event>
<event>
 7    1  0.2899775E-009  0.3211198E+03  0.7561462E-02  0.1075135E+00
          1   -1    0    0  501    0  0.00000000000E+00  0.00000000000E+00  0.66270991304E+03  0.66270991304E+03  0.00000000000E+00 0. -1.
         -1   -1    0    0    0  501 -0.00000000000E+00 -0.00000000000E+00 -0.22344505871E+03  0.22344505871E+03  0.00000000000E+00 0.  1.
         25    2    1    2    0    0 -0.27183734697E+03  0.15610109016E+03  0.44740790783E+03  0.56043094624E+03  0.12508363584E+03 0.  0.
          5    1    3    3  502    0 -0.11180772271E+03  0.39648828659E+02  0.26864735644E+03  0.29370371294E+03  0.41800000000E+01 0. -1.
         -5    1    3    3    0  502 -0.16002962426E+03  0.11645226150E+03  0.17876055139E+03  0.26672723330E+03  0.41800000000E+01 0. -1.
        -11    1    1    2    0    0  0.11457679043E+03 -0.11651029918E+03 -0.13583756794E+01  0.16341461349E+03  0.00000000000E+00 0.  1.
         11    1    1    2    0    0  0.15726055654E+03 -0.39590790978E+02 -0.67846778273E+01  0.16230941201E+03  0.00000000000E+00 0. -1.
</event>
<event>
 7    1  0.2899775E-009  0.1144450E+03  0.7561462E-02  0.1252553E+00
          2   -1    0    0  501    0  0.00000000000E+00  0.00000000000E+00  0.71057682995E+03  0.71057682995E+03  0.00000000000E+00 0. -1.
         -2   -1    0    0    0  501 -0.00000000000E+00 -0.00000000000E+00 -0.20162371270E+02  0.20162371270E+02  0.00000000000E+00 0.  1.
         25    2    1    2    0    0 -0.37948896268E+02 -0.28437274503E+02  0.44252058037E+03  0.46229848523E+03  0.12508648242E+03 0.  0.
          5    1    3    3  502    0  0.39642493395E+02  0.16592470892E+02  0.12111269590E+03  0.12857913859E+03  0.41800000000E+01 0. -1.
         -5    1    3    3    0  502 -0.77591389662E+02 -0.45029745395E+02  0.32140788447E+03  0.33371934664E+03  0.41800000000E+01 0. -1.
        -11    1    1    2    0    0 -0.26300408301E+02  0.14955553513E+02  0.38313632562E+02  0.48819202142E+02  0.00000000000E+00 0.  1.
         11    1    1    2    0    0  0.64249304568E+02  0.13481720990E+02  0.20958024575E+03  0.21962151385E+03  0.00000000000E+00 0. -1.
</event>
<event>
 7    1  0.2899775E-009  0.1010218E+03  0.7561462E-02  0.1278162E+00
          1   -1    0    0  501    0  0.00000000000E+00  0.00000000000E+00  0.18835730841E+03  0.18835730841E+03  0.00000000000E+00 0. -1.
         -1   -1    0    0    0  501 -0.00000000000E+00 -0.00000000000E+00 -0.87622666429E+02  0.87622666429E+02  0.00000000000E+00 0.  1.
         25    2    1    2    0    0 -0.64582087662E+02 -0.50533940986E+01  0.30276205678E+02  0.14408585225E+03  0.12509077244E+03 0.  0.
          5    1    3    3  502    0 -0.86265733855E+01 -0.28248369977E+02 -0.40841313040E+02  0.50575423137E+02  0.41800000000E+01 0.  1.
         -5    1    3    3    0  502 -0.55955514276E+02  0.23194975878E+02  0.71117518718E+02  0.93510429111E+02  0.41800000000E+01 0.  1.
        -11    1    1    2    0    0 -0.44996826043E+01  0.35656817754E+02  0.22941688002E+02  0.42637739671E+02  0.00000000000E+00 0. -1.
         11    1    1    2    0    0  0.69081770266E+02 -0.30603423656E+02  0.47516748299E+02  0.89256382917E+02  0.00000000000E+00 0.  1.
</event>
<event>
 7    1  0.2899775E-009  0.9634227E+02  0.7561462E-02  0.1288181E+00
         -3   -1    0    0    0  501 -0.00000000000E+00  0.00000000000E+00  0.17174060093E+03  0.17174060093E+03  0.00000000000E+00 0.  1.
          3   -1    0    0  501    0  0.00000000000E+00 -0.00000000000E+00 -0.75199135266E+02  0.75199135266E+02  0.00000000000E+00 0. -1.
         25    2    1    2    0    0 -0.10462774176E+02  0.52439477948E+02  0.63494376536E+02  0.15012838521E+03  0.12509047807E+03 0.  0.
          5    1    3    3  502    0  0.56919828143E+02  0.20087777236E+02  0.21002520031E+02  0.64046575848E+02  0.41800000000E+01 0.  1.
         -5    1    3    3    0  502 -0.67382602320E+02  0.32351700711E+02  0.42491856504E+02  0.86081809364E+02  0.41800000000E+01 0.  1.
        -11    1    1    2    0    0 -0.34723050679E+00 -0.42892559058E+02  0.55488854207E+02  0.70134906664E+02  0.00000000000E+00 0.  1.
         11    1    1    2    0    0  0.10810004683E+02 -0.95469188900E+01 -0.22441765081E+02  0.26676444319E+02  0.00000000000E+00 0. -1.
</event>
<event>
 7    1  0.2899775E-009  0.8714529E+02  0.7561462E-02  0.1309916E+00
         -3   -1    0    0    0  501 -0.00000000000E+00  0.00000000000E+00  0.15366124076E+03  0.15366124076E+03  0.00000000000E+00 0.  1.
          3   -1    0    0  501    0  0.00000000000E+00 -0.00000000000E+00 -0.11117169165E+03  0.11117169165E+03  0.00000000000E+00 0. -1.
         25    2    1    2    0    0 -0.37044526377E+02 -0.57012086433E+02  0.42985444022E+02  0.14872477275E+03  0.12509450307E+03 0.  0.
          5    1    3    3  502    0 -0.16755118358E+02 -0.33726209538E+02  0.86942290023E+02  0.94839998922E+02  0.41800000000E+01 0.  1.
         -5    1    3    3    0  502 -0.20289408018E+02 -0.23285876894E+02 -0.43956846001E+02  0.53884773831E+02  0.41800000000E+01 0.  1.
        -11    1    1    2    0    0  0.35044822339E+02  0.77286597482E+02 -0.20770736722E+02  0.87365789799E+02  0.00000000000E+00 0. -1.
         11    1    1    2    0    0  0.19997040378E+01 -0.20274511049E+02  0.20274841812E+02  0.28742369858E+02  0.00000000000E+00 0.  1.
</event>
<event>
 7    1  0.2899775E-009  0.1370462E+03  0.7561462E-02  0.1217360E+00
         -1   -1    0    0    0  501 -0.00000000000E+00  0.00000000000E+00  0.25541528891E+03  0.25541528891E+03  0.00000000000E+00 0.  1.
          1   -1    0    0  501    0  0.00000000000E+00 -0.00000000000E+00 -0.79218011393E+02  0.79218011393E+02  0.00000000000E+00 0. -1.
         25    2    1    2    0    0  0.73288821196E+01  0.88899544734E+02  0.76386628575E+02  0.17157707379E+03  0.12508770387E+03 0.  0.
          5    1    3    3  502    0  0.47168491576E+02 -0.78630817862E+01  0.15525403133E+02  0.50450026712E+02  0.41800000000E+01 0. -1.
         -5    1    3    3    0  502 -0.39839609457E+02  0.96762626520E+02  0.60861225442E+02  0.12112704708E+03  0.41800000000E+01 0. -1.
        -11    1    1    2    0    0 -0.31943097521E+02 -0.30879956832E+01  0.43973995096E+01  0.32391886624E+02  0.00000000000E+00 0. -1.
         11    1    1    2    0    0  0.24614215402E+02 -0.85811549051E+02  0.95413249434E+02  0.13066433989E+03  0.00000000000E+00 0.  1.
</event>
<event>
 6    1  0.2899775E-009  0.1161019E+03  0.7561462E-02  0.1249670E+00
          4   -1    0    0  501    0  0.00000000000E+00  0.00000000000E+00  0.52644399756E+03  0.52644399756E+03  0.00000000000E+00 0. -1.
         -4   -1    0    0    0  501 -0.00000000000E+00 -0.00000000000E+00 -0.33746244896E+02  0.33746244896E+02  0.00000000000E+00 0.  1.
          5    1    1    2  502    0 -0.10425999510E+02 -0.48195540465E+02  0.42224926447E+02  0.65053273553E+02  0.41800000000E+01 0. -1.
         -5    1    1    2    0  502  0.71667216758E+02  0.74086391270E+01  0.26575423445E+03  0.27537948983E+03  0.41800000000E+01 0. -1.
        -11    1    1    2    0    0 -0.79059440686E+02  0.46639799701E+02  0.11277413468E+03  0.14540863636E+03  0.00000000000E+00 0.  1.
         11    1    1    2    0    0  0.17818223438E+02 -0.58528983630E+01  0.71944457094E+02  0.74348842710E+02  0.00000000000E+00 0. -1.
</event>
<event>
 7    1  0.2899775E-009  0.9646645E+02  0.7561462E-02  0.1287907E+00
          1   -1    0    0  501    0  0.00000000000E+00  0.00000000000E+00  0.21096444475E+02  0.21096444475E+02  0.00000000000E+00 0. -1.
         -1   -1    0    0    0  501 -0.00000000000E+00 -0.00000000000E+00 -0.12763008919E+04  0.12763008919E+04  0.00000000000E+00 0.  1.
         25    2    1    2    0    0  0.14282841972E+02  0.43646590734E+02 -0.11112324208E+04  0.11191942795E+04  0.12509723371E+03 0.  0.
          5    1    3    3  502    0 -0.45427463129E+02  0.35044139754E+01 -0.71487910541E+03  0.71634177811E+03  0.41800000000E+01 0.  1.
         -5    1    3    3    0  502  0.59710305101E+02  0.40142176758E+02 -0.39635331537E+03  0.40285250141E+03  0.41800000000E+01 0.  1.
        -11    1    1    2    0    0 -0.37571162399E+02 -0.30299383345E+02 -0.21525131371E+02  0.52848615457E+02  0.00000000000E+00 0. -1.
         11    1    1    2    0    0  0.23288320427E+02 -0.13347207388E+02 -0.12244689527E+03  0.12535444138E+03  0.00000000000E+00 0.  1.
</event>
<event>
 7    1  0.2899775E-009  0.1133924E+03  0.7561462E-02  0.1254414E+00
          3   -1    0    0  501    0  0.00000000000E+00  0.00000000000E+00  0.40247333279E+03  0.40247333279E+03  0.00000000000E+00 0. -1.
         -3   -1    0    0    0  501 -0.00000000000E+00 -0.00000000000E+00 -0.59782344924E+02  0.59782344924E+02  0.00000000000E+00 0.  1.
         25    2    1    2    0    0  0.59809454566E+02  0.39834283343E+02  0.56468459856E+02  0.15491894831E+03  0.12508897874E+03 0.  0.
          5    1    3    3  502    0  0.99546404462E+01  0.60497453799E+02 -0.16908633108E+02  0.63737046183E+02  0.41800000000E+01 0. -1.
         -5    1    3    3    0  502  0.49854814120E+02 -0.20663170457E+02  0.73377092963E+02  0.91181902130E+02  0.41800000000E+01 0. -1.
        -11    1    1    2    0    0 -0.68687740450E+02  0.17211270300E+01  0.19362238263E+03  0.20545217211E+03  0.00000000000E+00 0. -1.
         11    1    1    2    0    0  0.88782858833E+01 -0.41555410373E+02  0.92600145380E+02  0.10188455730E+03  0.00000000000E+00 0.  1.
</event>
<event>
 7    1  0.2899775E-009  0.1246065E+03  0.7561462E-02  0.1235686E+00
          2   -1    0    0  501    0  0.00000000000E+00  0.00000000000E+00  0.60415894778E+03  0.60415894778E+03  0.00000000000E+00 0. -1.
         -2   -1    0    0    0  501 -0.00000000000E+00 -0.00000000000E+00 -0.29080685247E+02  0.29080685247E+02  0.00000000000E+00 0.  1.
         25    2    1    2    0    0  0.48925163767E+02 -0.56496748285E+02  0.29148422081E+03  0.32587723542E+03  0.12508943747E+03 0.  0.
          5    1    3    3  502    0  0.76505326393E+02  0.22089056276E+01  0.11896540008E+03  0.14152096327E+03  0.41800000000E+01 0. -1.
         -5    1    3    3    0  502 -0.27580162626E+02 -0.58705653912E+02  0.17251882073E+03  0.18435627214E+03  0.41800000000E+01 0. -1.
        -11    1    1    2    0    0  0.19985727154E+02  0.27514677177E+01  0.15667537317E+02  0.25543523446E+02  0.00000000000E+00 0.  1.
         11    1    1    2    0    0 -0.68910890921E+02  0.53745280567E+02  0.26792650440E+03  0.28181887416E+03  0.00000000000E+00 0. -1.
</event>
<event>
 7    1  0.2899775E-009  0.8447580E+02  0.7561462E-02  0.1316809E+00
         -2   -1    0    0    0  501 -0.00000000000E+00  0.00000000000E+00  0.21133708826E+02  0.21133708826E+02  0.00000000000E+00 0.  1.
          2   -1    0    0  501    0  0.00000000000E+00 -0.00000000000E+00 -0.64559413668E+03  0.64559413668E+03  0.00000000000E+00 0. -1.
         25    2    1    2    0    0 -0.14256839437E+02  0.18454339180E+02 -0.45237568783E+03  0.46993108870E+03  0.12509054753E+03 0.  0.
          5    1    3    3  502    0 -0.21636476424E+02  0.48288931401E+02 -0.78441396765E+02  0.94712634502E+02  0.41800000000E+01 0.  1.
         -5    1    3    3    0  502  0.73796369872E+01 -0.29834592222E+02 -0.37393429107E+03  0.37521845420E+03  0.41800000000E+01 0.  1.
        -11    1    1    2    0    0  0.47564674271E+02 -0.17579573866E+01 -0.49484299087E+02  0.68659919231E+02  0.00000000000E+00 0.  1.
         11    1    1    2    0    0 -0.33307834834E+02 -0.16696381793E+02 -0.12260044093E+03  0.12813683757E+03  0.00000000000E+00 0. -1.
</event>
<event>
 7    1  0.2899775E-009  0.1334714E+03  0.7561462E-02  0.1222394E+00
          2   -1    0    0  501    0  0.00000000000E+00  0.00000000000E+00  0.87569068976E+02  0.87569068976E+02  0.00000000000E+00 0. -1.
         -2   -1    0    0    0  501 -0.00000000000E+00 -0.00000000000E+00 -0.22740651073E+03  0.22740651073E+03  0.00000000000E+00 0.  1.
         25    2    1    2    0    0 -0.87847893239E+02  0.14250303015E+02 -0.65886092586E+02  0.16706249521E+03  0.12509427096E+03 0.  0.
          5    1    3    3  502    0 -0.34461822573E+01 -0.48077889772E+02 -0.24060292378E+02  0.54034523468E+02  0.41800000000E+01 0. -1.
         -5    1    3    3    0  502 -0.84401710981E+02  0.62328192787E+02 -0.41825800208E+02  0.11302797174E+03  0.41800000000E+01 0. -1.
        -11    1    1    2    0    0 -0.98635531966E+01 -0.12377493400E+02 -0.42335171170E+02  0.45196888638E+02  0.00000000000E+00 0.  1.
         11    1    1    2    0    0  0.97711446435E+02 -0.18728096148E+01 -0.31616177992E+02  0.10271619586E+03  0.00000000000E+00 0. -1.
</event>
<event>
 7    1  0.2899775E-009  0.8300029E+02  0.7561462E-02  0.1320746E+00
          1   -1    0    0  501    0  0.00000000000E+00  0.00000000000E+00  0.57279665971E+02  0.57279665971E+02  0.00000000000E+00 0. -1.
         -1   -1    0    0    0  501 -0.00000000000E+00 -0.00000000000E+00 -0.22511400918E+03  0.22511400918E+03  0.00000000000E+00 0.  1.
         25    2    1    2    0    0  0.28627885519E+01  0.29640381422E+02 -0.57732364211E+02  0.14094908074E+03  0.12508744827E+03 0.  0.
          5    1    3    3  502    0  0.20635377252E+02 -0.18964571456E+02  0.28565591475E+02  0.40236043309E+02  0.41800000000E+01 0. -1.
         -5    1    3    3    0  502 -0.17772588700E+02  0.48604952878E+02 -0.86297955686E+02  0.10071303743E+03  0.41800000000E+01 0. -1.
        -11    1    1    2    0    0 -0.71190792011E+01  0.27519423937E+02 -0.20378261778E+02  0.34975327527E+02  0.00000000000E+00 0. -1.
         11    1    1    2    0    0  0.42562906492E+01 -0.57159805359E+02 -0.89723717217E+02  0.10646926688E+03  0.00000000000E+00 0.  1.
</event>
<event>
 7    1  0.2899775E-009  0.2693019E+03  0.7561462E-02  0.1101680E+00
          2   -1    0    0  501    0  0.00000000000E+00  0.00000000000E+00  0.52767594971E+03  0.52767594971E+03  0.00000000000E+00 0. -1.
         -2   -1    0    0    0  501 -0.00000000000E+00 -0.00000000000E+00 -0.15598966193E+03  0.15598966193E+03  0.00000000000E+00 0.  1.
         25    2    1    2    0    0 -0.22800058355E+03  0.10116273389E+03  0.29592295568E+03  0.40673776421E+03  0.12508816216E+03 0.  0.
          5    1    3    3  502    0 -0.24188734619E+03  0.98994060318E+02  0.26352936714E+03  0.37117989166E+03  0.41800000000E+01 0.  1.
         -5    1    3    3    0  502  0.13886762649E+02  0.21686735762E+01  0.32393588542E+02  0.35557872554E+02  0.41800000000E+01 0.  1.
        -11    1    1    2    0    0  0.57829496984E+02 -0.67840384655E+02  0.39155829698E+01  0.89229481124E+02  0.00000000000E+00 0.  1.
         11    1    1    2    0    0  0.17017108656E+03 -0.33322349239E+02  0.71847749131E+02  0.18769836631E+03  0.00000000000E+00 0. -1.
</event>
<event>
 7    1  0.3219532E-009  0.1079338E+03  0.7561462E-02  0.1264445E+00
         -1   -1    0    0    0  501 -0.00000000000E+00  0.00000000000E+00  0.16035645493E+02  0.16035645493E+02  0.00000000000E+00 0.  1.
          1   -1    0    0  501    0  0.00000000000E+00 -0.00000000000E+00 -0.11444821334E+04  0.11444821334E+04  0.00000000000E+00 0. -1.
         25    2    1    2    0    0  0.24548547438E+02 -0.74568252483E+02 -0.53440356116E+03  0.55443490672E+03  0.12509134320E+03 0.  0.
          5    1    3    3  502    0  0.20728073974E+02 -0.84235796944E+02 -0.18002677481E+03  0.19988105109E+03  0.41800000000E+01 0.  1.
         -5    1    3    3    0  502  0.38204734644E+01  0.96675444612E+01 -0.35437678635E+03  0.35455385562E+03  0.41800000000E+01 0.  1.
        -11    1    1    2    0    0 -0.57600431806E+02  0.53537420739E+02 -0.44940672279E+03  0.45623510129E+03  0.00000000000E+00 0.  1.
         11    1    1    2    0    0  0.33051884368E+02  0.21030831744E+02 -0.14463620397E+03  0.14984777090E+03  0.00000000000E+00 0. -1.
</event>
<event>
 7    1  0.2899775E-009  0.9681107E+02  0.7561462E-02  0.1287148E+00
          1   -1    0    0  501    0  0.00000000000E+00  0.00000000000E+00  0.11403342380E+04  0.11403342380E+04  0.00000000000E+00 0. -1.
         -1   -1    0    0    0  501 -0.00000000000E+00 -0.00000000000E+00 -0.19264919818E+02  0.19264919818E+02  0.00000000000E+00 0.  1.
         25    2    1    2    0    0  0.40868773940E+02  0.57602718269E+00  0.96388437083E+03  0.97282625485E+03  0.12508898152E+03 0.  0.
          5    1    3    3  502    0  0.64901076078E+01 -0.45649887774E+02  0.15211666458E+03  0.15900624452E+03  0.41800000000E+01 0.  1.
         -5    1    3    3    0  502  0.34378666333E+02  0.46225914956E+02  0.81176770624E+03  0.81382001033E+03  0.41800000000E+01 0.  1.
        -11    1    1    2    0    0  0.22909626499E+01  0.34114308938E+02  0.21923988232E+02  0.40616447951E+02  0.00000000000E+00 0.  1.
         11    1    1    2    0    0 -0.43159736590E+02 -0.34690336121E+02  0.13526095914E+03  0.14615645504E+03  0.00000000000E+00 0. -1.
</event>
<event>
 7    1  0.2899775E-009  0.8123291E+02  0.7561462E-02  0.1325589E+00
         -1   -1    0    0    0  501 -0.00000000000E+00  0.00000000000E+00  0.12412325492E+03  0.12412325492E+03  0.00000000000E+00 0.  1.
          1   -1    0    0  501    0  0.00000000000E+00 -0.00000000000E+00 -0.10468678175E+03  0.10468678175E+03  0.00000000000E+00 0. -1.
         25    2    1    2    0    0  0.25776507365E+02  0.22666511679E+02  0.21395835736E+02  0.13146483801E+03  0.12508806004E+03 0.  0.
          5    1    3    3  502    0 -0.15350767966E+02  0.18031849280E+02  0.66137133106E+02  0.70373194052E+02  0.41800000000E+01 0. -1.
         -5    1    3    3    0  502  0.41127275331E+02  0.46346623990E+01 -0.44741297369E+02  0.61091643962E+02  0.41800000000E+01 0. -1.
        -11    1    1    2    0    0  0.21382246511E+02 -0.40986185429E+02 -0.58826969042E+01  0.46601222996E+02  0.00000000000E+00 0.  1.
         11    1    1    2    0    0 -0.47158753876E+02  0.18319673750E+02  0.39233343301E+01  0.50743975660E+02  0.00000000000E+00 0. -1.
</event>
<event>
 7    1  0.2899775E-009  0.1028351E+03  0.7561462E-02  0.1274445E+00
         -2   -1    0    0    0  501 -0.00000000000E+00  0.00000000000E+00  0.73581368311E+02  0.73581368311E+02  0.00000000000E+00 0.  1.
          2   -1    0    0  501    0  0.00000000000E+00 -0.00000000000E+00 -0.29611404325E+03  0.29611404325E+03  0.00000000000E+00 0. -1.
         25    2    1    2    0    0  0.11974802744E+02 -0.68083035788E+02 -0.21230332977E+03  0.25592368820E+03  0.12508211176E+03 0.  0.
          5    1    3    3  502    0  0.31244757245E+02 -0.11483803087E+02  0.17915993355E+01  0.33597541826E+02  0.41800000000E+01 0.  1.
         -5    1    3    3    0  502 -0.19269954501E+02 -0.56599232701E+02 -0.21409492911E+03  0.22232614637E+03  0.41800000000E+01 0.  1.
        -11    1    1    2    0    0 -0.46546091164E+02  0.61275865628E+02  0.45907478533E+00  0.76951160230E+02  0.00000000000E+00 0.  1.
         11    1    1    2    0    0  0.34571288420E+02  0.68071701598E+01 -0.10688419951E+02  0.36820563136E+02  0.00000000000E+00 0. -1.
</event>
<event>
 7    1  0.2899775E-009  0.8294848E+02  0.7561462E-02  0.1320886E+00
          1   -1    0    0  501    0  0.00000000000E+00  0.00000000000E+00  0.54239889758E+03  0.54239889758E+03  0.00000000000E+00 0. -1.
         -1   -1    0    0    0  501 -0.00000000000E+00 -0.00000000000E+00 -0.22317019203E+02  0.22317019203E+02  0.00000000000E+00 0.  1.
         25    2    1    2    0    0  0.16935060754E+01  0.15069862920E+02  0.26296853966E+03  0.29159856414E+03  0.12508917229E+03 0.  0.
          5    1    3    3  502    0 -0.34219344868E+02 -0.37529712151E+00  0.10431432448E+02  0.36019322510E+02  0.41800000000E+01 0.  1.
         -5    1    3    3    0  502  0.35912850944E+02  0.15445160042E+02  0.25253710721E+03  0.25557924163E+03  0.41800000000E+01 0.  1.
        -11    1    1    2    0    0 -0.45230725170E+02  0.21604719444E+01  0.12873777291E+03  0.13646941164E+03  0.00000000000E+00 0. -1.
         11    1    1    2    0    0  0.43537219095E+02 -0.17230334865E+02  0.12837556581E+03  0.13664794101E+03  0.00000000000E+00 0.  1.
</event>
<event>
 7    1  0.2899775E-009  0.1076399E+03  0.7561462E-02  0.1265004E+00
          2   -1    0    0  501    0  0.00000000000E+00  0.00000000000E+00  0.41977013897E+02  0.41977013897E+02  0.00000000000E+00 0. -1.
         -2   -1    0    0    0  501 -0.00000000000E+00 -0.00000000000E+00 -0.30960349067E+03  0.30960349067E+03  0.00000000000E+00 0.  1.
         25    2    1    2    0    0 -0.23505847851E+01  0.29799544430E+02 -0.14596965096E+03  0.19454472814E+03  0.12508786572E+03 0.  0.
          5    1    3    3  502    0  0.71830333668E+01  0.75571071975E+02 -0.11652563932E+03  0.13913403576E+03  0.41800000000E+01 0.  1.
         -5    1    3    3    0  502 -0.95336181519E+01 -0.45771527545E+02 -0.29444011640E+02  0.55410692383E+02  0.41800000000E+01 0.  1.
        -11    1    1    2    0    0 -0.57819896608E+01 -0.60386692967E+02 -0.49687254112E+02  0.78414331044E+02  0.00000000000E+00 0. -1.
         11    1    1    2    0    0  0.81325744459E+01  0.30587148537E+02 -0.71969571703E+02  0.78621445382E+02  0.00000000000E+00 0.  1.
</event>
<event>
 7    1  0.2899775E-009  0.2122361E+03  0.7561462E-02  0.1139807E+00
         -2   -1    0    0    0  501 -0.00000000000E+00  0.00000000000E+00  0.28219725840E+02  0.28219725840E+02  0.00000000000E+00 0.  1.
          2   -1    0    0  501    0  0.00000000000E+00 -0.00000000000E+00 -0.27652681355E+04  0.27652681355E+04  0.00000000000E+00 0. -1.
         25    2    1    2    0    0  0.18513050128E+03  0.84267214549E+02 -0.21867318279E+04  0.21997326642E+04  0.12511371068E+03 0.  0.
          5    1    3    3  502    0  0.18174403883E+03  0.95002772992E+02 -0.16279031597E+04  0.16407749974E+04  0.41800000000E+01 0. -1.
         -5    1    3    3    0  502  0.33864624494E+01 -0.10735558443E+02 -0.55882866823E+03  0.55895766672E+03  0.41800000000E+01 0. -1.
        -11    1    1    2    0    0 -0.13001267810E+03 -0.38193989827E+02 -0.24374601884E+03  0.27888025930E+03  0.00000000000E+00 0.  1.
         11    1    1    2    0    0 -0.55117823182E+02 -0.46073224722E+02 -0.30657056295E+03  0.31487493793E+03  0.00000000000E+00 0. -1.
</event>
<event>
 7    1  0.2899775E-009  0.1048968E+03  0.7561462E-02  0.1270323E+00
         -2   -1    0    0    0  501 -0.00000000000E+00  0.00000000000E+00  0.37403774154E+03  0.37403774154E+03  0.00000000000E+00 0.  1.
          2   -1    0    0  501    0  0.00000000000E+00 -0.00000000000E+00 -0.59947587942E+02  0.59947587942E+02  0.00000000000E+00 0. -1.
         25    2    1    2    0    0  0.79283790040E+02  0.12139373864E+02  0.26428902645E+03  0.30319425680E+03  0.12507911134E+03 0.  0.
          5    1    3    3  502    0 -0.11953325522E+02 -0.24868052831E+02  0.14871541871E+03  0.15131110404E+03  0.41800000000E+01 0. -1.
         -5    1    3    3    0  502  0.91237115562E+02  0.37007426695E+02  0.11557360774E+03  0.15188315276E+03  0.41800000000E+01 0. -1.
        -11    1    1    2    0    0 -0.27998600052E+02 -0.15397003353E+02 -0.24629709122E+02  0.40343672225E+02  0.00000000000E+00 0. -1.
         11    1    1    2    0    0 -0.51285189987E+02  0.32576294891E+01  0.74430836273E+02  0.90447400461E+02  0.00000000000E+00 0.  1.
</event>
<event>
 7    1  0.2899775E-009  0.1502179E+03  0.7561462E-02  0.1200206E+00
         -2   -1    0    0    0  501 -0.00000000000E+00  0.00000000000E+00  0.26268258502E+02  0.26268258502E+02  0.00000000000E+00 0. -1.
          2   -1    0    0  501    0  0.00000000000E+00 -0.00000000000E+00 -0.12167530655E+04  0.12167530655E+04  0.00000000000E+00 0.  1.
         25    2    1    2    0    0 -0.10098160115E+03  0.38605955819E+02 -0.94866987904E+03  0.96296921901E+03  0.12508986272E+03 0.  0.
          5    1    3    3  502    0 -0.47909223773E+02  0.79952256282E+02 -0.43484887300E+03  0.44474562590E+03  0.41800000000E+01 0. -1.
         -5    1    3    3    0  502 -0.53072377381E+02 -0.41346300464E+02 -0.51382100604E+03  0.51822359311E+03  0.41800000000E+01 0. -1.
        -11    1    1    2    0    0  0.83677902420E+02  0.13557623822E+02 -0.12603317043E+03  0.15188864528E+03  0.00000000000E+00 0. -1.
         11    1    1    2    0    0  0.17303698734E+02 -0.52163579640E+02 -0.11578175756E+03  0.12816345974E+03  0.00000000000E+00 0.  1.
</event>
<event>
 7    1  0.2899775E-009  0.2121355E+03  0.7561462E-02  0.1139886E+00
         -2   -1    0    0    0  501 -0.00000000000E+00  0.00000000000E+00  0.52560939228E+02  0.52560939228E+02  0.00000000000E+00 0.  1.
          2   -1    0    0  501    0  0.00000000000E+00 -0.00000000000E+00 -0.95978185576E+03  0.95978185576E+03  0.00000000000E+00 0. -1.
         25    2    1    2    0    0  0.17561290296E+03  0.86195386501E+02 -0.44058171667E+03  0.49802425207E+03  0.12508545177E+03 0.  0.
          5    1    3    3  502    0  0.23801927096E+02 -0.25507467151E+02 -0.29896495279E+02  0.46134969860E+02  0.41800000000E+01 0.  1.
         -5    1    3    3    0  502  0.15181097587E+03  0.11170285365E+03 -0.41068522139E+03  0.45188928221E+03  0.41800000000E+01 0.  1.
        -11    1    1    2    0    0 -0.15208563960E+03 -0.90083275304E+02 -0.45428347655E+03  0.48746129624E+03  0.00000000000E+00 0. -1.
         11    1    1    2    0    0 -0.23527263365E+02  0.38878888031E+01 -0.12355723312E+02  0.26857246682E+02  0.00000000000E+00 0.  1.
</event>
<event>
 7    1  0.2899775E-009  0.1810693E+03  0.7561462E-02  0.1166772E+00
          2   -1    0    0  501    0  0.00000000000E+00  0.00000000000E+00  0.20918692134E+03  0.20918692134E+03  0.00000000000E+00 0.  1.
         -2   -1    0    0    0  501 -0.00000000000E+00 -0.00000000000E+00 -0.18018634397E+03  0.18018634397E+03  0.00000000000E+00 0. -1.
         25    2    1    2    0    0 -0.12359048886E+03 -0.90594778749E+02 -0.32655140342E+02  0.20049042373E+03  0.12509208185E+03 0.  0.
          5    1    3    3  502    0 -0.10652998962E+03 -0.11817252837E+03 -0.45230521727E+02  0.16545893039E+03  0.41800000000E+01 0.  1.
         -5    1    3    3    0  502 -0.17060499241E+02  0.27577749622E+02  0.12575381385E+02  0.35031493339E+02  0.41800000000E+01 0.  1.
        -11    1    1    2    0    0  0.39331675631E+02  0.74868906495E+02  0.59018250462E+02  0.10312850118E+03  0.00000000000E+00 0.  1.
         11    1    1    2    0    0  0.84258813225E+02  0.15725872254E+02  0.26374672451E+01  0.85754340402E+02  0.00000000000E+00 0. -1.
</event>
<event>
 7    1  0.2899775E-009  0.2426308E+03  0.7561462E-02  0.1118053E+00
          2   -1    0    0  501    0  0.00000000000E+00  0.00000000000E+00  0.85491958429E+03  0.85491958429E+03  0.00000000000E+00 0. -1.
         -2   -1    0    0    0  501 -0.00000000000E+00 -0.00000000000E+00 -0.19694245779E+03  0.19694245779E+03  0.00000000000E+00 0.  1.
         25    2    1    2    0    0  0.19261250402E+03 -0.10885855361E+03 -0.87707500953E+02  0.26887533965E+03  0.12510627941E+03 0.  0.
          5    1    3    3  502    0  0.10950884820E+03 -0.12820920897E+03 -0.61309341755E+02  0.17946057195E+03  0.41800000000E+01 0.  1.
         -5    1    3    3    0  502  0.83103655818E+02  0.19350655359E+02 -0.26398159198E+02  0.89414767696E+02  0.41800000000E+01 0.  1.
        -11    1    1    2    0    0 -0.42570719227E+02 -0.49367618753E+01  0.75151915216E+02  0.86512704928E+02  0.00000000000E+00 0.  1.
         11    1    1    2    0    0 -0.15004178479E+03  0.11379531548E+03  0.67053271224E+03  0.69647399750E+03  0.00000000000E+00 0. -1.
</event>
<event>
 7    1  0.2899775E-009  0.1492074E+03  0.7561462E-02  0.1201450E+00
         -2   -1    0    0    0  501 -0.00000000000E+00  0.00000000000E+00  0.92003538174E+02  0.92003538174E+02  0.00000000000E+00 0.  1.
          2   -1    0    0  501    0  0.00000000000E+00 -0.00000000000E+00 -0.39395466519E+03  0.39395466519E+03  0.00000000000E+00 0. -1.
         25    2    1    2    0    0 -0.31069965627E+02 -0.12802429516E+03 -0.26036885382E+03  0.31749084803E+03  0.12511169260E+03 0.  0.
          5    1    3    3  502    0 -0.49012467301E+02 -0.12226073692E+03 -0.26644417922E+03  0.29725390289E+03  0.41800000000E+01 0.  1.
         -5    1    3    3    0  502  0.17942501674E+02 -0.57635582451E+01  0.60753253962E+01  0.20236945141E+02  0.41800000000E+01 0.  1.
        -11    1    1    2    0    0  0.75587684696E+01 -0.69806631845E+01 -0.29097305379E+02  0.30862887415E+02  0.00000000000E+00 0. -1.
         11    1    1    2    0    0  0.23511197157E+02  0.13500495834E+03 -0.12484967811E+02  0.13760446792E+03  0.00000000000E+00 0.  1.
</event>
<event>
 7    1  0.2899775E-009  0.1139456E+03  0.7561462E-02  0.1253433E+00
         -1   -1    0    0    0  501 -0.00000000000E+00  0.00000000000E+00  0.11027001184E+03  0.11027001184E+03  0.00000000000E+00 0.  1.
          1   -1    0    0  501    0  0.00000000000E+00 -0.00000000000E+00 -0.20408589269E+03  0.20408589269E+03  0.00000000000E+00 0. -1.
         25    2    1    2    0    0 -0.31131080913E+02  0.42220328975E+02 -0.14354471247E+03  0.19749543354E+03  0.12509061281E+03 0.  0.
          5    1    3    3  502    0 -0.72762325079E+02  0.33652822136E+02 -0.12982035825E+03  0.15263573043E+03  0.41800000000E+01 0. -1.
         -5    1    3    3    0  502  0.41631244166E+02  0.85675068385E+01 -0.13724354218E+02  0.44859703108E+02  0.41800000000E+01 0. -1.
        -11    1    1    2    0    0 -0.30618360137E+02 -0.28109133081E+02  0.27002601328E+02  0.49565591074E+02  0.00000000000E+00 0.  1.
         11    1    1    2    0    0  0.61749441050E+02 -0.14111195894E+02  0.22726230283E+02  0.67294879913E+02  0.00000000000E+00 0. -1.
</event>
<event>
 7    1  0.2899775E-009  0.9300251E+02  0.7561462E-02  0.1295739E+00
          1   -1    0    0  501    0  0.00000000000E+00  0.00000000000E+00  0.75922671199E+03  0.75922671199E+03  0.00000000000E+00 0. -1.
         -1   -1    0    0    0  501 -0.00000000000E+00 -0.00000000000E+00 -0.21312988609E+02  0.21312988609E+02  0.00000000000E+00 0.  1.
         25    2    1    2    0    0  0.33305328797E+02  0.58101488383E+02  0.40449982822E+03  0.42867753822E+03  0.12513709628E+03 0.  0.
          5    1    3    3  502    0  0.52166990759E+02  0.44866358861E+02  0.39861483675E+03  0.40453139008E+03  0.41800000000E+01 0.  1.
         -5    1    3    3    0  502 -0.18861661962E+02  0.13235129522E+02  0.58849914708E+01  0.24146148141E+02  0.41800000000E+01 0.  1.
        -11    1    1    2    0    0  0.10678332116E+02 -0.47126359071E+02  0.73077913645E+02  0.87608800693E+02  0.00000000000E+00 0.  1.
         11    1    1    2    0    0 -0.43983660913E+02 -0.10975129312E+02  0.26033598151E+03  0.26425336168E+03  0.00000000000E+00 0. -1.
</event>
<event>
 7    1  0.2899775E-009  0.1710451E+03  0.7561462E-02  0.1176762E+00
          2   -1    0    0  501    0  0.00000000000E+00  0.00000000000E+00  0.50525329043E+03  0.50525329043E+03  0.00000000000E+00 0. -1.
         -2   -1    0    0    0  501 -0.00000000000E+00 -0.00000000000E+00 -0.72261137317E+02  0.72261137317E+02  0.00000000000E+00 0.  1.
         25    2    1    2    0    0 -0.15234895349E+03 -0.20524719699E+02  0.15646226431E+03  0.25252531764E+03  0.12512844659E+03 0.  0.
          5    1    3    3  502    0 -0.59510178282E+02  0.30511278962E+02  0.12517448650E+03  0.14198071676E+03  0.41800000000E+01 0.  1.
         -5    1    3    3    0  502 -0.92838775209E+02 -0.51035998661E+02  0.31287777812E+02  0.11054460087E+03  0.41800000000E+01 0.  1.
        -11    1    1    2    0    0  0.24970133655E+02  0.32650781277E+02  0.88149962653E+02  0.97262515948E+02  0.00000000000E+00 0.  1.
         11    1    1    2    0    0  0.12737881984E+03 -0.12126061578E+02  0.18837992615E+03  0.22772659416E+03  0.00000000000E+00 0. -1.
</event>
<event>
 7    1  0.2899775E-009  0.1215913E+03  0.7561462E-02  0.1240495E+00
         -1   -1    0    0    0  501 -0.00000000000E+00  0.00000000000E+00  0.18217438975E+03  0.18217438975E+03  0.00000000000E+00 0.  1.
          1   -1    0    0  501    0  0.00000000000E+00 -0.00000000000E+00 -0.84708620634E+02  0.84708620634E+02  0.00000000000E+00 0. -1.
         25    2    1    2    0    0  0.39639949694E+02  0.45195908463E+02  0.50049797311E+02  0.14753436734E+03  0.12508961420E+03 0.  0.
          5    1    3    3  502    0  0.26368494096E+02 -0.42264823449E+02  0.22195150053E+02  0.54696525191E+02  0.41800000000E+01 0.  1.
         -5    1    3    3    0  502  0.13271455598E+02  0.87460731913E+02  0.27854647258E+02  0.92837842145E+02  0.41800000000E+01 0.  1.
        -11    1    1    2    0    0 -0.36802553236E+02 -0.70308807319E+02  0.50230949890E+02  0.93919671199E+02  0.00000000000E+00 0.  1.
         11    1    1    2    0    0 -0.28373964582E+01  0.25112898856E+02 -0.28149780855E+01  0.25428971848E+02  0.00000000000E+00 0. -1.
</event>
<event>
 7    1  0.2899775E-009  0.1247628E+03  0.7561462E-02  0.1235441E+00
          1   -1    0    0  501    0  0.00000000000E+00  0.00000000000E+00  0.66304981322E+03  0.66304981322E+03  0.00000000000E+00 0. -1.
         -1   -1    0    0    0  501 -0.00000000000E+00 -0.00000000000E+00 -0.33541268305E+02  0.33541268305E+02  0.00000000000E+00 0.  1.
         25    2    1    2    0    0  0.55490666279E+02  0.80947365782E+02  0.37633530749E+03  0.40854230497E+03  0.12508741432E+03 0.  0.
          5    1    3    3  502    0  0.40618589544E+02  0.10995091044E+03  0.22560865471E+03  0.25427506761E+03  0.41800000000E+01 0. -1.
         -5    1    3    3    0  502  0.14872076735E+02 -0.29003544659E+02  0.15072665277E+03  0.15426723737E+03  0.41800000000E+01 0. -1.
        -11    1    1    2    0    0 -0.51460919519E+02 -0.64879084984E+02  0.25786156031E+03  0.27083224733E+03  0.00000000000E+00 0. -1.
         11    1    1    2    0    0 -0.40297467600E+01 -0.16068280798E+02 -0.46883228917E+01  0.17216529217E+02  0.00000000000E+00 0.  1.
</event>
<event>
 7    1  0.2899775E-009  0.1253164E+03  0.7561462E-02  0.1234576E+00
         -1   -1    0    0    0  501 -0.00000000000E+00  0.00000000000E+00  0.10556915731E+03  0.10556915731E+03  0.00000000000E+00 0.  1.
          1   -1    0    0  501    0  0.00000000000E+00 -0.00000000000E+00 -0.23844424258E+03  0.23844424258E+03  0.00000000000E+00 0. -1.
         25    2    1    2    0    0  0.67510080863E+02  0.79952428092E+02 -0.17728640545E+02  0.16404721526E+03  0.12508869798E+03 0.  0.
          5    1    3    3  502    0 -0.10940638300E+02  0.28975944840E+02  0.42460014103E+02  0.52722178857E+02  0.41800000000E+01 0.  1.
         -5    1    3    3    0  502  0.78450719163E+02  0.50976483251E+02 -0.60188654648E+02  0.11132503640E+03  0.41800000000E+01 0.  1.
        -11    1    1    2    0    0  0.14313502818E+02 -0.63021250874E+01  0.55586394220E+01  0.16597940106E+02  0.00000000000E+00 0.  1.
         11    1    1    2    0    0 -0.81823583680E+02 -0.73650303004E+02 -0.12070508415E+03  0.16336824452E+03  0.00000000000E+00 0. -1.
</event>
<event>
 7    1  0.2899775E-009  0.1235708E+03  0.7561462E-02  0.1237320E+00
         -1   -1    0    0    0  501 -0.00000000000E+00  0.00000000000E+00  0.65782500435E+02  0.65782500435E+02  0.00000000000E+00 0.  1.
          1   -1    0    0  501    0  0.00000000000E+00 -0.00000000000E+00 -0.39808354488E+03  0.39808354488E+03  0.00000000000E+00 0. -1.
         25    2    1    2    0    0 -0.95664251860E+02  0.47390319743E+02 -0.25537680117E+03  0.30374649659E+03  0.12508849717E+03 0.  0.
          5    1    3    3  502    0 -0.52297352846E+01  0.20036595513E+02 -0.18413413789E+03  0.18534203092E+03  0.41800000000E+01 0. -1.
         -5    1    3    3    0  502 -0.90434516576E+02  0.27353724229E+02 -0.71242663284E+02  0.11840446566E+03  0.41800000000E+01 0. -1.
        -11    1    1    2    0    0 -0.92105709667E+01  0.85621250490E+01  0.72045570337E+01  0.14493110258E+02  0.00000000000E+00 0.  1.
         11    1    1    2    0    0  0.10487482283E+03 -0.55952444792E+02 -0.84128800312E+02  0.14562643848E+03  0.00000000000E+00 0. -1.
</event>
<event>
 7    1  0.2899775E-009  0.1320103E+03  0.7561462E-02  0.1224503E+00
         -2   -1    0    0    0  501 -0.00000000000E+00  0.00000000000E+00  0.65365699878E+02  0.65365699878E+02  0.00000000000E+00 0. -1.
          2   -1    0    0  501    0  0.00000000000E+00 -0.00000000000E+00 -0.39995899712E+03  0.39995899712E+03  0.00000000000E+00 0.  1.
         25    2    1    2    0    0  0.43077032212E+02  0.11039050824E+03 -0.20316577281E+03  0.26639393083E+03  0.12509076755E+03 0.  0.
          5    1    3    3  502    0 -0.87230484361E+01  0.26251090904E+02  0.11341046263E+02  0.30187796839E+02  0.41800000000E+01 0. -1.
         -5    1    3    3    0  502  0.51800080648E+02  0.84139417338E+02 -0.21450681908E+03  0.23620613399E+03  0.41800000000E+01 0. -1.
        -11    1    1    2    0    0 -0.12553407047E+02 -0.10549063306E+03 -0.13013273611E+03  0.16798925769E+03  0.00000000000E+00 0.  1.
         11    1    1    2    0    0 -0.30523625165E+02 -0.48998751811E+01 -0.12947883201E+01  0.30941508476E+02  0.00000000000E+00 0. -1.
</event>
<event>
 7    1  0.2899775E-009  0.9178977E+02  0.7561462E-02  0.1298574E+00
          2   -1    0    0  501    0  0.00000000000E+00  0.00000000000E+00  0.13983788584E+02  0.13983788584E+02  0.00000000000E+00 0. -1.
         -2   -1    0    0    0  501 -0.00000000000E+00 -0.00000000000E+00 -0.85417505456E+03  0.85417505456E+03  0.00000000000E+00 0.  1.
         25    2    1    2    0    0  0.30584636348E+02 -0.17442762500E+02 -0.58009478933E+03  0.59447190347E+03  0.12508880629E+03 0.  0.
          5    1    3    3  502    0 -0.33406762280E+02 -0.43866956926E+01 -0.50519438133E+02  0.60868225655E+02  0.41800000000E+01 0.  1.
         -5    1    3    3    0  502  0.63991398628E+02 -0.13056066807E+02 -0.52957535120E+03  0.53360367781E+03  0.41800000000E+01 0.  1.
        -11    1    1    2    0    0  0.19123775776E+02  0.27473437728E+02 -0.12439052945E+03  0.12881580802E+03  0.00000000000E+00 0.  1.
         11    1    1    2    0    0 -0.49708412124E+02 -0.10030675228E+02 -0.13570594720E+03  0.14487113165E+03  0.00000000000E+00 0. -1.
</event>
<event>
 7    1  0.2899775E-009  0.1655357E+03  0.7561462E-02  0.1182585E+00
         -1   -1    0    0    0  501 -0.00000000000E+00  0.00000000000E+00  0.22895957997E+03  0.22895957997E+03  0.00000000000E+00 0.  1.
          1   -1    0    0  501    0  0.00000000000E+00 -0.00000000000E+00 -0.16712148150E+03  0.16712148150E+03  0.00000000000E+00 0. -1.
         25    2    1    2    0    0 -0.14782034420E+03 -0.59500989198E+02  0.11525951813E+02  0.20290944594E+03  0.12509266090E+03 0.  0.
          5    1    3    3  502    0 -0.60159889069E+02  0.57508418870E+01  0.58199803499E+02  0.84005797196E+02  0.41800000000E+01 0.  1.
         -5    1    3    3    0  502 -0.87660455133E+02 -0.65251831085E+02 -0.46673851686E+02  0.11890364875E+03  0.41800000000E+01 0.  1.
        -11    1    1    2    0    0  0.82051263431E+02  0.45741332561E+02  0.76406754722E+02  0.12108951855E+03  0.00000000000E+00 0.  1.
         11    1    1    2    0    0  0.65769080770E+02  0.13759656637E+02 -0.26094608064E+02  0.72082096988E+02  0.00000000000E+00 0. -1.
</event>
<event>
 7    1  0.2899775E-009  0.8644929E+02  0.7561462E-02  0.1311685E+00
         -2   -1    0    0    0  501 -0.00000000000E+00  0.00000000000E+00  0.13089922539E+03  0.13089922539E+03  0.00000000000E+00 0.  1.
          2   -1    0    0  501    0  0.00000000000E+00 -0.00000000000E+00 -0.12417879303E+03  0.12417879303E+03  0.00000000000E+00 0. -1.
         25    2    1    2    0    0  0.17583865381E+02  0.58304584092E+02 -0.27909608188E+02  0.14189457169E+03  0.12508599601E+03 0.  0.
          5    1    3    3  502    0 -0.12607600357E+01  0.52069827200E+02  0.43294022571E+02  0.67857948767E+02  0.41800000000E+01 0. -1.
         -5    1    3    3    0  502  0.18844625417E+02  0.62347568918E+01 -0.71203630759E+02  0.74036622923E+02  0.41800000000E+01 0. -1.
        -11    1    1    2    0    0 -0.43282884724E+02 -0.82030951423E+01  0.35949298441E+02  0.56859923833E+02  0.00000000000E+00 0.  1.
         11    1    1    2    0    0  0.25699019342E+02 -0.50101488950E+02 -0.13192579019E+01  0.56323522897E+02  0.00000000000E+00 0. -1.
</event>
<event>
 7    1  0.2899775E-009  0.1052322E+03  0.7561462E-02  0.1269663E+00
         -1   -1    0    0    0  501 -0.00000000000E+00  0.00000000000E+00  0.13326070419E+02  0.13326070419E+02  0.00000000000E+00 0.  1.
          1   -1    0    0  501    0  0.00000000000E+00 -0.00000000000E+00 -0.10014577290E+04  0.10014577290E+04  0.00000000000E+00 0. -1.
         25    2    1    2    0    0  0.37172155668E+01  0.36405150111E+02 -0.52459058932E+03  0.54053883152E+03  0.12509112411E+03 0.  0.
          5    1    3    3  502    0 -0.39449155469E+02  0.53440812468E+02 -0.42972226865E+03  0.43484578517E+03  0.41800000000E+01 0.  1.
         -5    1    3    3    0  502  0.43166371036E+02 -0.17035662357E+02 -0.94868320669E+02  0.10569304635E+03  0.41800000000E+01 0.  1.
        -11    1    1    2    0    0  0.31391246815E+02 -0.50517374107E+02 -0.33545400235E+03  0.34068578361E+03  0.00000000000E+00 0. -1.
         11    1    1    2    0    0 -0.35108462381E+02  0.14112223996E+02 -0.12808706686E+03  0.13355918424E+03  0.00000000000E+00 0.  1.
</event>
<event>
 7    1  0.2899775E-009  0.1464404E+03  0.7561462E-02  0.1204917E+00
          2   -1    0    0  501    0  0.00000000000E+00  0.00000000000E+00  0.73631761736E+03  0.73631761736E+03  0.00000000000E+00 0. -1.
         -2   -1    0    0    0  501 -0.00000000000E+00 -0.00000000000E+00 -0.44562448990E+02  0.44562448990E+02  0.00000000000E+00 0.  1.
         25    2    1    2    0    0  0.10165094955E+02 -0.12581251263E+03  0.49210751318E+03  0.52321057666E+03  0.12508950996E+03 0.  0.
          5    1    3    3  502    0  0.50782968170E+02 -0.49351220723E+02  0.34706701043E+03  0.35424205703E+03  0.41800000000E+01 0.  1.
         -5    1    3    3    0  502 -0.40617873215E+02 -0.76461291902E+02  0.14504050276E+03  0.16896851962E+03  0.41800000000E+01 0.  1.
        -11    1    1    2    0    0 -0.29606905262E+02  0.65151294189E+02  0.17552764093E+03  0.18955530250E+03  0.00000000000E+00 0. -1.
         11    1    1    2    0    0  0.19441810307E+02  0.60661218436E+02  0.24120014256E+02  0.68114187200E+02  0.00000000000E+00 0.  1.
</event>
<event>
 7    1  0.2899775E-009  0.1470636E+03  0.7561462E-02  0.1204128E+00
         -1   -1    0    0    0  501 -0.00000000000E+00  0.00000000000E+00  0.89833738386E+02  0.89833738386E+02  0.00000000000E+00 0.  1.
          1   -1    0    0  501    0  0.00000000000E+00 -0.00000000000E+00 -0.38639403102E+03  0.38639403102E+03  0.00000000000E+00 0. -1.
         25    2    1    2    0    0  0.33261132266E+02 -0.12538700827E+03 -0.50665913164E+02  0.18719620073E+03  0.12508868074E+03 0.  0.
          5    1    3    3  502    0  0.84454997830E+01 -0.11969896447E+03  0.10781273208E+02  0.12055238203E+03  0.41800000000E+01 0.  1.
         -5    1    3    3    0  502  0.24815632483E+02 -0.56880438032E+01 -0.61447186372E+02  0.66643818700E+02  0.41800000000E+01 0.  1.
        -11    1    1    2    0    0  0.78531101597E+01  0.99203992569E+02 -0.19272086431E+03  0.21689729141E+03  0.00000000000E+00 0.  1.
         11    1    1    2    0    0 -0.41114242426E+02  0.26183015705E+02 -0.53173515160E+02  0.72134277262E+02  0.00000000000E+00 0. -1.
</event>
<event>
 7    1  0.2899775E-009  0.1079696E+03  0.7561462E-02  0.1264377E+00
          1   -1    0    0  501    0  0.00000000000E+00  0.00000000000E+00  0.10516107326E+03  0.10516107326E+03  0.00000000000E+00 0. -1.
         -1   -1    0    0    0  501 -0.00000000000E+00 -0.00000000000E+00 -0.15264589523E+03  0.15264589523E+03  0.00000000000E+00 0.  1.
         25    2    1    2    0    0  0.49881376927E+02  0.45163035372E+01 -0.57740419116E+02  0.14659100002E+03  0.12508563677E+03 0.  0.
          5    1    3    3  502    0  0.82996398353E+02 -0.22227836395E+02 -0.58123688653E+02  0.10381866129E+03  0.41800000000E+01 0. -1.
         -5    1    3    3    0  502 -0.33115021427E+02  0.26744139932E+02  0.38326953653E+00  0.42772338729E+02  0.41800000000E+01 0. -1.
        -11    1    1    2    0    0 -0.14814016749E+02 -0.36682066380E+02 -0.29387253611E+02  0.49281231325E+02  0.00000000000E+00 0.  1.
         11    1    1    2    0    0 -0.35067360177E+02  0.32165762843E+02  0.39642850760E+02  0.61934737147E+02  0.00000000000E+00 0. -1.
</event>
<event>
 7    1  0.2899775E-009  0.1136798E+03  0.7561462E-02  0.1253903E+00
         -3   -1    0    0    0  501 -0.00000000000E+00  0.00000000000E+00  0.47402913573E+03  0.47402913573E+03  0.00000000000E+00 0.  1.
          3   -1    0    0  501    0  0.00000000000E+00 -0.00000000000E+00 -0.44379640820E+02  0.44379640820E+02  0.00000000000E+00 0. -1.
         25    2    1    2    0    0  0.93529279458E+02  0.61293895993E+01  0.22824325188E+03  0.27663548930E+03  0.12508763480E+03 0.  0.
          5    1    3    3  502    0  0.24293082592E+02 -0.20464991276E+02 -0.44743330064E+01  0.32349061587E+02  0.41800000000E+01 0. -1.
         -5    1    3    3    0  502  0.69236196867E+02  0.26594380875E+02  0.23271758489E+03  0.24428642772E+03  0.41800000000E+01 0. -1.
        -11    1    1    2    0    0  0.13078108920E+02 -0.60941701374E+01  0.62147282753E+00  0.14441678263E+02  0.00000000000E+00 0. -1.
         11    1    1    2    0    0 -0.10660738838E+03 -0.35219461838E-01  0.20078477020E+03  0.22733160898E+03  0.00000000000E+00 0.  1.
</event>
<event>
 7    1  0.2899775E-009  0.9420159E+02  0.7561462E-02  0.1292985E+00
          1   -1    0    0  501    0  0.00000000000E+00  0.00000000000E+00  0.59231843043E+02  0.59231843043E+02  0.00000000000E+00 0. -1.
         -1   -1    0    0    0  501 -0.00000000000E+00 -0.00000000000E+00 -0.23310834315E+03  0.23310834315E+03  0.00000000000E+00 0.  1.
         25    2    1    2    0    0  0.44692223809E+02  0.59862914496E+01 -0.65665517008E+02  0.14829958349E+03  0.12509027055E+03 0.  0.
          5    1    3    3  502    0  0.13336593503E+02 -0.55014226093E+02 -0.56076994241E+01  0.57038131909E+02  0.41800000000E+01 0. -1.
         -5    1    3    3    0  502  0.31355630306E+02  0.61000517543E+02 -0.60057817584E+02  0.91261451584E+02  0.41800000000E+01 0. -1.
        -11    1    1    2    0    0  0.42749800246E+01  0.10437098338E+02  0.99783487518E+01  0.15059080973E+02  0.00000000000E+00 0. -1.
         11    1    1    2    0    0 -0.48967203833E+02 -0.16423389788E+02 -0.11818933185E+03  0.12898152172E+03  0.00000000000E+00 0.  1.
</event>
<event>
 7    1  0.3546565E-009  0.1482359E+03  0.7561462E-02  0.1202658E+00
          1   -1    0    0  501    0  0.00000000000E+00  0.00000000000E+00  0.47204983923E+03  0.47204983923E+03  0.00000000000E+00 0. -1.
         -1   -1    0    0    0  501 -0.00000000000E+00 -0.00000000000E+00 -0.68547933402E+02  0.68547933402E+02  0.00000000000E+00 0.  1.
         25    2    1    2    0    0 -0.63741664498E+02 -0.12425879058E+03  0.16786216762E+03  0.25165159875E+03  0.12509025943E+03 0.  0.
          5    1    3    3  502    0 -0.61584052506E+02 -0.43204640743E+02  0.12527651003E+02  0.76378340807E+02  0.41800000000E+01 0.  1.
         -5    1    3    3    0  502 -0.21576119921E+01 -0.81054149838E+02  0.15533451662E+03  0.17527325794E+03  0.41800000000E+01 0.  1.
        -11    1    1    2    0    0  0.23369998539E+02  0.55204930081E+02  0.27478968746E+02  0.65945696299E+02  0.00000000000E+00 0. -1.
         11    1    1    2    0    0  0.40371665958E+02  0.69053860500E+02  0.20816076946E+03  0.22300047759E+03  0.00000000000E+00 0.  1.
</event>
<event>
 7    1  0.2899775E-009  0.2808711E+03  0.7561462E-02  0.1095214E+00
          1   -1    0    0  501    0  0.00000000000E+00  0.00000000000E+00  0.13978928254E+04  0.13978928254E+04  0.00000000000E+00 0. -1.
         -1   -1    0    0    0  501 -0.00000000000E+00 -0.00000000000E+00 -0.65837333980E+02  0.65837333980E+02  0.00000000000E+00 0.  1.
         25    2    1    2    0    0 -0.11131178206E+01  0.27561913871E+03  0.83388125841E+03  0.88711325058E+03  0.12507924519E+03 0.  0.
          5    1    3    3  502    0 -0.18611667410E+02  0.76373375160E+02  0.10473281731E+03  0.13101802173E+03  0.41800000000E+01 0. -1.
         -5    1    3    3    0  502  0.17498549590E+02  0.19924576355E+03  0.72914844110E+03  0.75609522885E+03  0.41800000000E+01 0. -1.
        -11    1    1    2    0    0 -0.29793448920E+02 -0.90308151979E+02  0.11026461782E+03  0.14560734135E+03  0.00000000000E+00 0.  1.
         11    1    1    2    0    0  0.30906566741E+02 -0.18531098673E+03  0.38790961519E+03  0.43100956745E+03  0.00000000000E+00 0. -1.
</event>
<event>
 7    1  0.2899775E-009  0.1020867E+03  0.7561462E-02  0.1275968E+00
          2   -1    0    0  501    0  0.00000000000E+00  0.00000000000E+00  0.25234030042E+03  0.25234030042E+03  0.00000000000E+00 0. -1.
         -2   -1    0    0    0  501 -0.00000000000E+00 -0.00000000000E+00 -0.47233497652E+02  0.47233497652E+02  0.00000000000E+00 0.  1.
         25    2    1    2    0    0  0.65583579253E+01 -0.49489516587E+01  0.12193979809E+03  0.17485344682E+03  0.12504762823E+03 0.  0.
          5    1    3    3  502    0  0.46385392111E+02  0.37431485341E+02  0.90952025757E+02  0.10882308618E+03  0.41800000000E+01 0.  1.
         -5    1    3    3    0  502 -0.39827034186E+02 -0.42380437000E+02  0.30987772337E+02  0.66030360643E+02  0.41800000000E+01 0.  1.
        -11    1    1    2    0    0 -0.35329215051E+02 -0.25994926505E+02  0.65707963269E+02  0.79002696645E+02  0.00000000000E+00 0. -1.
         11    1    1    2    0    0  0.28770857126E+02  0.30943878164E+02  0.17459041401E+02  0.45717654601E+02  0.00000000000E+00 0.  1.
</event>
<event>
 7    1  0.2899775E-009  0.1087786E+03  0.7561462E-02  0.1262849E+00
          3   -1    0    0  501    0  0.00000000000E+00  0.00000000000E+00  0.14898693203E+03  0.14898693203E+03  0.00000000000E+00 0. -1.
         -3   -1    0    0    0  501 -0.00000000000E+00 -0.00000000000E+00 -0.10084381829E+03  0.10084381829E+03  0.00000000000E+00 0.  1.
         25    2    1    2    0    0  0.27356417581E+02  0.33430331318E+02  0.64978944435E+02  0.14742952138E+03  0.12508892805E+03 0.  0.
          5    1    3    3  502    0 -0.36765129523E+02 -0.23751078333E+02  0.92296945032E+01  0.44927142480E+02  0.41800000000E+01 0.  1.
         -5    1    3    3    0  502  0.64121547104E+02  0.57181409650E+02  0.55749249932E+02  0.10250237890E+03  0.41800000000E+01 0.  1.
        -11    1    1    2    0    0  0.34707173401E+01 -0.51648074632E+02  0.15623642351E+02  0.54070950541E+02  0.00000000000E+00 0. -1.
         11    1    1    2    0    0 -0.30827134922E+02  0.18217743314E+02 -0.32459473046E+02  0.48330278391E+02  0.00000000000E+00 0.  1.
</event>
<event>
 7    1  0.2899775E-009  0.1980946E+03  0.7561462E-02  0.1151357E+00
         -1   -1    0    0    0  501 -0.00000000000E+00  0.00000000000E+00  0.77126049528E+02  0.77126049528E+02  0.00000000000E+00 0.  1.
          1   -1    0    0  501    0  0.00000000000E+00 -0.00000000000E+00 -0.59534358653E+03  0.59534358653E+03  0.00000000000E+00 0. -1.
         25    2    1    2    0    0  0.11624977721E+03 -0.14287919556E+03 -0.26191833319E+03  0.34376915353E+03  0.12509013723E+03 0.  0.
          5    1    3    3  502    0  0.54651680452E+02 -0.10366477138E+03 -0.65815540012E+02  0.13447062396E+03  0.41800000000E+01 0. -1.
         -5    1    3    3    0  502  0.61598096762E+02 -0.39214424180E+02 -0.19610279318E+03  0.20929852957E+03  0.41800000000E+01 0. -1.
        -11    1    1    2    0    0 -0.11359337627E+03  0.71213221200E+02 -0.16901015387E+03  0.21572948365E+03  0.00000000000E+00 0. -1.
         11    1    1    2    0    0 -0.26564009416E+01  0.71665974359E+02 -0.87289049945E+02  0.11297099888E+03  0.00000000000E+00 0.  1.
</event>
<event>
 7    1  0.2899775E-009  0.6905134E+02  0.7561462E-02  0.1363349E+00
         -1   -1    0    0    0  501 -0.00000000000E+00  0.00000000000E+00  0.30272906334E+02  0.30272906334E+02  0.00000000000E+00 0.  1.
          1   -1    0    0  501    0  0.00000000000E+00 -0.00000000000E+00 -0.39038273762E+03  0.39038273762E+03  0.00000000000E+00 0. -1.
         25    2    1    2    0    0  0.30937359746E+02  0.68559567037E+01 -0.29520372233E+03  0.32217559184E+03  0.12509096661E+03 0.  0.
          5    1    3    3  502    0  0.59954569918E+02  0.14656124640E+02 -0.64074018574E+02  0.89063486905E+02  0.41800000000E+01 0.  1.
         -5    1    3    3    0  502 -0.29017210172E+02 -0.78001679360E+01 -0.23112970376E+03  0.23311210493E+03  0.41800000000E+01 0.  1.
        -11    1    1    2    0    0  0.16785432369E+01 -0.12664780813E+02 -0.64079486981E+02  0.65340606304E+02  0.00000000000E+00 0. -1.
         11    1    1    2    0    0 -0.32615902983E+02  0.58088241092E+01 -0.82662197269E+00  0.33139445813E+02  0.00000000000E+00 0.  1.
</event>
<event>
 7    1  0.2899775E-009  0.8523444E+02  0.7561462E-02  0.1314821E+00
         -1   -1    0    0    0  501 -0.00000000000E+00  0.00000000000E+00  0.29502191041E+02  0.29502191041E+02  0.00000000000E+00 0.  1.
          1   -1    0    0  501    0  0.00000000000E+00 -0.00000000000E+00 -0.48648155773E+03  0.48648155773E+03  0.00000000000E+00 0. -1.
         25    2    1    2    0    0 -0.17338171731E+02  0.37354403667E+02 -0.32188799938E+03  0.34778543644E+03  0.12508741737E+03 0.  0.
          5    1    3    3  502    0 -0.22538836635E+02 -0.25402542834E+02 -0.20557798594E+02  0.39917212106E+02  0.41800000000E+01 0. -1.
         -5    1    3    3    0  502  0.52006649041E+01  0.62756946501E+02 -0.30133020079E+03  0.30786822434E+03  0.41800000000E+01 0. -1.
        -11    1    1    2    0    0  0.33789598599E+01 -0.52463024179E+02 -0.13776513728E+03  0.14745514344E+03  0.00000000000E+00 0. -1.
         11    1    1    2    0    0  0.13959211871E+02  0.15108620512E+02  0.26737699740E+01  0.20743168893E+02  0.00000000000E+00 0.  1.
</event>
<event>
 7    1  0.2899775E-009  0.1669299E+03  0.7561462E-02  0.1181088E+00
          2   -1    0    0  501    0  0.00000000000E+00  0.00000000000E+00  0.34852209179E+03  0.34852209179E+03  0.00000000000E+00 0.  1.
         -2   -1    0    0    0  501 -0.00000000000E+00 -0.00000000000E+00 -0.28372247643E+03  0.28372247643E+03  0.00000000000E+00 0. -1.
         25    2    1    2    0    0  0.14041962519E+03 -0.81078857558E+02 -0.21364370540E+03  0.29594291384E+03  0.12508846114E+03 0.  0.
          5    1    3    3  502    0  0.23109545677E+02 -0.16746527738E+02 -0.14044985763E+03  0.14338107337E+03  0.41800000000E+01 0.  1.
         -5    1    3    3    0  502  0.11731007952E+03 -0.64332329820E+02 -0.73193847777E+02  0.15256184047E+03  0.41800000000E+01 0.  1.
        -11    1    1    2    0    0 -0.12088025278E+03  0.88963488413E+02  0.27716394169E+03  0.31519262103E+03  0.00000000000E+00 0.  1.
         11    1    1    2    0    0 -0.19539372414E+02 -0.78846308545E+01  0.12793790717E+01  0.21109033347E+02  0.00000000000E+00 0. -1.
</event>
<event>
 7    1  0.2899775E-009  0.1010801E+03  0.7561462E-02  0.1278041E+00
          1   -1    0    0  501    0  0.00000000000E+00  0.00000000000E+00  0.27039498026E+02  0.27039498026E+02  0.00000000000E+00 0. -1.
         -1   -1    0    0    0  501 -0.00000000000E+00 -0.00000000000E+00 -0.70149306472E+03  0.70149306472E+03  0.00000000000E+00 0.  1.
         25    2    1    2    0    0 -0.19816140872E+02  0.80208551094E+02 -0.41713988177E+03  0.44325936950E+03  0.12508835511E+03 0.  0.
          5    1    3    3  502    0  0.40339662742E+00  0.18293775351E+02 -0.34678646148E+03  0.34729403567E+03  0.41800000000E+01 0.  1.
         -5    1    3    3    0  502 -0.20219537500E+02  0.61914775743E+02 -0.70353420289E+02  0.95965333836E+02  0.41800000000E+01 0.  1.
        -11    1    1    2    0    0  0.38132711784E+02 -0.24216564924E+01 -0.48861260425E+02  0.62027339928E+02  0.00000000000E+00 0. -1.
         11    1    1    2    0    0 -0.18316570912E+02 -0.77786894602E+02 -0.20845242451E+03  0.22324585332E+03  0.00000000000E+00 0.  1.
</event>
<event>
 7    1  0.2899775E-009  0.9351640E+02  0.7561462E-02  0.1294553E+00
          2   -1    0    0  501    0  0.00000000000E+00  0.00000000000E+00  0.17385155022E+03  0.17385155022E+03  0.00000000000E+00 0. -1.
         -2   -1    0    0    0  501 -0.00000000000E+00 -0.00000000000E+00 -0.90878823135E+02  0.90878823135E+02  0.00000000000E+00 0.  1.
         25    2    1    2    0    0  0.25358434801E+01  0.48302059520E+02  0.94372366413E+02  0.16399166612E+03  0.12509038155E+03 0.  0.
          5    1    3    3  502    0  0.14806495589E+02 -0.15510030261E+02 -0.21769740814E+02  0.30841325611E+02  0.41800000000E+01 0. -1.
         -5    1    3    3    0  502 -0.12270652109E+02  0.63812089780E+02  0.11614210723E+03  0.13315034050E+03  0.41800000000E+01 0. -1.
        -11    1    1    2    0    0  0.40667310005E+02 -0.37996213774E+02 -0.73581312864E+01  0.56139865160E+02  0.00000000000E+00 0.  1.
         11    1    1    2    0    0 -0.43203153485E+02 -0.10305845745E+02 -0.40415080421E+01  0.44598842079E+02  0.00000000000E+00 0. -1.
</event>
<event>
 7    1  0.2899775E-009  0.1106231E+03  0.7561462E-02  0.1259420E+00
         -3   -1    0    0    0  501 -0.00000000000E+00  0.00000000000E+00  0.27150676118E+03  0.27150676118E+03  0.00000000000E+00 0.  1.
          3   -1    0    0  501    0  0.00000000000E+00 -0.00000000000E+00 -0.58810222455E+02  0.58810222455E+02  0.00000000000E+00 0. -1.
         25    2    1    2    0    0  0.75204657526E+01  0.38504053089E+02  0.53059159955E+02  0.14144514397E+03  0.12510929137E+03 0.  0.
          5    1    3    3  502    0  0.41283704014E+02  0.71630133473E+02  0.41371822492E+02  0.92543613150E+02  0.41800000000E+01 0. -1.
         -5    1    3    3    0  502 -0.33763238261E+02 -0.33126080384E+02  0.11687337463E+02  0.48901530820E+02  0.41800000000E+01 0. -1.
        -11    1    1    2    0    0 -0.43318002125E+02 -0.33657197566E+02  0.13335867966E+03  0.14420053292E+03  0.00000000000E+00 0. -1.
         11    1    1    2    0    0  0.35797536372E+02 -0.48468555233E+01  0.26278699109E+02  0.44671306738E+02  0.00000000000E+00 0.  1.
</event>
<event>
 7    1  0.2899775E-009  0.2083379E+03  0.7561462E-02  0.1142889E+00
          2   -1    0    0  501    0  0.00000000000E+00  0.00000000000E+00  0.60897635942E+03  0.60897635942E+03  0.00000000000E+00 0. -1.
         -2   -1    0    0    0  501 -0.00000000000E+00 -0.00000000000E+00 -0.75463015127E+02  0.75463015127E+02  0.00000000000E+00 0.  1.
         25    2    1    2    0    0  0.14727132277E+03  0.94094189380E+02  0.22297539124E+03  0.30968757125E+03  0.12508320312E+03 0.  0.
          5    1    3    3  502    0  0.11414923261E+02 -0.26668029289E+02  0.54161166246E+02  0.61582372383E+02  0.41800000000E+01 0. -1.
         -5    1    3    3    0  502  0.13585639950E+03  0.12076221867E+03  0.16881422500E+03  0.24810519887E+03  0.41800000000E+01 0. -1.
        -11    1    1    2    0    0 -0.62805128093E+01  0.22020951704E+02  0.63655971921E+02  0.67649463533E+02  0.00000000000E+00 0. -1.
         11    1    1    2    0    0 -0.14099080996E+03 -0.11611514108E+03  0.24688198113E+03  0.30710233976E+03  0.00000000000E+00 0.  1.
</event>
<event>
 7    1  0.3938680E-009  0.8300432E+02  0.7561462E-02  0.1320736E+00
          2   -1    0    0  501    0  0.00000000000E+00  0.00000000000E+00  0.15524977002E+03  0.15524977002E+03  0.00000000000E+00 0. -1.
         -2   -1    0    0    0  501 -0.00000000000E+00 -0.00000000000E+00 -0.11842646832E+03  0.11842646832E+03  0.00000000000E+00 0.  1.
         25    2    1    2    0    0  0.32118599557E+02  0.48033382256E+02 -0.37250799615E+02  0.14273211138E+03  0.12508406492E+03 0.  0.
          5    1    3    3  502    0  0.36297473626E+02  0.59196554910E+02 -0.75374925813E+02  0.10256993003E+03  0.41800000000E+01 0.  1.
         -5    1    3    3    0  502 -0.41788740692E+01 -0.11163172654E+02  0.38124126198E+02  0.40162181347E+02  0.41800000000E+01 0.  1.
        -11    1    1    2    0    0  0.13594517798E+02 -0.33001126901E+02  0.74732801416E+02  0.82818336727E+02  0.00000000000E+00 0. -1.
         11    1    1    2    0    0 -0.45713117355E+02 -0.15032255355E+02 -0.65870010102E+00  0.48125790229E+02  0.00000000000E+00 0.  1.
</event>
<event>
 7    1  0.2899775E-009  0.4727290E+03  0.7561462E-02  0.1021153E+00
         -2   -1    0    0    0  501 -0.00000000000E+00  0.00000000000E+00  0.15416620936E+03  0.15416620936E+03  0.00000000000E+00 0.  1.
          2   -1    0    0  501    0  0.00000000000E+00 -0.00000000000E+00 -0.15599900827E+04  0.15599900827E+04  0.00000000000E+00 0. -1.
         25    2    1    2    0    0  0.13675521223E+02 -0.46306522700E+03 -0.50304440851E+03  0.69521062446E+03  0.12509081137E+03 0.  0.
          5    1    3    3  502    0  0.18825017280E+02 -0.46682285765E+03 -0.47549701751E+03  0.66662796803E+03  0.41800000000E+01 0.  1.
         -5    1    3    3    0  502 -0.51494960572E+01  0.37576306461E+01 -0.27547391002E+02  0.28582656432E+02  0.41800000000E+01 0.  1.
        -11    1    1    2    0    0  0.30006354359E+02  0.30967516018E+03 -0.63855077699E+03  0.71031414243E+03  0.00000000000E+00 0. -1.
         11    1    1    2    0    0 -0.43681875582E+02  0.15339006682E+03 -0.26422868780E+03  0.30863152514E+03  0.00000000000E+00 0.  1.
</event>
<event>
 7    1  0.2899775E-009  0.2034315E+03  0.7561462E-02  0.1146876E+00
          2   -1    0    0  501    0  0.00000000000E+00  0.00000000000E+00  0.63614245338E+03  0.63614245338E+03  0.00000000000E+00 0. -1.
         -2   -1    0    0    0  501 -0.00000000000E+00 -0.00000000000E+00 -0.71563750424E+02  0.71563750424E+02  0.00000000000E+00 0.  1.
         25    2    1    2    0    0 -0.15224868394E+03 -0.10304867537E+03  0.27965116636E+03  0.35728287652E+03  0.12509031838E+03 0.  0.
          5    1    3    3  502    0 -0.18361513934E+02  0.16434717328E+02  0.15449901625E-01  0.24994354688E+02  0.41800000000E+01 0. -1.
         -5    1    3    3    0  502 -0.13388717000E+03 -0.11948339270E+03  0.27963571646E+03  0.33228852184E+03  0.41800000000E+01 0. -1.
        -11    1    1    2    0    0  0.13943348288E+03  0.11801142263E+03  0.24211303484E+03  0.30329377452E+03  0.00000000000E+00 0.  1.
         11    1    1    2    0    0  0.12815201061E+02 -0.14962747260E+02  0.42814501745E+02  0.47129552761E+02  0.00000000000E+00 0. -1.
</event>
<event>
 7    1  0.2899775E-009  0.9979919E+02  0.7561462E-02  0.1280719E+00
          2   -1    0    0  501    0  0.00000000000E+00  0.00000000000E+00  0.31161566812E+04  0.31161566812E+04  0.00000000000E+00 0. -1.
         -2   -1    0    0    0  501 -0.00000000000E+00 -0.00000000000E+00 -0.15846184216E+02  0.15846184216E+02  0.00000000000E+00 0.  1.
         25    2    1    2    0    0  0.41745244542E+02  0.53008470952E+02  0.28762778335E+04  0.28797869505E+04  0.12508453707E+03 0.  0.
          5    1    3    3  502    0 -0.61499703944E+01 -0.69057676529E+01  0.20310710812E+04  0.20310964332E+04  0.41800000000E+01 0.  1.
         -5    1    3    3    0  502  0.47895214937E+02  0.59914238605E+02  0.84520675236E+03  0.84869051735E+03  0.41800000000E+01 0.  1.
        -11    1    1    2    0    0  0.14135733776E+00 -0.68106619726E+02  0.16310304451E+03  0.17675161883E+03  0.00000000000E+00 0.  1.
         11    1    1    2    0    0 -0.41886601880E+02  0.15098148774E+02  0.60929618985E+02  0.75464296082E+02  0.00000000000E+00 0. -1.
</event>
<event>
 7    1  0.2899775E-009  0.1146521E+03  0.7561462E-02  0.1252190E+00
          4   -1    0    0  501    0  0.00000000000E+00  0.00000000000E+00  0.49909162584E+02  0.49909162584E+02  0.00000000000E+00 0. -1.
         -4   -1    0    0    0  501 -0.00000000000E+00 -0.00000000000E+00 -0.28999805162E+03  0.28999805162E+03  0.00000000000E+00 0.  1.
         25    2    1    2    0    0 -0.35570946802E+02  0.30685188183E+02 -0.16436545782E+03  0.21182524110E+03  0.12508819293E+03 0.  0.
          5    1    3    3  502    0  0.28714295835E+02 -0.31692965003E+02 -0.65642399319E+02  0.78456050145E+02  0.41800000000E+01 0. -1.
         -5    1    3    3    0  502 -0.64285242636E+02  0.62378153186E+02 -0.98723058503E+02  0.13336919095E+03  0.41800000000E+01 0. -1.
        -11    1    1    2    0    0  0.49936422011E+02 -0.51263617963E+02 -0.73971697698E+02  0.10292432575E+03  0.00000000000E+00 0.  1.
         11    1    1    2    0    0 -0.14365475209E+02  0.20578429780E+02 -0.17517335125E+01  0.25157647356E+02  0.00000000000E+00 0. -1.
</event>
<event>
 7    1  0.2899775E-009  0.9203108E+02  0.7561462E-02  0.1298006E+00
          1   -1    0    0  501    0  0.00000000000E+00  0.00000000000E+00  0.48966037020E+02  0.48966037020E+02  0.00000000000E+00 0. -1.
         -1   -1    0    0    0  501 -0.00000000000E+00 -0.00000000000E+00 -0.32822424152E+03  0.32822424152E+03  0.00000000000E+00 0.  1.
         25    2    1    2    0    0  0.51691456734E+02  0.12043164364E+02 -0.21313613695E+03  0.25276920420E+03  0.12509281839E+03 0.  0.
          5    1    3    3  502    0  0.34756887067E+02 -0.28253100351E+02 -0.11534713414E+02  0.46441370475E+02  0.41800000000E+01 0.  1.
         -5    1    3    3    0  502  0.16934569667E+02  0.40296264715E+02 -0.20160142354E+03  0.20632783373E+03  0.41800000000E+01 0.  1.
        -11    1    1    2    0    0 -0.63896556007E+02 -0.32239139399E+02 -0.70454771814E+02  0.10042911356E+03  0.00000000000E+00 0.  1.
         11    1    1    2    0    0  0.12205099272E+02  0.20195975035E+02  0.43327042608E+01  0.23991960781E+02  0.00000000000E+00 0. -1.
</event>
<event>
 7    1  0.2899775E-009  0.2405660E+03  0.7561462E-02  0.1119416E+00
         -3   -1    0    0    0  501 -0.00000000000E+00  0.00000000000E+00  0.18454288368E+03  0.18454288368E+03  0.00000000000E+00 0.  1.
          3   -1    0    0  501    0  0.00000000000E+00 -0.00000000000E+00 -0.34549744704E+03  0.34549744704E+03  0.00000000000E+00 0. -1.
         25    2    1    2    0    0  0.20935992293E+03 -0.85560417336E+02 -0.10780221534E+03  0.28004039729E+03  0.12509653928E+03 0.  0.
          5    1    3    3  502    0  0.21119186727E+03 -0.66044983540E+02 -0.12451915859E+03  0.25394180024E+03  0.41800000000E+01 0. -1.
         -5    1    3    3    0  502 -0.18319443396E+01 -0.19515433795E+02  0.16716943257E+02  0.26098597053E+02  0.41800000000E+01 0. -1.
        -11    1    1    2    0    0 -0.38963348199E+02 -0.15189232153E+02 -0.28294788594E+02  0.50492081932E+02  0.00000000000E+00 0.  1.
         11    1    1    2    0    0 -0.17039657473E+03  0.10074964949E+03 -0.24857559429E+02  0.19950785150E+03  0.00000000000E+00 0. -1.
</event>
<event>
 7    1  0.2899775E-009  0.1158529E+03  0.7561462E-02  0.1250100E+00
         -1   -1    0    0    0  501 -0.00000000000E+00  0.00000000000E+00  0.22783718322E+02  0.22783718322E+02  0.00000000000E+00 0.  1.
          1   -1    0    0  501    0  0.00000000000E+00 -0.00000000000E+00 -0.65649425127E+03  0.65649425127E+03  0.00000000000E+00 0. -1.
         25    2    1    2    0    0 -0.13911530238E+02  0.46380908055E+02 -0.43221924940E+03  0.45255509930E+03  0.12509164259E+03 0.  0.
          5    1    3    3  502    0 -0.66527429107E+02  0.36627820985E+02 -0.19429912033E+03  0.20865549754E+03  0.41800000000E+01 0.  1.
         -5    1    3    3    0  502  0.52615898869E+02  0.97530870700E+01 -0.23792012907E+03  0.24389960176E+03  0.41800000000E+01 0.  1.
        -11    1    1    2    0    0 -0.34564218985E+02  0.45332053859E+00 -0.48665334496E+02  0.59692591795E+02  0.00000000000E+00 0. -1.
         11    1    1    2    0    0  0.48475749224E+02 -0.46834228594E+02 -0.15282594906E+03  0.16703027850E+03  0.00000000000E+00 0.  1.
</event>
<event>
 7    1  0.2899775E-009  0.1342620E+03  0.7561462E-02  0.1221265E+00
          2   -1    0    0  501    0  0.00000000000E+00  0.00000000000E+00  0.75059393021E+03  0.75059393021E+03  0.00000000000E+00 0.  1.
         -2   -1    0    0    0  501 -0.00000000000E+00 -0.00000000000E+00 -0.25067422570E+02  0.25067422570E+02  0.00000000000E+00 0. -1.
         25    2    1    2    0    0 -0.61904623508E+02 -0.50952775710E+02  0.35920296040E+03  0.38871829149E+03  0.12508707214E+03 0.  0.
          5    1    3    3  502    0 -0.62627700722E+02  0.25313570677E+02  0.12193762175E+03  0.13946061005E+03  0.41800000000E+01 0.  1.
         -5    1    3    3    0  502  0.72307721316E+00 -0.76266346386E+02  0.23726533865E+03  0.24925768144E+03  0.41800000000E+01 0.  1.
        -11    1    1    2    0    0  0.90009105531E+01  0.68219196681E+02  0.21243056798E+03  0.22329715941E+03  0.00000000000E+00 0. -1.
         11    1    1    2    0    0  0.52903712955E+02 -0.17266420971E+02  0.15389297926E+03  0.16364590188E+03  0.00000000000E+00 0.  1.
</event>
<event>
 7    1  0.2899775E-009  0.7237998E+02  0.7561462E-02  0.1352182E+00
          1   -1    0    0  501    0  0.00000000000E+00  0.00000000000E+00  0.28796950301E+02  0.28796950301E+02  0.00000000000E+00 0. -1.
         -1   -1    0    0    0  501 -0.00000000000E+00 -0.00000000000E+00 -0.57712819072E+03  0.57712819072E+03  0.00000000000E+00 0.  1.
         25    2    1    2    0    0  0.70030131225E+02 -0.51637714155E+01 -0.32044854365E+03  0.35109212478E+03  0.12509007610E+03 0.  0.
          5    1    3    3  502    0  0.43942572795E+01  0.30520100113E+01  0.11084543437E+02  0.12998606285E+02  0.41800000000E+01 0.  1.
         -5    1    3    3    0  502  0.65635873945E+02 -0.82157814268E+01 -0.33153308709E+03  0.33809351850E+03  0.41800000000E+01 0.  1.
        -11    1    1    2    0    0 -0.41749110771E+02  0.10169648434E+02 -0.22121349544E+03  0.22534822068E+03  0.00000000000E+00 0.  1.
         11    1    1    2    0    0 -0.28281020454E+02 -0.50058770186E+01 -0.66692013195E+01  0.29484795554E+02  0.00000000000E+00 0. -1.
</event>
<event>
 7    1  0.2899775E-009  0.1082013E+03  0.7561462E-02  0.1263938E+00
         -2   -1    0    0    0  501 -0.00000000000E+00  0.00000000000E+00  0.68667756260E+02  0.68667756260E+02  0.00000000000E+00 0.  1.
          2   -1    0    0  501    0  0.00000000000E+00 -0.00000000000E+00 -0.33625298242E+03  0.33625298242E+03  0.00000000000E+00 0. -1.
         25    2    1    2    0    0  0.45344625603E+02 -0.83249223763E+02 -0.80823169080E+02  0.17654038427E+03  0.12509018462E+03 0.  0.
          5    1    3    3  502    0 -0.16426523900E+02 -0.40758555051E+02 -0.90633437561E+02  0.10081162086E+03  0.41800000000E+01 0. -1.
         -5    1    3    3    0  502  0.61771149503E+02 -0.42490668712E+02  0.98102684810E+01  0.75728763400E+02  0.41800000000E+01 0. -1.
        -11    1    1    2    0    0 -0.43407736716E+02  0.61177167795E+02 -0.19154823715E+03  0.20571243186E+03  0.00000000000E+00 0. -1.
         11    1    1    2    0    0 -0.19368888866E+01  0.22072055968E+02  0.47861800713E+01  0.22667922554E+02  0.00000000000E+00 0.  1.
</event>
<event>
 7    1  0.2899775E-009  0.1084208E+03  0.7561462E-02  0.1263523E+00
         -1   -1    0    0    0  501 -0.00000000000E+00  0.00000000000E+00  0.69554689580E+02  0.69554689580E+02  0.00000000000E+00 0.  1.
          1   -1    0    0  501    0  0.00000000000E+00 -0.00000000000E+00 -0.27624062646E+03  0.27624062646E+03  0.00000000000E+00 0. -1.
         25    2    1    2    0    0  0.38877860673E+02  0.60981724959E+02 -0.17125811703E+03  0.22406878575E+03  0.12508884549E+03 0.  0.
          5    1    3    3  502    0  0.10624355947E+02  0.76970391654E+02 -0.17461238555E+03  0.19116557148E+03  0.41800000000E+01 0. -1.
         -5    1    3    3    0  502  0.28253504726E+02 -0.15988666695E+02  0.33542685148E+01  0.32903214270E+02  0.41800000000E+01 0. -1.
        -11    1    1    2    0    0 -0.96523820576E+01  0.18908242627E+02 -0.29644788345E+02  0.36462358600E+02  0.00000000000E+00 0. -1.
         11    1    1    2    0    0 -0.29225478615E+02 -0.79889967586E+02 -0.57830315005E+01  0.85264171693E+02  0.00000000000E+00 0.  1.
</event>
<event>
 7    1  0.2899775E-009  0.9443294E+02  0.7561462E-02  0.1292458E+00
          2   -1    0    0  501    0  0.00000000000E+00  0.00000000000E+00  0.99081502412E+02  0.99081502412E+02  0.00000000000E+00 0. -1.
         -2   -1    0    0    0  501 -0.00000000000E+00 -0.00000000000E+00 -0.15232976491E+03  0.15232976491E+03  0.00000000000E+00 0.  1.
         25    2    1    2    0    0 -0.18777985601E+02  0.54783264326E+02 -0.54223482463E+02  0.14807621219E+03  0.12503023543E+03 0.  0.
          5    1    3    3  502    0  0.35383505231E+02  0.38243715072E+02  0.18822521539E+02  0.55554782891E+02  0.41800000000E+01 0.  1.
         -5    1    3    3    0  502 -0.54161490832E+02  0.16539549253E+02 -0.73046004002E+02  0.92521429297E+02  0.41800000000E+01 0.  1.
        -11    1    1    2    0    0  0.38346070235E+02 -0.33736374776E+02 -0.31471175870E+02  0.59991657722E+02  0.00000000000E+00 0.  1.
         11    1    1    2    0    0 -0.19568084634E+02 -0.21046889549E+02  0.32446395839E+02  0.43343397408E+02  0.00000000000E+00 0. -1.
</event>
<event>
 7    1  0.2899775E-009  0.9784319E+02  0.7561462E-02  0.1284898E+00
          2   -1    0    0  501    0  0.00000000000E+00  0.00000000000E+00  0.15186164656E+04  0.15186164656E+04  0.00000000000E+00 0. -1.
         -2   -1    0    0    0  501 -0.00000000000E+00 -0.00000000000E+00 -0.10590637381E+02  0.10590637381E+02  0.00000000000E+00 0.  1.
         25    2    1    2    0    0  0.56432559665E+00  0.90039229156E+01  0.12282421366E+04  0.12346283714E+04  0.12508828937E+03 0.  0.
          5    1    3    3  502    0 -0.53640277624E+02 -0.11596315558E+02  0.33453917145E+03  0.33903640447E+03  0.41800000000E+01 0. -1.
         -5    1    3    3    0  502  0.54204603220E+02  0.20600238474E+02  0.89370296517E+03  0.89559196691E+03  0.41800000000E+01 0. -1.
        -11    1    1    2    0    0  0.19731728015E+02  0.31520729856E+02  0.19426460683E+03  0.19779189813E+03  0.00000000000E+00 0. -1.
         11    1    1    2    0    0 -0.20296053612E+02 -0.40524652772E+02  0.85519084795E+02  0.96786833499E+02  0.00000000000E+00 0.  1.
</event>
<event>
 7    1  0.2899775E-009  0.1238019E+03  0.7561462E-02  0.1236954E+00
         -2   -1    0    0    0  501 -0.00000000000E+00  0.00000000000E+00  0.18265643351E+03  0.18265643351E+03  0.00000000000E+00 0.  1.
          2   -1    0    0  501    0  0.00000000000E+00 -0.00000000000E+00 -0.11519857549E+03  0.11519857549E+03  0.00000000000E+00 0. -1.
         25    2    1    2    0    0  0.84248402552E+02 -0.40045718669E+01  0.82755143788E+02  0.17207309501E+03  0.12508759441E+03 0.  0.
          5    1    3    3  502    0  0.84622760074E+02  0.29541406344E+02  0.99805016445E+02  0.13420961187E+03  0.41800000000E+01 0.  1.
         -5    1    3    3    0  502 -0.37435752116E+00 -0.33545978210E+02 -0.17049872657E+02  0.37863483137E+02  0.41800000000E+01 0.  1.
        -11    1    1    2    0    0 -0.10406284597E+03  0.13102689098E+01 -0.75769720391E+01  0.10434655347E+03  0.00000000000E+00 0.  1.
         11    1    1    2    0    0  0.19814443417E+02  0.26943029570E+01 -0.77203137364E+01  0.21435360518E+02  0.00000000000E+00 0. -1.
</event>
<event>
 7    1  0.2899775E-009  0.1433014E+03  0.7561462E-02  0.1208954E+00
          2   -1    0    0  501    0  0.00000000000E+00  0.00000000000E+00  0.77803579769E+03  0.77803579769E+03  0.00000000000E+00 0.  1.
         -2   -1    0    0    0  501 -0.00000000000E+00 -0.00000000000E+00 -0.33520101172E+02  0.33520101172E+02  0.00000000000E+00 0. -1.
         25    2    1    2    0    0  0.11718394316E+03  0.18100167132E+02  0.43182409843E+03  0.46495280955E+03  0.12509744415E+03 0.  0.
          5    1    3    3  502    0  0.38883545153E+02 -0.46819725139E+02  0.93465379866E+02  0.11161212470E+03  0.41800000000E+01 0.  1.
         -5    1    3    3    0  502  0.78300398005E+02  0.64919892271E+02  0.33835871857E+03  0.35334068485E+03  0.41800000000E+01 0.  1.
        -11    1    1    2    0    0 -0.85299346129E+02  0.33607313246E+01  0.28925058717E+03  0.30158444114E+03  0.00000000000E+00 0.  1.
         11    1    1    2    0    0 -0.31884597029E+02 -0.21460898456E+02  0.23441010920E+02  0.45018648171E+02  0.00000000000E+00 0. -1.
</event>
<event>
 7    1  0.2899775E-009  0.8950115E+02  0.7561462E-02  0.1304064E+00
          2   -1    0    0  501    0  0.00000000000E+00  0.00000000000E+00  0.13171903137E+03  0.13171903137E+03  0.00000000000E+00 0. -1.
         -2   -1    0    0    0  501 -0.00000000000E+00 -0.00000000000E+00 -0.16049864034E+03  0.16049864034E+03  0.00000000000E+00 0.  1.
         25    2    1    2    0    0 -0.14002743990E+02 -0.12462452817E+02 -0.11196070164E+03  0.16891679177E+03  0.12508514804E+03 0.  0.
          5    1    3    3  502    0  0.43947866656E+02  0.13239777714E+02 -0.75604202860E+01  0.46704807595E+02  0.41800000000E+01 0.  1.
         -5    1    3    3    0  502 -0.57950610646E+02 -0.25702230530E+02 -0.10440028136E+03  0.12221198418E+03  0.41800000000E+01 0.  1.
        -11    1    1    2    0    0 -0.23013914845E+02 -0.11049123008E+02 -0.38773598166E+01  0.25821644311E+02  0.00000000000E+00 0.  1.
         11    1    1    2    0    0  0.37016658835E+02  0.23511575825E+02  0.87058452490E+02  0.97479235630E+02  0.00000000000E+00 0. -1.
</event>
<event>
 7    1  0.2899775E-009  0.1725071E+03  0.7561462E-02  0.1175258E+00
          2   -1    0    0  501    0  0.00000000000E+00  0.00000000000E+00  0.19989058971E+03  0.19989058971E+03  0.00000000000E+00 0. -1.
         -2   -1    0    0    0  501 -0.00000000000E+00 -0.00000000000E+00 -0.18535752693E+03  0.18535752693E+03  0.00000000000E+00 0.  1.
         25    2    1    2    0    0 -0.56509021161E+02 -0.14776351283E+03 -0.21903318861E+01  0.20168922679E+03  0.12508565647E+03 0.  0.
          5    1    3    3  502    0  0.20611815917E+02 -0.70970612988E+01  0.30694921199E+02  0.37879622779E+02  0.41800000000E+01 0. -1.
         -5    1    3    3    0  502 -0.77120837078E+02 -0.14066645153E+03 -0.32885253085E+02  0.16380960401E+03  0.41800000000E+01 0. -1.
        -11    1    1    2    0    0  0.35373916643E+02  0.13002305927E+03  0.46891167138E+02  0.14267477519E+03  0.00000000000E+00 0. -1.
         11    1    1    2    0    0  0.21135104518E+02  0.17740453556E+02 -0.30167772466E+02  0.40884114652E+02  0.00000000000E+00 0.  1.
</event>
<event>
 7    1  0.2899775E-009  0.1234826E+03  0.7561462E-02  0.1237460E+00
         -1   -1    0    0    0  501 -0.00000000000E+00  0.00000000000E+00  0.59860960586E+02  0.59860960586E+02  0.00000000000E+00 0.  1.
          1   -1    0    0  501    0  0.00000000000E+00 -0.00000000000E+00 -0.35865787307E+03  0.35865787307E+03  0.00000000000E+00 0. -1.
         25    2    1    2    0    0  0.61503875818E+02  0.66365257889E+02 -0.10342864640E+03  0.18582704646E+03  0.12508849709E+03 0.  0.
          5    1    3    3  502    0 -0.15390006037E+02 -0.19722554737E+02  0.67018046186E+01  0.26233910046E+02  0.41800000000E+01 0. -1.
         -5    1    3    3    0  502  0.76893881854E+02  0.86087812626E+02 -0.11013045102E+03  0.15959313642E+03  0.41800000000E+01 0. -1.
        -11    1    1    2    0    0 -0.65097852019E+02 -0.33828484515E+02 -0.64156920923E+02  0.97458746167E+02  0.00000000000E+00 0.  1.
         11    1    1    2    0    0  0.35939762014E+01 -0.32536773374E+02 -0.13121134517E+03  0.13523304103E+03  0.00000000000E+00 0. -1.
</event>
<event>
 7    1  0.2899775E-009  0.1182778E+03  0.7561462E-02  0.1245966E+00
         -4   -1    0    0    0  501 -0.00000000000E+00  0.00000000000E+00  0.44065424282E+03  0.44065424282E+03  0.00000000000E+00 0.  1.
          4   -1    0    0  501    0  0.00000000000E+00 -0.00000000000E+00 -0.42121328422E+02  0.42121328422E+02  0.00000000000E+00 0. -1.
         25    2    1    2    0    0 -0.50475496871E+02  0.63576888796E+02  0.19816576868E+03  0.24799848423E+03  0.12507509637E+03 0.  0.
          5    1    3    3  502    0 -0.70874367039E+02  0.34423995801E+02  0.19693312246E+03  0.21215163094E+03  0.41800000000E+01 0. -1.
         -5    1    3    3    0  502  0.20398870167E+02  0.29152892995E+02  0.12326462181E+01  0.35846853290E+02  0.41800000000E+01 0. -1.
        -11    1    1    2    0    0 -0.11521455259E+02 -0.58498634720E+02  0.10907583698E+03  0.12430757180E+03  0.00000000000E+00 0.  1.
         11    1    1    2    0    0  0.61996952130E+02 -0.50782540762E+01  0.91291308743E+02  0.11046951521E+03  0.00000000000E+00 0. -1.
</event>
<event>
 7    1  0.2899775E-009  0.1023199E+03  0.7561462E-02  0.1275492E+00
         -1   -1    0    0    0  501 -0.00000000000E+00  0.00000000000E+00  0.40421527697E+02  0.40421527697E+02  0.00000000000E+00 0.  1.
          1   -1    0    0  501    0  0.00000000000E+00 -0.00000000000E+00 -0.51946074827E+03  0.51946074827E+03  0.00000000000E+00 0. -1.
         25    2    1    2    0    0 -0.70337714580E+02 -0.38636510456E+02 -0.36119301039E+03  0.39057303458E+03  0.12508689201E+03 0.  0.
          5    1    3    3  502    0 -0.18897850241E+02  0.21004455189E+01 -0.30038424420E+03  0.30101446340E+03  0.41800000000E+01 0. -1.
         -5    1    3    3    0  502 -0.51439864339E+02 -0.40736955975E+02 -0.60808766189E+02  0.89558571174E+02  0.41800000000E+01 0. -1.
        -11    1    1    2    0    0  0.66691229004E+02 -0.12755975035E+02 -0.51042896790E+02  0.84945937148E+02  0.00000000000E+00 0. -1.
         11    1    1    2    0    0  0.36464855759E+01  0.51392485491E+02 -0.66803313396E+02  0.84363304242E+02  0.00000000000E+00 0.  1.
</event>
<event>
 7    1  0.2899775E-009  0.1103758E+03  0.7561462E-02  0.1259876E+00
          1   -1    0    0  501    0  0.00000000000E+00  0.00000000000E+00  0.71329060830E+03  0.71329060830E+03  0.00000000000E+00 0. -1.
         -1   -1    0    0    0  501 -0.00000000000E+00 -0.00000000000E+00 -0.19640366974E+02  0.19640366974E+02  0.00000000000E+00 0.  1.
         25    2    1    2    0    0  0.17442811296E+02  0.44646333279E+02  0.36784550030E+03  0.39147871867E+03  0.12509088033E+03 0.  0.
          5    1    3    3  502    0  0.67073368431E+02  0.43697897335E+02  0.27049496816E+03  0.28212292212E+03  0.41800000000E+01 0. -1.
         -5    1    3    3    0  502 -0.49630557135E+02  0.94843594450E+00  0.97350532136E+02  0.10935579655E+03  0.41800000000E+01 0. -1.
        -11    1    1    2    0    0 -0.48232069750E+02 -0.26370932377E+02  0.11305557698E+03  0.12571126487E+03  0.00000000000E+00 0.  1.
         11    1    1    2    0    0  0.30789258454E+02 -0.18275400902E+02  0.21274916405E+03  0.21574099174E+03  0.00000000000E+00 0. -1.
</event>
<event>
 7    1  0.2899775E-009  0.9872830E+02  0.7561462E-02  0.1282993E+00
          2   -1    0    0  501    0  0.00000000000E+00  0.00000000000E+00  0.42684277398E+03  0.42684277398E+03  0.00000000000E+00 0. -1.
         -2   -1    0    0    0  501 -0.00000000000E+00 -0.00000000000E+00 -0.32798448196E+02  0.32798448196E+02  0.00000000000E+00 0.  1.
         25    2    1    2    0    0  0.24149648284E+02  0.40076744558E+01  0.15108606352E+03  0.19767208868E+03  0.12509192254E+03 0.  0.
          5    1    3    3  502    0  0.73022011783E+02  0.19642501687E+02  0.95952295661E+02  0.12223893619E+03  0.41800000000E+01 0. -1.
         -5    1    3    3    0  502 -0.48872363499E+02 -0.15634827231E+02  0.55133767861E+02  0.75433152493E+02  0.41800000000E+01 0. -1.
        -11    1    1    2    0    0 -0.45576789775E+02  0.70666075100E+01  0.23001998544E+03  0.23459832568E+03  0.00000000000E+00 0. -1.
         11    1    1    2    0    0  0.21427141491E+02 -0.11074281966E+02  0.12938276817E+02  0.27370807817E+02  0.00000000000E+00 0.  1.
</event>
<event>
 7    1  0.2899775E-009  0.1004412E+03  0.7561462E-02  0.1279371E+00
          1   -1    0    0  501    0  0.00000000000E+00  0.00000000000E+00  0.51170286511E+03  0.51170286511E+03  0.00000000000E+00 0. -1.
         -1   -1    0    0    0  501 -0.00000000000E+00 -0.00000000000E+00 -0.24851570828E+02  0.24851570828E+02  0.00000000000E+00 0.  1.
         25    2    1    2    0    0  0.19999322970E+02  0.23988992054E+02  0.29989102341E+03  0.32642974717E+03  0.12508520800E+03 0.  0.
          5    1    3    3  502    0 -0.38592274330E+02  0.34135854258E+02  0.59780711780E+02  0.79030538938E+02  0.41800000000E+01 0. -1.
         -5    1    3    3    0  502  0.58591597300E+02 -0.10146862204E+02  0.24011031163E+03  0.24739920824E+03  0.41800000000E+01 0. -1.
        -11    1    1    2    0    0 -0.11513706861E+02  0.31451896012E+02  0.10938533949E+03  0.11439816303E+03  0.00000000000E+00 0. -1.
         11    1    1    2    0    0 -0.84856161088E+01 -0.55440888065E+02  0.77574931387E+02  0.95726525738E+02  0.00000000000E+00 0.  1.
</event>
<event>
 7    1  0.2899775E-009  0.9708373E+02  0.7561462E-02  0.1286551E+00
         -2   -1    0    0    0  501 -0.00000000000E+00  0.00000000000E+00  0.25756455935E+03  0.25756455935E+03  0.00000000000E+00 0.  1.
          2   -1    0    0  501    0  0.00000000000E+00 -0.00000000000E+00 -0.64338616865E+02  0.64338616865E+02  0.00000000000E+00 0. -1.
         25    2    1    2    0    0  0.66690580114E+02 -0.53751966393E+01  0.84348593270E+02  0.16504165931E+03  0.12509011914E+03 0.  0.
          5    1    3    3  502    0  0.13568990777E+01 -0.15193335960E+02 -0.29427342158E+02  0.33408374687E+02  0.41800000000E+01 0.  1.
         -5    1    3    3    0  502  0.65333681037E+02  0.98181393205E+01  0.11377593543E+03  0.13163328462E+03  0.41800000000E+01 0.  1.
        -11    1    1    2    0    0  0.22349906626E+02 -0.36849995801E+01  0.29798168791E+02  0.37430314070E+02  0.00000000000E+00 0.  1.
         11    1    1    2    0    0 -0.89040486741E+02  0.90601962194E+01  0.79079180425E+02  0.11943120284E+03  0.00000000000E+00 0. -1.
</event>
<event>
 7    1  0.2899775E-009  0.9511587E+02  0.7561462E-02  0.1290915E+00
         -1   -1    0    0    0  501 -0.00000000000E+00  0.00000000000E+00  0.26914375878E+02  0.26914375878E+02  0.00000000000E+00 0.  1.
          1   -1    0    0  501    0  0.00000000000E+00 -0.00000000000E+00 -0.50281937031E+03  0.50281937031E+03  0.00000000000E+00 0. -1.
         25    2    1    2    0    0  0.12429529041E+02 -0.34174357700E+02 -0.31525053028E+03  0.34110599069E+03  0.12509204661E+03 0.  0.
          5    1    3    3  502    0  0.50457173356E+02 -0.21504199836E+02 -0.28617063028E+03  0.29140943531E+03  0.41800000000E+01 0.  1.
         -5    1    3    3    0  502 -0.38027644315E+02 -0.12670157864E+02 -0.29079900007E+02  0.49696555382E+02  0.41800000000E+01 0.  1.
        -11    1    1    2    0    0  0.35985728320E+02  0.29031496154E+02 -0.10471034258E+03  0.11446421386E+03  0.00000000000E+00 0. -1.
         11    1    1    2    0    0 -0.48415257361E+02  0.51428615454E+01 -0.55944121573E+02  0.74163541641E+02  0.00000000000E+00 0.  1.
</event>
<event>
 7    1  0.2899775E-009  0.9729665E+02  0.7561462E-02  0.1286086E+00
          1   -1    0    0  501    0  0.00000000000E+00  0.00000000000E+00  0.48754452435E+02  0.48754452435E+02  0.00000000000E+00 0. -1.
         -1   -1    0    0    0  501 -0.00000000000E+00 -0.00000000000E+00 -0.39274340349E+03  0.39274340349E+03  0.00000000000E+00 0.  1.
         25    2    1    2    0    0  0.66579691517E+02  0.24924397205E+02 -0.11129952637E+03  0.18190339096E+03  0.12508868125E+03 0.  0.
          5    1    3    3  502    0  0.52596512853E+02  0.42338825475E+02  0.66901344495E+00  0.67652710854E+02  0.41800000000E+01 0. -1.
         -5    1    3    3    0  502  0.13983178663E+02 -0.17414428270E+02 -0.11196853981E+03  0.11425068011E+03  0.41800000000E+01 0. -1.
        -11    1    1    2    0    0 -0.47893051418E+02  0.22746219719E+02 -0.62964685753E+02  0.82314558479E+02  0.00000000000E+00 0. -1.
         11    1    1    2    0    0 -0.18686640099E+02 -0.47670616923E+02 -0.16972473893E+03  0.17727990648E+03  0.00000000000E+00 0.  1.
</event>
<event>
 7    1  0.2899775E-009  0.7798916E+02  0.7561462E-02  0.1334857E+00
         -2   -1    0    0    0  501 -0.00000000000E+00  0.00000000000E+00  0.26643504288E+02  0.26643504288E+02  0.00000000000E+00 0.  1.
          2   -1    0    0  501    0  0.00000000000E+00 -0.00000000000E+00 -0.52512049834E+03  0.52512049834E+03  0.00000000000E+00 0. -1.
         25    2    1    2    0    0  0.19114716157E+02 -0.13603010856E+02 -0.19426233102E+03  0.23224074758E+03  0.12508995685E+03 0.  0.
          5    1    3    3  502    0  0.16136900239E+02 -0.42630715534E+02 -0.19736172053E+03  0.20260034202E+03  0.41800000000E+01 0. -1.
         -5    1    3    3    0  502  0.29778159172E+01  0.29027704678E+02  0.30993895078E+01  0.29640405561E+02  0.41800000000E+01 0. -1.
        -11    1    1    2    0    0  0.19846900617E+02  0.31988156597E+02 -0.55232636533E+02  0.66841497328E+02  0.00000000000E+00 0.  1.
         11    1    1    2    0    0 -0.38961616774E+02 -0.18385145742E+02 -0.24898202650E+03  0.25268175772E+03  0.00000000000E+00 0. -1.
</event>
<event>
 7    1  0.2899775E-009  0.1400668E+03  0.7561462E-02  0.1213239E+00
         -3   -1    0    0    0  501 -0.00000000000E+00  0.00000000000E+00  0.67094443018E+02  0.67094443018E+02  0.00000000000E+00 0.  1.
          3   -1    0    0  501    0  0.00000000000E+00 -0.00000000000E+00 -0.57819596435E+03  0.57819596435E+03  0.00000000000E+00 0. -1.
         25    2    1    2    0    0 -0.69761466997E+02  0.85469547685E+02 -0.46694513251E+03  0.49584027415E+03  0.12509242516E+03 0.  0.
          5    1    3    3  502    0 -0.37336471454E+02  0.96433987432E+02 -0.18657063184E+03  0.21335322613E+03  0.41800000000E+01 0.  1.
         -5    1    3    3    0  502 -0.32424995543E+02 -0.10964439746E+02 -0.28037450067E+03  0.28248704803E+03  0.41800000000E+01 0.  1.
        -11    1    1    2    0    0  0.87938780370E+02 -0.87267731839E+02 -0.43025669280E+02  0.13114913012E+03  0.00000000000E+00 0. -1.
         11    1    1    2    0    0 -0.18177313373E+02  0.17981841538E+01 -0.11307195347E+01  0.18301003098E+02  0.00000000000E+00 0.  1.
</event>
<event>
 7    1  0.3591543E-009  0.1241121E+03  0.7561462E-02  0.1236463E+00
         -1   -1    0    0    0  501 -0.00000000000E+00  0.00000000000E+00  0.24088416611E+03  0.24088416611E+03  0.00000000000E+00 0.  1.
          1   -1    0    0  501    0  0.00000000000E+00 -0.00000000000E+00 -0.74750896598E+02  0.74750896598E+02  0.00000000000E+00 0. -1.
         25    2    1    2    0    0 -0.97370533884E+01 -0.65794907339E+02  0.14194672242E+03  0.20054538164E+03  0.12508316453E+03 0.  0.
          5    1    3    3  502    0 -0.64220011277E+02 -0.30746982256E+02  0.46601438831E+02  0.85198317280E+02  0.41800000000E+01 0.  1.
         -5    1    3    3    0  502  0.54482957888E+02 -0.35047925083E+02  0.95345283592E+02  0.11534706436E+03  0.41800000000E+01 0.  1.
        -11    1    1    2    0    0 -0.39017468858E+02  0.43311744557E+02  0.69806782126E+01  0.58711157040E+02  0.00000000000E+00 0. -1.
         11    1    1    2    0    0  0.48754522246E+02  0.22483162782E+02  0.17205868879E+02  0.56378524032E+02  0.00000000000E+00 0.  1.
</event>
<event>
 7    1  0.2899775E-009  0.1694398E+03  0.7561462E-02  0.1178433E+00
         -3   -1    0    0    0  501 -0.00000000000E+00  0.00000000000E+00  0.86678122719E+02  0.86678122719E+02  0.00000000000E+00 0.  1.
          3   -1    0    0  501    0  0.00000000000E+00 -0.00000000000E+00 -0.35826020264E+03  0.35826020264E+03  0.00000000000E+00 0. -1.
         25    2    1    2    0    0 -0.10971024365E+03  0.77749051787E+02 -0.18942948803E+03  0.26386035646E+03  0.12512994911E+03 0.  0.
          5    1    3    3  502    0 -0.81983968545E+02 -0.14169278464E+02 -0.60035206415E+02  0.10268319220E+03  0.41800000000E+01 0. -1.
         -5    1    3    3    0  502 -0.27726275104E+02  0.91918330250E+02 -0.12939428161E+03  0.16117716427E+03  0.41800000000E+01 0. -1.
        -11    1    1    2    0    0  0.64285760892E+02  0.56236234667E+01 -0.19841436368E+02  0.67512715776E+02  0.00000000000E+00 0. -1.
         11    1    1    2    0    0  0.45424482758E+02 -0.83372675254E+02 -0.62311155528E+02  0.11356525312E+03  0.00000000000E+00 0.  1.
</event>
<event>
 7    1  0.2899775E-009  0.1413086E+03  0.7561462E-02  0.1211579E+00
          1   -1    0    0  501    0  0.00000000000E+00  0.00000000000E+00  0.14096210978E+03  0.14096210978E+03  0.00000000000E+00 0. -1.
         -1   -1    0    0    0  501 -0.00000000000E+00 -0.00000000000E+00 -0.16790730650E+03  0.16790730650E+03  0.00000000000E+00 0.  1.
         25    2    1    2    0    0  0.94818626131E+02  0.52925307309E+02 -0.68901588554E+01  0.16579125041E+03  0.12509038496E+03 0.  0.
          5    1    3    3  502    0  0.48165744063E+02  0.91848483448E+02 -0.12898985569E+02  0.10459416352E+03  0.41800000000E+01 0. -1.
         -5    1    3    3    0  502  0.46652882068E+02 -0.38923176138E+02  0.60088267136E+01  0.61197086895E+02  0.41800000000E+01 0. -1.
        -11    1    1    2    0    0 -0.96512706200E+02 -0.39328499922E+02 -0.45859209519E+02  0.11386176031E+03  0.00000000000E+00 0.  1.
         11    1    1    2    0    0  0.16940800690E+01 -0.13596807388E+02  0.25804171660E+02  0.29216405553E+02  0.00000000000E+00 0. -1.
</event>
<event>
 7    1  0.3064263E-009  0.1204734E+03  0.7561462E-02  0.1242318E+00
          1   -1    0    0  501    0  0.00000000000E+00  0.00000000000E+00  0.12104174972E+03  0.12104174972E+03  0.00000000000E+00 0. -1.
         -1   -1    0    0    0  501 -0.00000000000E+00 -0.00000000000E+00 -0.14293297347E+03  0.14293297347E+03  0.00000000000E+00 0.  1.
         25    2    1    2    0    0 -0.72726630543E+02 -0.17781183987E+01  0.35123723879E+01  0.14474928760E+03  0.12509074708E+03 0.  0.
          5    1    3    3  502    0 -0.69479804935E+02  0.44624670949E+02 -0.29246694354E+02  0.87702030089E+02  0.41800000000E+01 0. -1.
         -5    1    3    3    0  502 -0.32468256079E+01 -0.46402789347E+02  0.32759066742E+02  0.57047257511E+02  0.41800000000E+01 0. -1.
        -11    1    1    2    0    0 -0.19352884904E+02  0.22282378765E+01 -0.18534179997E+02  0.26888938735E+02  0.00000000000E+00 0.  1.
         11    1    1    2    0    0  0.92079515447E+02 -0.45011947780E+00 -0.68694161380E+01  0.92336496850E+02  0.00000000000E+00 0. -1.
</event>
<event>
 7    1  0.2899775E-009  0.1538113E+03  0.7561462E-02  0.1195866E+00
          2   -1    0    0  501    0  0.00000000000E+00  0.00000000000E+00  0.76911900011E+02  0.76911900011E+02  0.00000000000E+00 0. -1.
         -2   -1    0    0    0  501 -0.00000000000E+00 -0.00000000000E+00 -0.54745514321E+03  0.54745514321E+03  0.00000000000E+00 0.  1.
         25    2    1    2    0    0 -0.26407385471E+02 -0.11801395998E+03 -0.43787940981E+03  0.47117947362E+03  0.12508826509E+03 0.  0.
          5    1    3    3  502    0  0.38658488437E+02 -0.87697533427E+01 -0.17020085702E+03  0.17480615387E+03  0.41800000000E+01 0.  1.
         -5    1    3    3    0  502 -0.65065873908E+02 -0.10924420663E+03 -0.26767855279E+03  0.29637331974E+03  0.41800000000E+01 0.  1.
        -11    1    1    2    0    0  0.51362373492E+02  0.79447799075E+02 -0.46222138235E+02  0.10529260302E+03  0.00000000000E+00 0.  1.
         11    1    1    2    0    0 -0.24954988021E+02  0.38566160903E+02  0.13558304844E+02  0.47894966585E+02  0.00000000000E+00 0. -1.
</event>
<event>
 7    1  0.2899775E-009  0.1995860E+03  0.7561462E-02  0.1150089E+00
          2   -1    0    0  501    0  0.00000000000E+00  0.00000000000E+00  0.95708672855E+03  0.95708672855E+03  0.00000000000E+00 0.  1.
         -2   -1    0    0    0  501 -0.00000000000E+00 -0.00000000000E+00 -0.49472899719E+02  0.49472899719E+02  0.00000000000E+00 0. -1.
         25    2    1    2    0    0  0.36599796779E+02 -0.18350139095E+03  0.42236279163E+03  0.47859502969E+03  0.12510223452E+03 0.  0.
          5    1    3    3  502    0  0.61433006696E+01 -0.14929183731E+03  0.40086241452E+03  0.42782466105E+03  0.41800000000E+01 0.  1.
         -5    1    3    3    0  502  0.30456496109E+02 -0.34209553635E+02  0.21500377113E+02  0.50770368634E+02  0.41800000000E+01 0.  1.
        -11    1    1    2    0    0 -0.57790305739E+02  0.83934327121E+02  0.29633691573E+03  0.31336920450E+03  0.00000000000E+00 0.  1.
         11    1    1    2    0    0  0.21190508960E+02  0.99567063829E+02  0.18891412148E+03  0.21459539408E+03  0.00000000000E+00 0. -1.
</event>
<event>
 7    1  0.2899775E-009  0.1366980E+03  0.7561462E-02  0.1217842E+00
         -2   -1    0    0    0  501 -0.00000000000E+00  0.00000000000E+00  0.36961573092E+02  0.36961573092E+02  0.00000000000E+00 0. -1.
          2   -1    0    0  501    0  0.00000000000E+00 -0.00000000000E+00 -0.58805668611E+03  0.58805668611E+03  0.00000000000E+00 0.  1.
         25    2    1    2    0    0 -0.86720444504E+02  0.41695546747E+02 -0.24136907763E+03  0.28838570054E+03  0.12509327131E+03 0.  0.
          5    1    3    3  502    0 -0.44375970643E+02  0.75409380233E+02 -0.20530283732E+03  0.22320960734E+03  0.41800000000E+01 0. -1.
         -5    1    3    3    0  502 -0.42344473861E+02 -0.33713833486E+02 -0.36066240313E+02  0.65176093203E+02  0.41800000000E+01 0. -1.
        -11    1    1    2    0    0  0.41221161311E+02  0.26882324006E+02 -0.10400579620E+03  0.11506106694E+03  0.00000000000E+00 0.  1.
         11    1    1    2    0    0  0.45499283193E+02 -0.68577870753E+02 -0.20572023919E+03  0.22157149171E+03  0.00000000000E+00 0. -1.
</event>
<event>
 7    1  0.2899775E-009  0.1658542E+03  0.7561462E-02  0.1182242E+00
          2   -1    0    0  501    0  0.00000000000E+00  0.00000000000E+00  0.46609398295E+02  0.46609398295E+02  0.00000000000E+00 0.  1.
         -2   -1    0    0    0  501 -0.00000000000E+00 -0.00000000000E+00 -0.76029322586E+03  0.76029322586E+03  0.00000000000E+00 0. -1.
         25    2    1    2    0    0 -0.14264647344E+02 -0.13992410330E+03 -0.23910041797E+03  0.30428713541E+03  0.12505765092E+03 0.  0.
          5    1    3    3  502    0 -0.14970603984E+02 -0.16338004356E+03 -0.21379330956E+03  0.26952218690E+03  0.41800000000E+01 0.  1.
         -5    1    3    3    0  502  0.70595664015E+00  0.23455940267E+02 -0.25307108416E+02  0.34764948511E+02  0.41800000000E+01 0.  1.
        -11    1    1    2    0    0  0.15214643956E+02  0.28333744229E+02 -0.29113974517E+02  0.43380986214E+02  0.00000000000E+00 0.  1.
         11    1    1    2    0    0 -0.94999661184E+00  0.11159035907E+03 -0.44546943508E+03  0.45923450254E+03  0.00000000000E+00 0. -1.
</event>
<event>
 7    1  0.2899775E-009  0.1094498E+03  0.7561462E-02  0.1261592E+00
          2   -1    0    0  501    0  0.00000000000E+00  0.00000000000E+00  0.30282259508E+03  0.30282259508E+03  0.00000000000E+00 0. -1.
         -2   -1    0    0    0  501 -0.00000000000E+00 -0.00000000000E+00 -0.40357631282E+02  0.40357631282E+02  0.00000000000E+00 0.  1.
         25    2    1    2    0    0  0.26968883564E+02  0.10468861754E+01  0.16080108038E+03  0.20553008779E+03  0.12512878518E+03 0.  0.
          5    1    3    3  502    0  0.64423093948E+02 -0.35983402995E+02  0.10770469564E+03  0.13062509019E+03  0.41800000000E+01 0. -1.
         -5    1    3    3    0  502 -0.37454210385E+02  0.37030289170E+02  0.53096384743E+02  0.74904997593E+02  0.41800000000E+01 0. -1.
        -11    1    1    2    0    0  0.12646223034E+02 -0.36725377069E+02  0.34953469469E+02  0.52253471711E+02  0.00000000000E+00 0.  1.
         11    1    1    2    0    0 -0.39615106597E+02  0.35678490894E+02  0.66710413949E+02  0.85396666870E+02  0.00000000000E+00 0. -1.
</event>
<event>
 7    1  0.2899775E-009  0.1146718E+03  0.7561462E-02  0.1252155E+00
          1   -1    0    0  501    0  0.00000000000E+00  0.00000000000E+00  0.12329963918E+03  0.12329963918E+03  0.00000000000E+00 0. -1.
         -1   -1    0    0    0  501 -0.00000000000E+00 -0.00000000000E+00 -0.15133773098E+03  0.15133773098E+03  0.00000000000E+00 0.  1.
         25    2    1    2    0    0 -0.18732628884E+02 -0.82279523344E+02 -0.24269210514E+02  0.15282999050E+03  0.12508868882E+03 0.  0.
          5    1    3    3  502    0 -0.32709659048E+02 -0.10882814266E+03  0.47538018916E+00  0.11371536755E+03  0.41800000000E+01 0. -1.
         -5    1    3    3    0  502  0.13977030164E+02  0.26548619316E+02 -0.24744590703E+02  0.39114622955E+02  0.41800000000E+01 0. -1.
        -11    1    1    2    0    0  0.93799741644E+01  0.17228935571E+02 -0.41588420164E+02  0.45982788388E+02  0.00000000000E+00 0.  1.
         11    1    1    2    0    0  0.93526547195E+01  0.65050587773E+02  0.37819538874E+02  0.75824591266E+02  0.00000000000E+00 0. -1.
</event>
<event>
 7    1  0.2899775E-009  0.1340101E+03  0.7561462E-02  0.1221624E+00
         -1   -1    0    0    0  501 -0.00000000000E+00  0.00000000000E+00  0.54305075025E+02  0.54305075025E+02  0.00000000000E+00 0.  1.
          1   -1    0    0  501    0  0.00000000000E+00 -0.00000000000E+00 -0.10710667250E+04  0.10710667250E+04  0.00000000000E+00 0. -1.
         25    2    1    2    0    0  0.91221318086E+02  0.88451460085E+02 -0.92928877481E+03  0.94624009636E+03  0.12509078024E+03 0.  0.
          5    1    3    3  502    0  0.91812093351E+02  0.88834061082E+02 -0.47401766861E+03  0.49094925750E+03  0.41800000000E+01 0. -1.
         -5    1    3    3    0  502 -0.59077526526E+00 -0.38260099672E+00 -0.45527110620E+03  0.45529083885E+03  0.41800000000E+01 0. -1.
        -11    1    1    2    0    0 -0.10979728768E+02 -0.41636492857E+02 -0.73503568205E+02  0.85187596046E+02  0.00000000000E+00 0. -1.
         11    1    1    2    0    0 -0.80241589317E+02 -0.46814967228E+02 -0.13969306915E+02  0.93944107577E+02  0.00000000000E+00 0.  1.
</event>
<event>
 7    1  0.2981412E-009  0.7637275E+02  0.7561462E-02  0.1339672E+00
          2   -1    0    0  501    0  0.00000000000E+00  0.00000000000E+00  0.13464099865E+04  0.13464099865E+04  0.00000000000E+00 0. -1.
         -2   -1    0    0    0  501 -0.00000000000E+00 -0.00000000000E+00 -0.12312806966E+02  0.12312806966E+02  0.00000000000E+00 0.  1.
         25    2    1    2    0    0 -0.47468826818E+02 -0.12505360708E+02  0.10040256865E+04  0.10129807661E+04  0.12511106908E+03 0.  0.
          5    1    3    3  502    0 -0.51809707624E+02 -0.95849502055E+01  0.15197324764E+03  0.16090201202E+03  0.41800000000E+01 0.  1.
         -5    1    3    3    0  502  0.43408808061E+01 -0.29204105022E+01  0.85205243891E+03  0.85207875405E+03  0.41800000000E+01 0.  1.
        -11    1    1    2    0    0 -0.22424882287E+02  0.41094811346E+01  0.30901805692E+02  0.38401624651E+02  0.00000000000E+00 0.  1.
         11    1    1    2    0    0  0.69893709105E+02  0.83958795731E+01  0.29916968729E+03  0.30734040274E+03  0.00000000000E+00 0. -1.
</event>
<event>
 7    1  0.2899775E-009  0.1312912E+03  0.7561462E-02  0.1225552E+00
          1   -1    0    0  501    0  0.00000000000E+00  0.00000000000E+00  0.37429529348E+03  0.37429529348E+03  0.00000000000E+00 0. -1.
         -1   -1    0    0    0  501 -0.00000000000E+00 -0.00000000000E+00 -0.52937046639E+02  0.52937046639E+02  0.00000000000E+00 0.  1.
         25    2    1    2    0    0 -0.79610389763E+02 -0.26039174975E+02  0.22394448274E+03  0.26984192134E+03  0.12509068059E+03 0.  0.
          5    1    3    3  502    0  0.32108720679E+02  0.83027011236E+01  0.55152204249E+02  0.64491416662E+02  0.41800000000E+01 0.  1.
         -5    1    3    3    0  502 -0.11171911044E+03 -0.34341876098E+02  0.16879227849E+03  0.20535050468E+03  0.41800000000E+01 0.  1.
        -11    1    1    2    0    0  0.64219581247E+02  0.51589115853E+02  0.97399794642E+02  0.12756297067E+03  0.00000000000E+00 0. -1.
         11    1    1    2    0    0  0.15390808517E+02 -0.25549940879E+02  0.13969458118E-01  0.29827448112E+02  0.00000000000E+00 0.  1.
</event>
<event>
 7    1  0.2899775E-009  0.1108076E+03  0.7561462E-02  0.1259082E+00
          1   -1    0    0  501    0  0.00000000000E+00  0.00000000000E+00  0.13375305490E+03  0.13375305490E+03  0.00000000000E+00 0. -1.
         -1   -1    0    0    0  501 -0.00000000000E+00 -0.00000000000E+00 -0.16466678828E+03  0.16466678828E+03  0.00000000000E+00 0.  1.
         25    2    1    2    0    0  0.39792370636E+02 -0.64255101421E+02 -0.86985294515E+02  0.17007851108E+03  0.12509239645E+03 0.  0.
          5    1    3    3  502    0 -0.66263312534E+01 -0.65003466857E+02  0.63197344475E+01  0.65778191012E+02  0.41800000000E+01 0.  1.
         -5    1    3    3    0  502  0.46418701889E+02  0.74836543633E+00 -0.93305028963E+02  0.10430032006E+03  0.41800000000E+01 0.  1.
        -11    1    1    2    0    0  0.12624630552E+02  0.54838158927E+02  0.49002518607E+02  0.74618039380E+02  0.00000000000E+00 0. -1.
         11    1    1    2    0    0 -0.52417001188E+02  0.94169424944E+01  0.70690425250E+01  0.53723292730E+02  0.00000000000E+00 0.  1.
</event>
<event>
 7    1  0.2899775E-009  0.8174747E+02  0.7561462E-02  0.1324164E+00
          4   -1    0    0  501    0  0.00000000000E+00  0.00000000000E+00  0.71935359157E+02  0.71935359157E+02  0.00000000000E+00 0. -1.
         -4   -1    0    0    0  501 -0.00000000000E+00 -0.00000000000E+00 -0.19876161028E+03  0.19876161028E+03  0.00000000000E+00 0.  1.
         25    2    1    2    0    0  0.39994984767E+02  0.29190634147E+02 -0.63252958374E+02  0.14866043175E+03  0.12508914940E+03 0.  0.
          5    1    3    3  502    0 -0.10433766364E+02  0.10024402008E+02 -0.87914777849E+02  0.89195474551E+02  0.41800000000E+01 0.  1.
         -5    1    3    3    0  502  0.50428751131E+02  0.19166232139E+02  0.24661819475E+02  0.59464957201E+02  0.41800000000E+01 0.  1.
        -11    1    1    2    0    0  0.24097724409E+02 -0.49945739545E+00 -0.42262543459E+02  0.48652567857E+02  0.00000000000E+00 0.  1.
         11    1    1    2    0    0 -0.64092709177E+02 -0.28691176752E+02 -0.21310749293E+02  0.73383969833E+02  0.00000000000E+00 0. -1.
</event>
<event>
 7    1  0.2899775E-009  0.1890985E+03  0.7561462E-02  0.1159277E+00
         -2   -1    0    0    0  501 -0.00000000000E+00  0.00000000000E+00  0.37700722179E+03  0.37700722179E+03  0.00000000000E+00 0.  1.
          2   -1    0    0  501    0  0.00000000000E+00 -0.00000000000E+00 -0.10903293028E+03  0.10903293028E+03  0.00000000000E+00 0. -1.
         25    2    1    2    0    0 -0.97277494878E+02 -0.13269203035E+03  0.85154406492E+02  0.22353567616E+03  0.12508732807E+03 0.  0.
          5    1    3    3  502    0 -0.29992376511E+02  0.13872132319E+02 -0.11777581286E+02  0.35329343679E+02  0.41800000000E+01 0. -1.
         -5    1    3    3    0  502 -0.67285118366E+02 -0.14656416267E+03  0.96931987778E+02  0.18820633248E+03  0.41800000000E+01 0. -1.
        -11    1    1    2    0    0  0.11091374647E+03  0.10516902837E+03  0.17160398923E+03  0.22980494513E+03  0.00000000000E+00 0.  1.
         11    1    1    2    0    0 -0.13636251597E+02  0.27523001975E+02  0.11215895788E+02  0.32699530786E+02  0.00000000000E+00 0. -1.
</event>
<event>
 7    1  0.2899775E-009  0.1774942E+03  0.7561462E-02  0.1170250E+00
          1   -1    0    0  501    0  0.00000000000E+00  0.00000000000E+00  0.14855877203E+03  0.14855877203E+03  0.00000000000E+00 0. -1.
         -1   -1    0    0    0  501 -0.00000000000E+00 -0.00000000000E+00 -0.26245835457E+03  0.26245835457E+03  0.00000000000E+00 0.  1.
         25    2    1    2    0    0 -0.16274373879E+03 -0.28464194061E+02 -0.58881847692E+02  0.21542977912E+03  0.12508870006E+03 0.  0.
          5    1    3    3  502    0 -0.12320479479E+03 -0.37393754537E+02 -0.95724547931E+02  0.16049416131E+03  0.41800000000E+01 0. -1.
         -5    1    3    3    0  502 -0.39538943998E+02  0.89295604769E+01  0.36842700239E+02  0.54935617806E+02  0.41800000000E+01 0. -1.
        -11    1    1    2    0    0  0.51236356003E+02  0.50290070045E+02 -0.66593901330E+01  0.72101337009E+02  0.00000000000E+00 0. -1.
         11    1    1    2    0    0  0.11150738279E+03 -0.21825875984E+02 -0.48358344722E+02  0.12348601047E+03  0.00000000000E+00 0.  1.
</event>
<event>
 7    1  0.2899775E-009  0.1205164E+03  0.7561462E-02  0.1242248E+00
         -4   -1    0    0    0  501 -0.00000000000E+00  0.00000000000E+00  0.24216449521E+03  0.24216449521E+03  0.00000000000E+00 0.  1.
          4   -1    0    0  501    0  0.00000000000E+00 -0.00000000000E+00 -0.81135012174E+02  0.81135012174E+02  0.00000000000E+00 0. -1.
         25    2    1    2    0    0  0.79490239867E+02  0.94921499941E+01  0.12026024610E+03  0.19109776140E+03  0.12508808287E+03 0.  0.
          5    1    3    3  502    0  0.10549874831E+03 -0.21592505344E+02  0.87265101268E+02  0.13866828218E+03  0.41800000000E+01 0. -1.
         -5    1    3    3    0  502 -0.26008508448E+02  0.31084655338E+02  0.32995144827E+02  0.52429479220E+02  0.41800000000E+01 0. -1.
        -11    1    1    2    0    0 -0.47991978982E+02 -0.28417256515E+02  0.66908769032E+02  0.87106566272E+02  0.00000000000E+00 0.  1.
         11    1    1    2    0    0 -0.31498260886E+02  0.18925106521E+02 -0.26139532089E+02  0.45095179714E+02  0.00000000000E+00 0. -1.
</event>
<event>
 7    1  0.2899775E-009  0.1497868E+03  0.7561462E-02  0.1200735E+00
          1   -1    0    0  501    0  0.00000000000E+00  0.00000000000E+00  0.14830163848E+03  0.14830163848E+03  0.00000000000E+00 0. -1.
         -1   -1    0    0    0  501 -0.00000000000E+00 -0.00000000000E+00 -0.17260234784E+03  0.17260234784E+03  0.00000000000E+00 0.  1.
         25    2    1    2    0    0  0.70857011115E+02 -0.81967880599E+02 -0.56799677288E+02  0.17496815549E+03  0.12509277605E+03 0.  0.
          5    1    3    3  502    0  0.41656032123E+02  0.28656121329E+02 -0.22080706025E+02  0.55330175135E+02  0.41800000000E+01 0. -1.
         -5    1    3    3    0  502  0.29200978992E+02 -0.11062400193E+03 -0.34718971263E+02  0.11963798035E+03  0.41800000000E+01 0. -1.
        -11    1    1    2    0    0  0.13189005511E+02 -0.43370957662E+01  0.20655727912E+02  0.24888136966E+02  0.00000000000E+00 0. -1.
         11    1    1    2    0    0 -0.84046016626E+02  0.86304976365E+02  0.11843240018E+02  0.12104769387E+03  0.00000000000E+00 0.  1.
</event>
<event>
 7    1  0.2899775E-009  0.1011823E+03  0.7561462E-02  0.1277829E+00
         -1   -1    0    0    0  501 -0.00000000000E+00  0.00000000000E+00  0.13995752958E+02  0.13995752958E+02  0.00000000000E+00 0.  1.
          1   -1    0    0  501    0  0.00000000000E+00 -0.00000000000E+00 -0.11345115459E+04  0.11345115459E+04  0.00000000000E+00 0. -1.
         25    2    1    2    0    0  0.45980316229E+02  0.34924512744E+02 -0.73476855201E+03  0.74757385371E+03  0.12509168900E+03 0.  0.
          5    1    3    3  502    0  0.98506270038E+01 -0.24291772004E+02 -0.32898628592E+02  0.42271943446E+02  0.41800000000E+01 0. -1.
         -5    1    3    3    0  502  0.36129689225E+02  0.59216284748E+02 -0.70186992342E+03  0.70530191026E+03  0.41800000000E+01 0. -1.
        -11    1    1    2    0    0 -0.73036595856E+02 -0.21577684483E+02 -0.31395332498E+03  0.32305824718E+03  0.00000000000E+00 0. -1.
         11    1    1    2    0    0  0.27056279628E+02 -0.13346828262E+02 -0.71793915986E+02  0.77875198007E+02  0.00000000000E+00 0.  1.
</event>
<event>
 7    1  0.2899775E-009  0.1085690E+03  0.7561462E-02  0.1263243E+00
         -1   -1    0    0    0  501 -0.00000000000E+00  0.00000000000E+00  0.54633004348E+02  0.54633004348E+02  0.00000000000E+00 0.  1.
          1   -1    0    0  501    0  0.00000000000E+00 -0.00000000000E+00 -0.25139957905E+03  0.25139957905E+03  0.00000000000E+00 0. -1.
         25    2    1    2    0    0 -0.42264263594E+02  0.19451916964E+02 -0.97353603017E+02  0.16520091597E+03  0.12509585752E+03 0.  0.
          5    1    3    3  502    0  0.36554061677E+02 -0.19533273320E+02 -0.13940109097E+02  0.43926611903E+02  0.41800000000E+01 0. -1.
         -5    1    3    3    0  502 -0.78818325271E+02  0.38985190284E+02 -0.83413493920E+02  0.12127430407E+03  0.41800000000E+01 0. -1.
        -11    1    1    2    0    0  0.47130396976E+02 -0.42761235334E+02 -0.36044214098E+02  0.73136741358E+02  0.00000000000E+00 0.  1.
         11    1    1    2    0    0 -0.48661333823E+01  0.23309318370E+02 -0.63368757589E+02  0.67694926068E+02  0.00000000000E+00 0. -1.
</event>
<event>
 7    1  0.2899775E-009  0.1078161E+03  0.7561462E-02  0.1264668E+00
         -2   -1    0    0    0  501 -0.00000000000E+00  0.00000000000E+00  0.15314842744E+03  0.15314842744E+03  0.00000000000E+00 0. -1.
          2   -1    0    0  501    0  0.00000000000E+00 -0.00000000000E+00 -0.14743228485E+03  0.14743228485E+03  0.00000000000E+00 0.  1.
         25    2    1    2    0    0  0.62113085008E+02  0.14770092866E+02  0.86951567454E+02  0.16518144030E+03  0.12509253440E+03 0.  0.
          5    1    3    3  502    0  0.20534480240E+02 -0.51426401786E+02  0.61507404458E+02  0.82867200282E+02  0.41800000000E+01 0. -1.
         -5    1    3    3    0  502  0.41578604768E+02  0.66196494652E+02  0.25444162996E+02  0.82314240015E+02  0.41800000000E+01 0. -1.
        -11    1    1    2    0    0 -0.44729566814E+02  0.15139994849E+02 -0.12850399607E+00  0.47222559277E+02  0.00000000000E+00 0.  1.
         11    1    1    2    0    0 -0.17383518194E+02 -0.29910087715E+02 -0.81106920873E+02  0.88176712716E+02  0.00000000000E+00 0. -1.
</event>
<event>
 7    1  0.2899775E-009  0.1163897E+03  0.7561462E-02  0.1249175E+00
          2   -1    0    0  501    0  0.00000000000E+00  0.00000000000E+00  0.11362612829E+04  0.11362612829E+04  0.00000000000E+00 0. -1.
         -2   -1    0    0    0  501 -0.00000000000E+00 -0.00000000000E+00 -0.21246778118E+02  0.21246778118E+02  0.00000000000E+00 0.  1.
         25    2    1    2    0    0  0.83048970390E+02 -0.40332219761E+02  0.82919929898E+03  0.84364879880E+03  0.12509196161E+03 0.  0.
          5    1    3    3  502    0  0.73717295480E+01 -0.29977833003E+02  0.39754800416E+02  0.50506726524E+02  0.41800000000E+01 0.  1.
         -5    1    3    3    0  502  0.75677240842E+02 -0.10354386758E+02  0.78944449856E+03  0.79314207228E+03  0.41800000000E+01 0.  1.
        -11    1    1    2    0    0 -0.31491535195E+02  0.61737952515E+02  0.11625569724E+03  0.13534651348E+03  0.00000000000E+00 0.  1.
         11    1    1    2    0    0 -0.51557435196E+02 -0.21405732755E+02  0.16955950858E+03  0.17851274876E+03  0.00000000000E+00 0. -1.
</event>
<event>
 7    1  0.2899775E-009  0.1151713E+03  0.7561462E-02  0.1251282E+00
          2   -1    0    0  501    0  0.00000000000E+00  0.00000000000E+00  0.37794280819E+03  0.37794280819E+03  0.00000000000E+00 0. -1.
         -2   -1    0    0    0  501 -0.00000000000E+00 -0.00000000000E+00 -0.37301917098E+02  0.37301917098E+02  0.00000000000E+00 0.  1.
         25    2    1    2    0    0  0.40141392104E+02  0.23233776462E+02  0.17091135488E+03  0.21681477351E+03  0.12508722980E+03 0.  0.
          5    1    3    3  502    0  0.82683569253E+02  0.16998299641E+02  0.14058297021E+03  0.16403218809E+03  0.41800000000E+01 0. -1.
         -5    1    3    3    0  502 -0.42542177148E+02  0.62354768212E+01  0.30328384667E+02  0.52782585426E+02  0.41800000000E+01 0. -1.
        -11    1    1    2    0    0 -0.53295357556E+02  0.20390315904E+02  0.99939683922E+02  0.11508301587E+03  0.00000000000E+00 0. -1.
         11    1    1    2    0    0  0.13153965452E+02 -0.43624092366E+02  0.69789852293E+02  0.83346935906E+02  0.00000000000E+00 0.  1.
</event>
<event>
 7    1  0.2899775E-009  0.1273422E+03  0.7561462E-02  0.1231454E+00
         -1   -1    0    0    0  501 -0.00000000000E+00  0.00000000000E+00  0.38067702120E+03  0.38067702120E+03  0.00000000000E+00 0.  1.
          1   -1    0    0  501    0  0.00000000000E+00 -0.00000000000E+00 -0.58983394660E+02  0.58983394660E+02  0.00000000000E+00 0. -1.
         25    2    1    2    0    0  0.23392545278E+02  0.78428519620E+02  0.81889036402E+02  0.17044275521E+03  0.12508666858E+03 0.  0.
          5    1    3    3  502    0 -0.45918505006E+01  0.10612690826E+03  0.75367114591E+02  0.13031377560E+03  0.41800000000E+01 0. -1.
         -5    1    3    3    0  502  0.27984395779E+02 -0.27698388642E+02  0.65219218108E+01  0.40128979611E+02  0.41800000000E+01 0. -1.
        -11    1    1    2    0    0  0.12835030872E+02  0.79602387067E+01  0.42050951079E+01  0.15677571324E+02  0.00000000000E+00 0. -1.
         11    1    1    2    0    0 -0.36227576150E+02 -0.86388758327E+02  0.23559949503E+03  0.25354008933E+03  0.00000000000E+00 0.  1.
</event>
<event>
 7    1  0.2899775E-009  0.1121252E+03  0.7561462E-02  0.1256684E+00
         -2   -1    0    0    0  501 -0.00000000000E+00  0.00000000000E+00  0.60513855884E+02  0.60513855884E+02  0.00000000000E+00 0. -1.
          2   -1    0    0  501    0  0.00000000000E+00 -0.00000000000E+00 -0.32889014610E+03  0.32889014610E+03  0.00000000000E+00 0.  1.
         25    2    1    2    0    0  0.31534599309E+02  0.81251966207E+02 -0.12723600881E+03  0.19857757658E+03  0.12509092301E+03 0.  0.
          5    1    3    3  502    0  0.21100004451E+02  0.97556685745E+01 -0.12389471313E+03  0.12612595133E+03  0.41800000000E+01 0.  1.
         -5    1    3    3    0  502  0.10434594858E+02  0.71496297632E+02 -0.33412956751E+01  0.72451625253E+02  0.41800000000E+01 0.  1.
        -11    1    1    2    0    0 -0.18071822645E+02  0.19513324935E+02 -0.25366136807E+02  0.36753251832E+02  0.00000000000E+00 0.  1.
         11    1    1    2    0    0 -0.13462776664E+02 -0.10076529114E+03 -0.11577414460E+03  0.15407317356E+03  0.00000000000E+00 0. -1.
</event>
<event>
 7    1  0.2899775E-009  0.1089230E+03  0.7561462E-02  0.1262577E+00
         -2   -1    0    0    0  501 -0.00000000000E+00  0.00000000000E+00  0.12768434495E+03  0.12768434495E+03  0.00000000000E+00 0.  1.
          2   -1    0    0  501    0  0.00000000000E+00 -0.00000000000E+00 -0.13778816243E+03  0.13778816243E+03  0.00000000000E+00 0. -1.
         25    2    1    2    0    0 -0.53596229006E+02  0.81729146947E+00  0.48039921440E+02  0.14431931033E+03  0.12508799124E+03 0.  0.
          5    1    3    3  502    0 -0.38132342263E+02 -0.47656034259E+02  0.66195015454E+02  0.90135595625E+02  0.41800000000E+01 0.  1.
         -5    1    3    3    0  502 -0.15463886743E+02  0.48473325728E+02 -0.18155094014E+02  0.54183714703E+02  0.41800000000E+01 0.  1.
        -11    1    1    2    0    0  0.66777260844E+02 -0.30294079978E+02 -0.33951709764E+02  0.80806264877E+02  0.00000000000E+00 0.  1.
         11    1    1    2    0    0 -0.13181031838E+02  0.29476788508E+02 -0.24192029161E+02  0.40346932176E+02  0.00000000000E+00 0. -1.
</event>
<event>
 7    1  0.2899775E-009  0.1496907E+03  0.7561462E-02  0.1200854E+00
         -2   -1    0    0    0  501 -0.00000000000E+00  0.00000000000E+00  0.22948957760E+02  0.22948957760E+02  0.00000000000E+00 0.  1.
          2   -1    0    0  501    0  0.00000000000E+00 -0.00000000000E+00 -0.12542125024E+04  0.12542125024E+04  0.00000000000E+00 0. -1.
         25    2    1    2    0    0 -0.87309268634E+02 -0.81066617623E+02 -0.85192085469E+03  0.86925897562E+03  0.12508924476E+03 0.  0.
          5    1    3    3  502    0  0.21503916109E+02 -0.55948123993E+01 -0.33036964268E+03  0.33114240674E+03  0.41800000000E+01 0. -1.
         -5    1    3    3    0  502 -0.10881318474E+03 -0.75471805224E+02 -0.52155121201E+03  0.53811656888E+03  0.41800000000E+01 0. -1.
        -11    1    1    2    0    0  0.19086296198E+02  0.73151707696E+02 -0.14262749099E+03  0.16142509169E+03  0.00000000000E+00 0.  1.
         11    1    1    2    0    0  0.68222972437E+02  0.79149099268E+01 -0.23671519895E+03  0.24647739284E+03  0.00000000000E+00 0. -1.
</event>
<event>
 7    1  0.2899775E-009  0.1053169E+03  0.7561462E-02  0.1269497E+00
         -2   -1    0    0    0  501 -0.00000000000E+00  0.00000000000E+00  0.14243166801E+02  0.14243166801E+02  0.00000000000E+00 0. -1.
          2   -1    0    0  501    0  0.00000000000E+00 -0.00000000000E+00 -0.10508012469E+04  0.10508012469E+04  0.00000000000E+00 0.  1.
         25    2    1    2    0    0  0.42870795486E+02  0.87776241148E+01 -0.68046030621E+03  0.69324490387E+03  0.12508923465E+03 0.  0.
          5    1    3    3  502    0  0.61666292596E+02 -0.30565346437E+02 -0.57398717155E+03  0.57811393129E+03  0.41800000000E+01 0.  1.
         -5    1    3    3    0  502 -0.18795497110E+02  0.39342970552E+02 -0.10647313466E+03  0.11513097258E+03  0.41800000000E+01 0.  1.
        -11    1    1    2    0    0 -0.62214334938E+01  0.37970959378E+02 -0.21946620657E+03  0.22281363472E+03  0.00000000000E+00 0.  1.
         11    1    1    2    0    0 -0.36649361993E+02 -0.46748583493E+02 -0.13663156727E+03  0.14898587506E+03  0.00000000000E+00 0. -1.
</event>
<event>
 7    1  0.2899775E-009  0.9045917E+02  0.7561462E-02  0.1301744E+00
         -2   -1    0    0    0  501 -0.00000000000E+00  0.00000000000E+00  0.76079867845E+02  0.76079867845E+02  0.00000000000E+00 0.  1.
          2   -1    0    0  501    0  0.00000000000E+00 -0.00000000000E+00 -0.17344295925E+03  0.17344295925E+03  0.00000000000E+00 0. -1.
         25    2    1    2    0    0 -0.96772616271E+01  0.13498464699E+02 -0.16378312016E+02  0.12724677379E+03  0.12509050481E+03 0.  0.
          5    1    3    3  502    0  0.45224837260E+02  0.35417197013E+02 -0.32096763819E+02  0.65934349144E+02  0.41800000000E+01 0.  1.
         -5    1    3    3    0  502 -0.54902098887E+02 -0.21918732314E+02  0.15718451803E+02  0.61312424642E+02  0.41800000000E+01 0.  1.
        -11    1    1    2    0    0  0.15134952490E+02  0.22793293225E+02  0.58724227471E+01  0.27983680098E+02  0.00000000000E+00 0.  1.
         11    1    1    2    0    0 -0.54576908627E+01 -0.36291757924E+02 -0.86857202135E+02  0.94292373209E+02  0.00000000000E+00 0. -1.
</event>
<event>
 7    1  0.2899775E-009  0.1074841E+03  0.7561462E-02  0.1265301E+00
         -2   -1    0    0    0  501 -0.00000000000E+00  0.00000000000E+00  0.50642568441E+02  0.50642568441E+02  0.00000000000E+00 0.  1.
          2   -1    0    0  501    0  0.00000000000E+00 -0.00000000000E+00 -0.23891172705E+03  0.23891172705E+03  0.00000000000E+00 0. -1.
         25    2    1    2    0    0  0.24785806263E+01  0.16920779589E+02 -0.13728282417E+03  0.18651162769E+03  0.12509019669E+03 0.  0.
          5    1    3    3  502    0 -0.44395271411E+02  0.50825229807E+02 -0.64499025454E+02  0.93443784133E+02  0.41800000000E+01 0. -1.
         -5    1    3    3    0  502  0.46873852037E+02 -0.33904450218E+02 -0.72783798714E+02  0.93067843558E+02  0.41800000000E+01 0. -1.
        -11    1    1    2    0    0  0.39462444520E+02 -0.24897892331E+02 -0.29980767866E+02  0.55462023150E+02  0.00000000000E+00 0. -1.
         11    1    1    2    0    0 -0.41941025146E+02  0.79771127424E+01 -0.21005566570E+02  0.47580644646E+02  0.00000000000E+00 0.  1.
</event>
<event>
 7    1  0.2899775E-009  0.1192674E+03  0.7561462E-02  0.1244310E+00
          1   -1    0    0  501    0  0.00000000000E+00  0.00000000000E+00  0.58701548497E+03  0.58701548497E+03  0.00000000000E+00 0.  1.
         -1   -1    0    0    0  501 -0.00000000000E+00 -0.00000000000E+00 -0.39444471408E+02  0.39444471408E+02  0.00000000000E+00 0. -1.
         25    2    1    2    0    0 -0.95544661566E+02  0.31440363013E+02  0.22363096513E+03  0.27527534245E+03  0.12509367215E+03 0.  0.
          5    1    3    3  502    0 -0.46633851946E+02  0.33272020207E+02  0.21845509792E+03  0.22588015779E+03  0.41800000000E+01 0.  1.
         -5    1    3    3    0  502 -0.48910809620E+02 -0.18316571941E+01  0.51758672135E+01  0.49395184655E+02  0.41800000000E+01 0.  1.
        -11    1    1    2    0    0  0.37869298177E+02  0.29547401335E+02  0.15925852440E+03  0.16634425228E+03  0.00000000000E+00 0.  1.
         11    1    1    2    0    0  0.57675363390E+02 -0.60987764348E+02  0.16468152402E+03  0.18484036166E+03  0.00000000000E+00 0. -1.
</event>
<event>
 7    1  0.2899775E-009  0.1041915E+03  0.7561462E-02  0.1271721E+00
         -1   -1    0    0    0  501 -0.00000000000E+00  0.00000000000E+00  0.42802470524E+03  0.42802470524E+03  0.00000000000E+00 0.  1.
          1   -1    0    0  501    0  0.00000000000E+00 -0.00000000000E+00 -0.31282555805E+02  0.31282555805E+02  0.00000000000E+00 0. -1.
         25    2    1    2    0    0 -0.33201956394E+02 -0.21902580968E+02  0.25331383425E+03  0.28530056171E+03  0.12508564638E+03 0.  0.
          5    1    3    3  502    0  0.45509621745E+02 -0.16344013667E+02  0.65346226646E+02  0.81399350065E+02  0.41800000000E+01 0. -1.
         -5    1    3    3    0  502 -0.78711578139E+02 -0.55585673004E+01  0.18796760760E+03  0.20390121165E+03  0.41800000000E+01 0. -1.
        -11    1    1    2    0    0  0.27715963678E+02  0.47312828296E+02  0.41367705437E+02  0.68687447304E+02  0.00000000000E+00 0. -1.
         11    1    1    2    0    0  0.54859927162E+01 -0.25410247328E+02  0.10206060975E+03  0.10531925202E+03  0.00000000000E+00 0.  1.
</event>
<event>
 7    1  0.2899775E-009  0.9671712E+02  0.7561462E-02  0.1287355E+00
         -1   -1    0    0    0  501 -0.00000000000E+00  0.00000000000E+00  0.39746562347E+02  0.39746562347E+02  0.00000000000E+00 0.  1.
          1   -1    0    0  501    0  0.00000000000E+00 -0.00000000000E+00 -0.44567302477E+03  0.44567302477E+03  0.00000000000E+00 0. -1.
         25    2    1    2    0    0  0.60357655826E+02 -0.35345050438E+02 -0.27691506533E+03  0.31180287341E+03  0.12508700673E+03 0.  0.
          5    1    3    3  502    0  0.77762717442E+02  0.18288329485E+01 -0.84140487343E+02  0.11466245621E+03  0.41800000000E+01 0. -1.
         -5    1    3    3    0  502 -0.17405061616E+02 -0.37173883386E+02 -0.19277457799E+03  0.19714041720E+03  0.41800000000E+01 0. -1.
        -11    1    1    2    0    0 -0.66638306984E+01  0.15783577157E+02  0.12364211422E+02  0.21128219791E+02  0.00000000000E+00 0.  1.
         11    1    1    2    0    0 -0.53693825127E+02  0.19561473281E+02 -0.14137560851E+03  0.15248849391E+03  0.00000000000E+00 0. -1.
</event>
<event>
 7    1  0.2899775E-009  0.1096834E+03  0.7561462E-02  0.1261157E+00
         -3   -1    0    0    0  501 -0.00000000000E+00  0.00000000000E+00  0.65137020145E+03  0.65137020145E+03  0.00000000000E+00 0.  1.
          3   -1    0    0  501    0  0.00000000000E+00 -0.00000000000E+00 -0.22167314982E+02  0.22167314982E+02  0.00000000000E+00 0. -1.
         25    2    1    2    0    0 -0.14411367339E+02  0.43321087107E+02  0.28915296775E+03  0.31834127440E+03  0.12508926465E+03 0.  0.
          5    1    3    3  502    0 -0.70222268126E+00  0.84048768514E+02  0.23143958303E+03  0.24626498249E+03  0.41800000000E+01 0.  1.
         -5    1    3    3    0  502 -0.13709144658E+02 -0.40727681407E+02  0.57713384716E+02  0.72076291910E+02  0.41800000000E+01 0.  1.
        -11    1    1    2    0    0  0.35787083701E+02  0.77980898150E+01  0.64892932777E+02  0.74515892862E+02  0.00000000000E+00 0. -1.
         11    1    1    2    0    0 -0.21375716362E+02 -0.51119176922E+02  0.27515698595E+03  0.28068034918E+03  0.00000000000E+00 0.  1.
</event>
<event>
 6    1  0.3174211E-009  0.1742759E+03  0.7561462E-02  0.1173461E+00
          2   -1    0    0  501    0  0.00000000000E+00  0.00000000000E+00  0.14131216717E+04  0.14131216717E+04  0.00000000000E+00 0. -1.
         -2   -1    0    0    0  501 -0.00000000000E+00 -0.00000000000E+00 -0.22085943741E+02  0.22085943741E+02  0.00000000000E+00 0.  1.
          5    1    1    2  502    0 -0.54911280094E+02  0.18085638481E+02  0.30893763094E+03  0.31432828573E+03  0.41800000000E+01 0.  1.
         -5    1    1    2    0  502 -0.39484708974E+02 -0.11977295802E+03  0.46074580614E+03  0.47771201993E+03  0.41800000000E+01 0.  1.
        -11    1    1    2    0    0  0.45773115318E+02 -0.60814293634E+01  0.13610921845E+03  0.14372849828E+03  0.00000000000E+00 0.  1.
         11    1    1    2    0    0  0.48622873750E+02  0.10776874890E+03  0.48524307246E+03  0.49943881153E+03  0.00000000000E+00 0. -1.
</event>
<event>
 7    1  0.2899775E-009  0.1036767E+03  0.7561462E-02  0.1272749E+00
          2   -1    0    0  501    0  0.00000000000E+00  0.00000000000E+00  0.55372468205E+02  0.55372468205E+02  0.00000000000E+00 0. -1.
         -2   -1    0    0    0  501 -0.00000000000E+00 -0.00000000000E+00 -0.35314741980E+03  0.35314741980E+03  0.00000000000E+00 0.  1.
         25    2    1    2    0    0 -0.74989926220E+02 -0.42436327725E+02 -0.17983941372E+03  0.23539154838E+03  0.12507052162E+03 0.  0.
          5    1    3    3  502    0 -0.93177507401E+02 -0.27850004392E+02 -0.62483091299E+02  0.11566883646E+03  0.41800000000E+01 0. -1.
         -5    1    3    3    0  502  0.18187581181E+02 -0.14586323333E+02 -0.11735632242E+03  0.11972271192E+03  0.41800000000E+01 0. -1.
        -11    1    1    2    0    0  0.57856261618E+02  0.35239337179E+02 -0.16125526152E+02  0.69636129178E+02  0.00000000000E+00 0. -1.
         11    1    1    2    0    0  0.17133664602E+02  0.71969905456E+01 -0.10181001172E+03  0.10349221044E+03  0.00000000000E+00 0.  1.
</event>
<event>
 7    1  0.2899775E-009  0.2037770E+03  0.7561462E-02  0.1146591E+00
          2   -1    0    0  501    0  0.00000000000E+00  0.00000000000E+00  0.75381531468E+02  0.75381531468E+02  0.00000000000E+00 0. -1.
         -2   -1    0    0    0  501 -0.00000000000E+00 -0.00000000000E+00 -0.65426744809E+03  0.65426744809E+03  0.00000000000E+00 0.  1.
         25    2    1    2    0    0  0.96089114608E+02 -0.14834302308E+03 -0.17499329786E+03  0.27840421431E+03  0.12508989491E+03 0.  0.
          5    1    3    3  502    0  0.43601189194E+02 -0.14764553035E+03 -0.16329532036E+03  0.22446180161E+03  0.41800000000E+01 0.  1.
         -5    1    3    3    0  502  0.52487925414E+02 -0.69749273007E+00 -0.11697977498E+02  0.53942412701E+02  0.41800000000E+01 0.  1.
        -11    1    1    2    0    0 -0.37182423806E+02 -0.41512280802E+01 -0.85834229447E+02  0.93633756090E+02  0.00000000000E+00 0.  1.
         11    1    1    2    0    0 -0.58906690802E+02  0.15249425116E+03 -0.31805838931E+03  0.35761100915E+03  0.00000000000E+00 0. -1.
</event>
<event>
 7    1  0.2899775E-009  0.1105124E+03  0.7561462E-02  0.1259624E+00
          1   -1    0    0  501    0  0.00000000000E+00  0.00000000000E+00  0.64607776338E+03  0.64607776338E+03  0.00000000000E+00 0. -1.
         -1   -1    0    0    0  501 -0.00000000000E+00 -0.00000000000E+00 -0.19418208370E+02  0.19418208370E+02  0.00000000000E+00 0.  1.
         25    2    1    2    0    0 -0.79638010748E+01 -0.16856083679E+02  0.37851346493E+03  0.39908309823E+03  0.12508927403E+03 0.  0.
          5    1    3    3  502    0  0.35807324359E+02  0.39375474053E+02  0.19499296825E+03  0.20216904437E+03  0.41800000000E+01 0. -1.
         -5    1    3    3    0  502 -0.43771125434E+02 -0.56231557731E+02  0.18352049668E+03  0.19691405386E+03  0.41800000000E+01 0. -1.
        -11    1    1    2    0    0  0.30513031814E+02 -0.30911445935E+02  0.96318634054E+02  0.10565908322E+03  0.00000000000E+00 0.  1.
         11    1    1    2    0    0 -0.22549230739E+02  0.47767529614E+02  0.15182745602E+03  0.16075379029E+03  0.00000000000E+00 0. -1.
</event>
<event>
 7    1  0.2899775E-009  0.9208206E+02  0.7561462E-02  0.1297887E+00
         -1   -1    0    0    0  501 -0.00000000000E+00  0.00000000000E+00  0.61231920272E+02  0.61231920272E+02  0.00000000000E+00 0.  1.
          1   -1    0    0  501    0  0.00000000000E+00 -0.00000000000E+00 -0.20357875030E+03  0.20357875030E+03  0.00000000000E+00 0. -1.
         25    2    1    2    0    0 -0.21395055393E+02 -0.21675684188E+02 -0.93573399379E+02  0.15916910215E+03  0.12510490928E+03 0.  0.
          5    1    3    3  502    0 -0.34552905175E+02 -0.69983695345E+02 -0.62676789877E+02  0.10018719109E+03  0.41800000000E+01 0. -1.
         -5    1    3    3    0  502  0.13157849782E+02  0.48308011157E+02 -0.30896609502E+02  0.58981911053E+02  0.41800000000E+01 0. -1.
        -11    1    1    2    0    0 -0.84766804049E+01  0.24337325105E+02 -0.66141793700E+02  0.70985184214E+02  0.00000000000E+00 0. -1.
         11    1    1    2    0    0  0.29871735798E+02 -0.26616409176E+01  0.17368363045E+02  0.34656384215E+02  0.00000000000E+00 0.  1.
</event>
<event>
 7    1  0.2899775E-009  0.1017941E+03  0.7561462E-02  0.1276568E+00
         -2   -1    0    0    0  501 -0.00000000000E+00  0.00000000000E+00  0.37288993793E+02  0.37288993793E+02  0.00000000000E+00 0.  1.
          2   -1    0    0  501    0  0.00000000000E+00 -0.00000000000E+00 -0.49447648823E+03  0.49447648823E+03  0.00000000000E+00 0. -1.
         25    2    1    2    0    0  0.20262478632E+02 -0.72320981791E+02 -0.30675964721E+03  0.33969278548E+03  0.12509522332E+03 0.  0.
          5    1    3    3  502    0  0.55288670800E+02 -0.59236556773E+02 -0.96426560375E+02  0.12602127091E+03  0.41800000000E+01 0.  1.
         -5    1    3    3    0  502 -0.35026192168E+02 -0.13084425018E+02 -0.21033308684E+03  0.21367151456E+03  0.41800000000E+01 0.  1.
        -11    1    1    2    0    0  0.11442855380E+02  0.11412781721E+02  0.89913130480E+01  0.18494167626E+02  0.00000000000E+00 0.  1.
         11    1    1    2    0    0 -0.31705334013E+02  0.60908200070E+02 -0.15941916027E+03  0.17357852892E+03  0.00000000000E+00 0. -1.
</event>
<event>
 7    1  0.2899775E-009  0.1208209E+03  0.7561462E-02  0.1241749E+00
          2   -1    0    0  501    0  0.00000000000E+00  0.00000000000E+00  0.57177002758E+03  0.57177002758E+03  0.00000000000E+00 0. -1.
         -2   -1    0    0    0  501 -0.00000000000E+00 -0.00000000000E+00 -0.36555861243E+02  0.36555861243E+02  0.00000000000E+00 0.  1.
         25    2    1    2    0    0  0.74187994347E+02  0.46002401730E+02  0.28767842676E+03  0.32561686403E+03  0.12508950974E+03 0.  0.
          5    1    3    3  502    0 -0.10198417273E+02  0.39449297295E+01 -0.86927963945E+01  0.14581059447E+02  0.41800000000E+01 0.  1.
         -5    1    3    3    0  502  0.84386411620E+02  0.42057472001E+02  0.29637122316E+03  0.31103580458E+03  0.41800000000E+01 0.  1.
        -11    1    1    2    0    0  0.22371834271E+02 -0.30399273787E+02  0.54319469873E+02  0.66145442947E+02  0.00000000000E+00 0. -1.
         11    1    1    2    0    0 -0.96559828618E+02 -0.15603127944E+02  0.19321626970E+03  0.21656358184E+03  0.00000000000E+00 0.  1.
</event>
<event>
 7    1  0.2899775E-009  0.8904599E+02  0.7561462E-02  0.1305179E+00
          3   -1    0    0  501    0  0.00000000000E+00  0.00000000000E+00  0.52475089892E+02  0.52475089892E+02  0.00000000000E+00 0. -1.
         -3   -1    0    0    0  501 -0.00000000000E+00 -0.00000000000E+00 -0.25147592735E+03  0.25147592735E+03  0.00000000000E+00 0.  1.
         25    2    1    2    0    0  0.12601352758E+02  0.17734429647E+02 -0.14523398885E+03  0.19290854855E+03  0.12508993765E+03 0.  0.
          5    1    3    3  502    0 -0.41441748476E+01  0.63812302712E+02 -0.12346218278E+03  0.13910272154E+03  0.41800000000E+01 0.  1.
         -5    1    3    3    0  502  0.16745527605E+02 -0.46077873065E+02 -0.21771806071E+02  0.53805827014E+02  0.41800000000E+01 0.  1.
        -11    1    1    2    0    0  0.24115120432E+02 -0.19979551685E+00 -0.64584754239E+02  0.68940332403E+02  0.00000000000E+00 0.  1.
         11    1    1    2    0    0 -0.36716473190E+02 -0.17534634130E+02  0.10817905633E+02  0.42102136287E+02  0.00000000000E+00 0. -1.
</event>
<event>
 7    1  0.2899775E-009  0.1371971E+03  0.7561462E-02  0.1217151E+00
          3   -1    0    0  501    0  0.00000000000E+00  0.00000000000E+00  0.79369834872E+02  0.79369834872E+02  0.00000000000E+00 0. -1.
         -3   -1    0    0    0  501 -0.00000000000E+00 -0.00000000000E+00 -0.25093409630E+03  0.25093409630E+03  0.00000000000E+00 0.  1.
         25    2    1    2    0    0  0.21376277932E+02 -0.86685708453E+02 -0.10535442283E+03  0.18632550475E+03  0.12508509905E+03 0.  0.
          5    1    3    3  502    0 -0.51772668230E+02 -0.46062321924E+02 -0.40444801524E+02  0.80345510435E+02  0.41800000000E+01 0.  1.
         -5    1    3    3    0  502  0.73148946162E+02 -0.40623386529E+02 -0.64909621307E+02  0.10597999432E+03  0.41800000000E+01 0.  1.
        -11    1    1    2    0    0 -0.39598655971E+02  0.93656730230E+02 -0.70838896197E+02  0.12392653423E+03  0.00000000000E+00 0.  1.
         11    1    1    2    0    0  0.18222378039E+02 -0.69710217768E+01  0.46290576010E+01  0.20051892187E+02  0.00000000000E+00 0. -1.
</event>
<event>
 7    1  0.2899775E-009  0.1502161E+03  0.7561462E-02  0.1200208E+00
         -2   -1    0    0    0  501 -0.00000000000E+00  0.00000000000E+00  0.19075895154E+03  0.19075895154E+03  0.00000000000E+00 0.  1.
          2   -1    0    0  501    0  0.00000000000E+00 -0.00000000000E+00 -0.13247571331E+03  0.13247571331E+03  0.00000000000E+00 0. -1.
         25    2    1    2    0    0  0.11531063541E+03  0.63755797879E+00  0.23524105212E+02  0.17175186404E+03  0.12509344569E+03 0.  0.
          5    1    3    3  502    0  0.13091261822E+03 -0.31010472407E+02  0.18893755867E+02  0.13591986396E+03  0.41800000000E+01 0.  1.
         -5    1    3    3    0  502 -0.15601982805E+02  0.31648030386E+02  0.46303493451E+01  0.35832000081E+02  0.41800000000E+01 0.  1.
        -11    1    1    2    0    0 -0.36072278828E+02 -0.28849234104E+02 -0.20822771437E+02  0.50666314436E+02  0.00000000000E+00 0.  1.
         11    1    1    2    0    0 -0.79238356582E+02  0.28211676125E+02  0.55581904455E+02  0.10081648638E+03  0.00000000000E+00 0. -1.
</event>
<event>
 7    1  0.2899775E-009  0.1035301E+03  0.7561462E-02  0.1273043E+00
         -1   -1    0    0    0  501 -0.00000000000E+00  0.00000000000E+00  0.17117784914E+02  0.17117784914E+02  0.00000000000E+00 0.  1.
          1   -1    0    0  501    0  0.00000000000E+00 -0.00000000000E+00 -0.77199606408E+03  0.77199606408E+03  0.00000000000E+00 0. -1.
         25    2    1    2    0    0 -0.19863428341E+02 -0.48306650712E+02 -0.46399909915E+03  0.48339578835E+03  0.12509290902E+03 0.  0.
          5    1    3    3  502    0  0.12825169273E+02 -0.71447924716E+02 -0.40796170398E+03  0.41439053467E+03  0.41800000000E+01 0. -1.
         -5    1    3    3    0  502 -0.32688597614E+02  0.23141274005E+02 -0.56037395176E+02  0.69005253674E+02  0.41800000000E+01 0. -1.
        -11    1    1    2    0    0  0.32726421125E+02  0.65138564723E+02 -0.22372744399E+03  0.23530410207E+03  0.00000000000E+00 0.  1.
         11    1    1    2    0    0 -0.12862992784E+02 -0.16831914011E+02 -0.67151736018E+02  0.70413958579E+02  0.00000000000E+00 0. -1.
</event>
<event>
 7    1  0.2899775E-009  0.7857155E+02  0.7561462E-02  0.1333155E+00
          1   -1    0    0  501    0  0.00000000000E+00  0.00000000000E+00  0.43808777082E+03  0.43808777082E+03  0.00000000000E+00 0. -1.
         -1   -1    0    0    0  501 -0.00000000000E+00 -0.00000000000E+00 -0.28711384744E+02  0.28711384744E+02  0.00000000000E+00 0.  1.
         25    2    1    2    0    0 -0.67086421886E+00 -0.19833164157E+02  0.28785536444E+03  0.31448749467E+03  0.12509144258E+03 0.  0.
          5    1    3    3  502    0  0.42659218067E+02  0.18580207887E+02  0.22126243817E+03  0.22614060218E+03  0.41800000000E+01 0. -1.
         -5    1    3    3    0  502 -0.43330082286E+02 -0.38413372044E+02  0.66592926275E+02  0.88346892489E+02  0.41800000000E+01 0. -1.
        -11    1    1    2    0    0  0.19149466980E+02 -0.64798092126E+01  0.11828031438E+03  0.11999551151E+03  0.00000000000E+00 0. -1.
         11    1    1    2    0    0 -0.18478602761E+02  0.26312973370E+02  0.32407072573E+01  0.32316149385E+02  0.00000000000E+00 0.  1.
</event>
<event>
 7    1  0.2899775E-009  0.1299971E+03  0.7561462E-02  0.1227460E+00
          1   -1    0    0  501    0  0.00000000000E+00  0.00000000000E+00  0.43917550706E+03  0.43917550706E+03  0.00000000000E+00 0. -1.
         -1   -1    0    0    0  501 -0.00000000000E+00 -0.00000000000E+00 -0.46748914071E+02  0.46748914071E+02  0.00000000000E+00 0.  1.
         25    2    1    2    0    0 -0.67017233483E+02 -0.43465451108E+02  0.13188311537E+03  0.19854869568E+03  0.12509146020E+03 0.  0.
          5    1    3    3  502    0 -0.80105890869E+02  0.14231846587E+02  0.44187733003E+02  0.92679703048E+02  0.41800000000E+01 0. -1.
         -5    1    3    3    0  502  0.13088657385E+02 -0.57697297695E+02  0.87695382365E+02  0.10586899264E+03  0.41800000000E+01 0. -1.
        -11    1    1    2    0    0  0.40573798633E+02  0.70536121743E+02  0.15178498766E+03  0.17222154362E+03  0.00000000000E+00 0. -1.
         11    1    1    2    0    0  0.26443434851E+02 -0.27070670635E+02  0.10875848996E+03  0.11515418183E+03  0.00000000000E+00 0.  1.
</event>
<event>
 7    1  0.2899775E-009  0.1731167E+03  0.7561462E-02  0.1174636E+00
         -2   -1    0    0    0  501 -0.00000000000E+00  0.00000000000E+00  0.34906123650E+03  0.34906123650E+03  0.00000000000E+00 0.  1.
          2   -1    0    0  501    0  0.00000000000E+00 -0.00000000000E+00 -0.13878646259E+03  0.13878646259E+03  0.00000000000E+00 0. -1.
         25    2    1    2    0    0 -0.16924501182E+03  0.26226353859E+02  0.17693155850E+02  0.21281847282E+03  0.12508780494E+03 0.  0.
          5    1    3    3  502    0 -0.14760184167E+03  0.20253151210E+02 -0.36983775037E+02  0.15356355627E+03  0.41800000000E+01 0.  1.
         -5    1    3    3    0  502 -0.21643170154E+02  0.59732026487E+01  0.54676930886E+02  0.59254916550E+02  0.41800000000E+01 0.  1.
        -11    1    1    2    0    0  0.41486231834E+02  0.76326198768E+01  0.11331700183E+03  0.12091363538E+03  0.00000000000E+00 0.  1.
         11    1    1    2    0    0  0.12775877999E+03 -0.33858973736E+02  0.79264616233E+02  0.15411559088E+03  0.00000000000E+00 0. -1.
</event>
<event>
 7    1  0.2899775E-009  0.7901212E+02  0.7561462E-02  0.1331879E+00
         -1   -1    0    0    0  501 -0.00000000000E+00  0.00000000000E+00  0.13771239413E+03  0.13771239413E+03  0.00000000000E+00 0.  1.
          1   -1    0    0  501    0  0.00000000000E+00 -0.00000000000E+00 -0.86827053953E+02  0.86827053953E+02  0.00000000000E+00 0. -1.
         25    2    1    2    0    0 -0.10978980019E+02 -0.10031905915E+02  0.30116920529E+02  0.12952326670E+03  0.12509224826E+03 0.  0.
          5    1    3    3  502    0 -0.44875442795E+02 -0.10682340067E+02 -0.33603628750E+02  0.57224068542E+02  0.41800000000E+01 0.  1.
         -5    1    3    3    0  502  0.33896462775E+02  0.65043415213E+00  0.63720549279E+02  0.72299198154E+02  0.41800000000E+01 0.  1.
        -11    1    1    2    0    0 -0.26385696542E+02 -0.17036135202E+02  0.34716301118E+02  0.46815130545E+02  0.00000000000E+00 0.  1.
         11    1    1    2    0    0  0.37364676562E+02  0.27068041117E+02 -0.13947881472E+02  0.48201050840E+02  0.00000000000E+00 0. -1.
</event>
<event>
 7    1  0.2899775E-009  0.1242245E+03  0.7561462E-02  0.1236286E+00
          1   -1    0    0  501    0  0.00000000000E+00  0.00000000000E+00  0.49993329448E+02  0.49993329448E+02  0.00000000000E+00 0. -1.
         -1   -1    0    0    0  501 -0.00000000000E+00 -0.00000000000E+00 -0.37252165533E+03  0.37252165533E+03  0.00000000000E+00 0.  1.
         25    2    1    2    0    0  0.39417512775E+02  0.72381887104E+02 -0.16462012509E+03  0.22257630678E+03  0.12509016293E+03 0.  0.
          5    1    3    3  502    0 -0.30390709609E+02 -0.95445996482E+01 -0.90910629793E+01  0.33388837043E+02  0.41800000000E+01 0. -1.
         -5    1    3    3    0  502  0.69808222384E+02  0.81926486752E+02 -0.15552906211E+03  0.18918746974E+03  0.41800000000E+01 0. -1.
        -11    1    1    2    0    0 -0.87438594111E+01  0.14241966892E+02  0.59600065046E+00  0.16722557075E+02  0.00000000000E+00 0.  1.
         11    1    1    2    0    0 -0.30673653364E+02 -0.86623853996E+02 -0.15850420144E+03  0.18321612093E+03  0.00000000000E+00 0. -1.
</event>
<event>
 7    1  0.2899775E-009  0.1234827E+03  0.7561462E-02  0.1237460E+00
         -2   -1    0    0    0  501 -0.00000000000E+00  0.00000000000E+00  0.26018451322E+02  0.26018451322E+02  0.00000000000E+00 0.  1.
          2   -1    0    0  501    0  0.00000000000E+00 -0.00000000000E+00 -0.68302507340E+03  0.68302507340E+03  0.00000000000E+00 0. -1.
         25    2    1    2    0    0 -0.35702533827E+02  0.60341484155E+02 -0.46456251279E+03  0.48619130800E+03  0.12509154272E+03 0.  0.
          5    1    3    3  502    0 -0.36391549989E+02 -0.30815570645E+02 -0.22025975168E+03  0.22540136405E+03  0.41800000000E+01 0.  1.
         -5    1    3    3    0  502  0.68901616227E+00  0.91157054801E+02 -0.24430276111E+03  0.26078994396E+03  0.41800000000E+01 0.  1.
        -11    1    1    2    0    0  0.44779425252E+02  0.20177838233E+01 -0.11219485785E+03  0.12081785673E+03  0.00000000000E+00 0. -1.
         11    1    1    2    0    0 -0.90768914246E+01 -0.62359267979E+02 -0.80249251434E+02  0.10203435998E+03  0.00000000000E+00 0.  1.
</event>
<event>
 7    1  0.2899775E-009  0.1309535E+03  0.7561462E-02  0.1226048E+00
         -4   -1    0    0    0  501 -0.00000000000E+00  0.00000000000E+00  0.19021386696E+03  0.19021386696E+03  0.00000000000E+00 0.  1.
          4   -1    0    0  501    0  0.00000000000E+00 -0.00000000000E+00 -0.11534074707E+03  0.11534074707E+03  0.00000000000E+00 0. -1.
         25    2    1    2    0    0  0.23946133386E+02  0.10097213721E+03  0.42193966052E+02  0.16791482368E+03  0.12508504084E+03 0.  0.
          5    1    3    3  502    0 -0.39790616677E+02  0.73197942536E+02 -0.53401426074E+01  0.83589601567E+02  0.41800000000E+01 0.  1.
         -5    1    3    3    0  502  0.63736750063E+02  0.27774194676E+02  0.47534108659E+02  0.84325222113E+02  0.41800000000E+01 0.  1.
        -11    1    1    2    0    0 -0.31746743276E+02 -0.69412500602E+02  0.58464425238E+02  0.96145930579E+02  0.00000000000E+00 0.  1.
         11    1    1    2    0    0  0.78006098905E+01 -0.31559636610E+02 -0.25785271395E+02  0.41493859769E+02  0.00000000000E+00 0. -1.
</event>
<event>
 7    1  0.2899775E-009  0.9689635E+02  0.7561462E-02  0.1286961E+00
         -1   -1    0    0    0  501 -0.00000000000E+00  0.00000000000E+00  0.60619388455E+02  0.60619388455E+02  0.00000000000E+00 0.  1.
          1   -1    0    0  501    0  0.00000000000E+00 -0.00000000000E+00 -0.23402641855E+03  0.23402641855E+03  0.00000000000E+00 0. -1.
         25    2    1    2    0    0  0.39056167320E+02  0.33108552504E+02 -0.49864008707E+02  0.14406726734E+03  0.12508955872E+03 0.  0.
          5    1    3    3  502    0  0.72293836137E+02  0.15679531983E+02  0.84723079719E+01  0.74575457552E+02  0.41800000000E+01 0. -1.
         -5    1    3    3    0  502 -0.33237668818E+02  0.17429020521E+02 -0.58336316679E+02  0.69491809793E+02  0.41800000000E+01 0. -1.
        -11    1    1    2    0    0 -0.25688366944E+01 -0.43832107569E+02 -0.88824027826E+02  0.99083603563E+02  0.00000000000E+00 0.  1.
         11    1    1    2    0    0 -0.36487330625E+02  0.10723555065E+02 -0.34718993559E+02  0.51494936092E+02  0.00000000000E+00 0. -1.
</event>
<event>
 7    1  0.2899775E-009  0.1586107E+03  0.7561462E-02  0.1190274E+00
          2   -1    0    0  501    0  0.00000000000E+00  0.00000000000E+00  0.49581342849E+03  0.49581342849E+03  0.00000000000E+00 0. -1.
         -2   -1    0    0    0  501 -0.00000000000E+00 -0.00000000000E+00 -0.72989419351E+02  0.72989419351E+02  0.00000000000E+00 0.  1.
         25    2    1    2    0    0 -0.25220302750E+02  0.13725228664E+03  0.32128528511E+03  0.37195020351E+03  0.12509382718E+03 0.  0.
          5    1    3    3  502    0 -0.65705047265E+02  0.99075154820E+02  0.14787754456E+03  0.18978482585E+03  0.41800000000E+01 0.  1.
         -5    1    3    3    0  502  0.40484744515E+02  0.38177131825E+02  0.17340774055E+03  0.18216537766E+03  0.41800000000E+01 0.  1.
        -11    1    1    2    0    0  0.31212518935E+02 -0.10083179121E+03  0.20112427336E+02  0.10745129683E+03  0.00000000000E+00 0.  1.
         11    1    1    2    0    0 -0.59922161855E+01 -0.36420495433E+02  0.81426296685E+02  0.89401347497E+02  0.00000000000E+00 0. -1.
</event>
<event>
 7    1  0.2899775E-009  0.1396601E+03  0.7561462E-02  0.1213787E+00
         -1   -1    0    0    0  501 -0.00000000000E+00  0.00000000000E+00  0.12935226570E+03  0.12935226570E+03  0.00000000000E+00 0.  1.
          1   -1    0    0  501    0  0.00000000000E+00 -0.00000000000E+00 -0.23239865172E+03  0.23239865172E+03  0.00000000000E+00 0. -1.
         25    2    1    2    0    0 -0.96245236180E+02  0.33515656979E+02 -0.14615061864E+03  0.21770069645E+03  0.12508854927E+03 0.  0.
          5    1    3    3  502    0 -0.11394148422E+03  0.13212360327E+02 -0.64589547634E+02  0.13170615155E+03  0.41800000000E+01 0.  1.
         -5    1    3    3    0  502  0.17696248044E+02  0.20303296651E+02 -0.81561071001E+02  0.85994544900E+02  0.41800000000E+01 0.  1.
        -11    1    1    2    0    0  0.80830624776E+02  0.18594213406E+02  0.22567311901E+02  0.85957072079E+02  0.00000000000E+00 0.  1.
         11    1    1    2    0    0  0.15414611404E+02 -0.52109870385E+02  0.20536920711E+02  0.58093148895E+02  0.00000000000E+00 0. -1.
</event>
<event>
 7    1  0.2899775E-009  0.1049083E+03  0.7561462E-02  0.1270300E+00
          2   -1    0    0  501    0  0.00000000000E+00  0.00000000000E+00  0.44198115441E+03  0.44198115441E+03  0.00000000000E+00 0. -1.
         -2   -1    0    0    0  501 -0.00000000000E+00 -0.00000000000E+00 -0.36386704019E+02  0.36386704019E+02  0.00000000000E+00 0.  1.
         25    2    1    2    0    0  0.24022981945E+02  0.55857217485E+02  0.25529582918E+03  0.29072449814E+03  0.12509053127E+03 0.  0.
          5    1    3    3  502    0  0.18634005701E+02  0.83425619967E+02  0.94723129779E+02  0.12765971937E+03  0.41800000000E+01 0.  1.
         -5    1    3    3    0  502  0.53889762433E+01 -0.27568402483E+02  0.16057269940E+03  0.16306477877E+03  0.41800000000E+01 0.  1.
        -11    1    1    2    0    0 -0.41750682097E+02 -0.50896169213E+01  0.11715449227E+03  0.12447569528E+03  0.00000000000E+00 0. -1.
         11    1    1    2    0    0  0.17727700152E+02 -0.50767600563E+02  0.33144128935E+02  0.63167665007E+02  0.00000000000E+00 0.  1.
</event>
<event>
 7    1  0.2899775E-009  0.9608069E+02  0.7561462E-02  0.1288760E+00
          1   -1    0    0  501    0  0.00000000000E+00  0.00000000000E+00  0.29055375391E+02  0.29055375391E+02  0.00000000000E+00 0. -1.
         -1   -1    0    0    0  501 -0.00000000000E+00 -0.00000000000E+00 -0.45924786188E+03  0.45924786188E+03  0.00000000000E+00 0.  1.
         25    2    1    2    0    0  0.13585628393E+02 -0.35851783462E+02 -0.21806954446E+03  0.25431384801E+03  0.12510510537E+03 0.  0.
          5    1    3    3  502    0  0.48805893483E+02 -0.41949342786E+01 -0.19568613009E+03  0.20176755592E+03  0.41800000000E+01 0. -1.
         -5    1    3    3    0  502 -0.35220265090E+02 -0.31656849183E+02 -0.22383414372E+02  0.52546292088E+02  0.41800000000E+01 0. -1.
        -11    1    1    2    0    0 -0.47892082962E+02  0.30446792000E+01 -0.76568506701E+02  0.90364029903E+02  0.00000000000E+00 0.  1.
         11    1    1    2    0    0  0.34306454569E+02  0.32807104262E+02 -0.13555443532E+03  0.14362535936E+03  0.00000000000E+00 0. -1.
</event>
<event>
 7    1  0.2907306E-009  0.1522924E+03  0.7561462E-02  0.1197684E+00
          2   -1    0    0  501    0  0.00000000000E+00  0.00000000000E+00  0.97590092642E+03  0.97590092642E+03  0.00000000000E+00 0. -1.
         -2   -1    0    0    0  501 -0.00000000000E+00 -0.00000000000E+00 -0.32815442021E+02  0.32815442021E+02  0.00000000000E+00 0.  1.
         25    2    1    2    0    0 -0.37045715940E+02 -0.13559600702E+03  0.55233071314E+03  0.58350251080E+03  0.12508917320E+03 0.  0.
          5    1    3    3  502    0 -0.37069101623E+02 -0.81899897637E+02  0.50127813493E+03  0.50929260007E+03  0.41800000000E+01 0. -1.
         -5    1    3    3    0  502  0.23385682832E-01 -0.53696109379E+02  0.51052578203E+02  0.74209910730E+02  0.41800000000E+01 0. -1.
        -11    1    1    2    0    0 -0.11997315894E+02  0.98526471474E+02  0.29659559030E+03  0.31276244237E+03  0.00000000000E+00 0. -1.
         11    1    1    2    0    0  0.49043031834E+02  0.37069535542E+02  0.94159180964E+02  0.11245141527E+03  0.00000000000E+00 0.  1.
</event>
<event>
 7    1  0.2899775E-009  0.1326333E+03  0.7561462E-02  0.1223600E+00
          2   -1    0    0  501    0  0.00000000000E+00  0.00000000000E+00  0.23839836309E+03  0.23839836309E+03  0.00000000000E+00 0. -1.
         -2   -1    0    0    0  501 -0.00000000000E+00 -0.00000000000E+00 -0.83310004873E+02  0.83310004873E+02  0.00000000000E+00 0.  1.
         25    2    1    2    0    0  0.76367269817E+02 -0.41308908516E+02  0.56298717920E+02  0.16236285289E+03  0.12511500524E+03 0.  0.
          5    1    3    3  502    0 -0.34018402849E+02 -0.15225544724E+02  0.23333863000E+02  0.44170244589E+02  0.41800000000E+01 0. -1.
         -5    1    3    3    0  502  0.11038567267E+03 -0.26083363791E+02  0.32964854920E+02  0.11819260830E+03  0.41800000000E+01 0. -1.
        -11    1    1    2    0    0 -0.13717219907E+02  0.49235640444E+02  0.12854229181E+02  0.52702387230E+02  0.00000000000E+00 0.  1.
         11    1    1    2    0    0 -0.62650049910E+02 -0.79267319287E+01  0.85935411114E+02  0.10664312784E+03  0.00000000000E+00 0. -1.
</event>
<event>
 7    1  0.2899775E-009  0.1078483E+03  0.7561462E-02  0.1264607E+00
         -3   -1    0    0    0  501 -0.00000000000E+00  0.00000000000E+00  0.53997997539E+02  0.53997997539E+02  0.00000000000E+00 0.  1.
          3   -1    0    0  501    0  0.00000000000E+00 -0.00000000000E+00 -0.30897510776E+03  0.30897510776E+03  0.00000000000E+00 0. -1.
         25    2    1    2    0    0 -0.68205022101E+02 -0.63732279127E+01 -0.16512850831E+03  0.21819204495E+03  0.12509117135E+03 0.  0.
          5    1    3    3  502    0 -0.14692325060E+02 -0.43186842993E+02 -0.14185674267E+03  0.14906970070E+03  0.41800000000E+01 0.  1.
         -5    1    3    3    0  502 -0.53512697041E+02  0.36813615080E+02 -0.23271765637E+02  0.69122344258E+02  0.41800000000E+01 0.  1.
        -11    1    1    2    0    0  0.45428272736E+02 -0.35151256296E+02 -0.20881127353E+02  0.61117593723E+02  0.00000000000E+00 0.  1.
         11    1    1    2    0    0  0.22776749365E+02  0.41524484209E+02 -0.68967474552E+02  0.83663466618E+02  0.00000000000E+00 0. -1.
</event>
<event>
 7    1  0.2899775E-009  0.1379120E+03  0.7561462E-02  0.1216166E+00
          2   -1    0    0  501    0  0.00000000000E+00  0.00000000000E+00  0.45965379300E+03  0.45965379300E+03  0.00000000000E+00 0. -1.
         -2   -1    0    0    0  501 -0.00000000000E+00 -0.00000000000E+00 -0.53499670244E+02  0.53499670244E+02  0.00000000000E+00 0.  1.
         25    2    1    2    0    0  0.10851914684E+03  0.28524092175E+02  0.26096849630E+03  0.31038970578E+03  0.12508870583E+03 0.  0.
          5    1    3    3  502    0  0.84379764545E+02 -0.14466702703E+02  0.24312166402E+03  0.25778837458E+03  0.41800000000E+01 0. -1.
         -5    1    3    3    0  502  0.24139382293E+02  0.42990794877E+02  0.17846832286E+02  0.52601331203E+02  0.41800000000E+01 0. -1.
        -11    1    1    2    0    0 -0.66265144619E+02  0.26402157147E+02  0.85121883952E+02  0.11105799575E+03  0.00000000000E+00 0.  1.
         11    1    1    2    0    0 -0.42254002220E+02 -0.54926249322E+02  0.60063742503E+02  0.91705761714E+02  0.00000000000E+00 0. -1.
</event>
<event>
 7    1  0.2899775E-009  0.8621708E+02  0.7561462E-02  0.1312280E+00
          1   -1    0    0  501    0  0.00000000000E+00  0.00000000000E+00  0.85648774480E+03  0.85648774480E+03  0.00000000000E+00 0. -1.
         -1   -1    0    0    0  501 -0.00000000000E+00 -0.00000000000E+00 -0.19737181487E+02  0.19737181487E+02  0.00000000000E+00 0.  1.
         25    2    1    2    0    0 -0.45812124430E+02 -0.43953079193E+02  0.59174296085E+03  0.60814277901E+03  0.12508910437E+03 0.  0.
          5    1    3    3  502    0 -0.16308035187E+02 -0.24959770586E+02  0.55949068000E+03  0.56030012990E+03  0.41800000000E+01 0.  1.
         -5    1    3    3    0  502 -0.29504089244E+02 -0.18993308606E+02  0.32252280851E+02  0.47842649112E+02  0.41800000000E+01 0.  1.
        -11    1    1    2    0    0  0.58892634772E+02 -0.22857431494E+01  0.11027290694E+03  0.12503471941E+03  0.00000000000E+00 0.  1.
         11    1    1    2    0    0 -0.13080510342E+02  0.46238822342E+02  0.13473469552E+03  0.14304742787E+03  0.00000000000E+00 0. -1.
</event>
<event>
 7    1  0.2899775E-009  0.1943788E+03  0.7561462E-02  0.1154570E+00
         -1   -1    0    0    0  501 -0.00000000000E+00  0.00000000000E+00  0.18842834210E+03  0.18842834210E+03  0.00000000000E+00 0.  1.
          1   -1    0    0  501    0  0.00000000000E+00 -0.00000000000E+00 -0.23397175758E+03  0.23397175758E+03  0.00000000000E+00 0. -1.
         25    2    1    2    0    0 -0.63978765499E+02  0.16117102438E+03 -0.71307838632E+02  0.22539372611E+03  0.12509253529E+03 0.  0.
          5    1    3    3  502    0 -0.67341209171E+02  0.29212059574E+02  0.35074741981E+01  0.73606777218E+02  0.41800000000E+01 0. -1.
         -5    1    3    3    0  502  0.33624436715E+01  0.13195896480E+03 -0.74815312830E+02  0.15178694889E+03  0.41800000000E+01 0. -1.
        -11    1    1    2    0    0 -0.16537922880E+01 -0.74156676160E+02  0.44377948599E+02  0.86436971082E+02  0.00000000000E+00 0.  1.
         11    1    1    2    0    0  0.65632557787E+02 -0.87014348216E+02 -0.18613525442E+02  0.11056940249E+03  0.00000000000E+00 0. -1.
</event>
<event>
 7    1  0.2899775E-009  0.1557533E+03  0.7561462E-02  0.1193576E+00
          1   -1    0    0  501    0  0.00000000000E+00  0.00000000000E+00  0.64333814516E+02  0.64333814516E+02  0.00000000000E+00 0.  1.
         -1   -1    0    0    0  501 -0.00000000000E+00 -0.00000000000E+00 -0.45025004955E+03  0.45025004955E+03  0.00000000000E+00 0. -1.
         25    2    1    2    0    0 -0.86987827499E+02  0.93707871390E+02 -0.24356588550E+03  0.30219200036E+03  0.12509043612E+03 0.  0.
          5    1    3    3  502    0 -0.55295224891E+02  0.11774995064E+03 -0.22042084358E+03  0.25597936139E+03  0.41800000000E+01 0. -1.
         -5    1    3    3    0  502 -0.31692602607E+02 -0.24042079255E+02 -0.23145041918E+02  0.46212638967E+02  0.41800000000E+01 0. -1.
        -11    1    1    2    0    0  0.89894093034E+02 -0.61276316895E+02 -0.60908398357E+02  0.12468186703E+03  0.00000000000E+00 0.  1.
         11    1    1    2    0    0 -0.29062655354E+01 -0.32431554495E+02 -0.81441951185E+02  0.87709996688E+02  0.00000000000E+00 0. -1.
</event>
<event>
 7    1  0.2899775E-009  0.1147543E+03  0.7561462E-02  0.1252011E+00
         -2   -1    0    0    0  501 -0.00000000000E+00  0.00000000000E+00  0.15453447021E+02  0.15453447021E+02  0.00000000000E+00 0.  1.
          2   -1    0    0  501    0  0.00000000000E+00 -0.00000000000E+00 -0.14585502930E+04  0.14585502930E+04  0.00000000000E+00 0. -1.
         25    2    1    2    0    0 -0.66911680226E+02  0.63823749950E+02 -0.10029778661E+04  0.10149682862E+04  0.12508148656E+03 0.  0.
          5    1    3    3  502    0 -0.78594158756E+02  0.40811702206E+02 -0.96379503613E+03  0.96786413349E+03  0.41800000000E+01 0. -1.
         -5    1    3    3    0  502  0.11682478530E+02  0.23012047743E+02 -0.39182829932E+02  0.47104152762E+02  0.41800000000E+01 0. -1.
        -11    1    1    2    0    0  0.79017565457E+02 -0.41355732871E+02 -0.40985671401E+03  0.41944796854E+03  0.00000000000E+00 0. -1.
         11    1    1    2    0    0 -0.12105885231E+02 -0.22468017079E+02 -0.30262265888E+02  0.39587485211E+02  0.00000000000E+00 0.  1.
</event>
<event>
 7    1  0.2899775E-009  0.1056560E+03  0.7561462E-02  0.1268832E+00
          2   -1    0    0  501    0  0.00000000000E+00  0.00000000000E+00  0.85600021067E+03  0.85600021067E+03  0.00000000000E+00 0. -1.
         -2   -1    0    0    0  501 -0.00000000000E+00 -0.00000000000E+00 -0.17827681187E+02  0.17827681187E+02  0.00000000000E+00 0.  1.
         25    2    1    2    0    0  0.53735046988E+02  0.14638794104E+02  0.53220244677E+03  0.54953513597E+03  0.12509065412E+03 0.  0.
          5    1    3    3  502    0  0.61071797683E+02  0.55869082631E+02  0.44567581862E+03  0.45331614418E+03  0.41800000000E+01 0. -1.
         -5    1    3    3    0  502 -0.73367506948E+01 -0.41230288527E+02  0.86526628144E+02  0.96218991789E+02  0.41800000000E+01 0. -1.
        -11    1    1    2    0    0 -0.49031852922E+02 -0.38304646004E+02  0.28681168906E+03  0.29348307189E+03  0.00000000000E+00 0. -1.
         11    1    1    2    0    0 -0.47031940657E+01  0.23665851900E+02  0.19158393654E+02  0.30809683997E+02  0.00000000000E+00 0.  1.
</event>
<event>
 7    1  0.2899775E-009  0.1266982E+03  0.7561462E-02  0.1232439E+00
         -1   -1    0    0    0  501 -0.00000000000E+00  0.00000000000E+00  0.11072455157E+02  0.11072455157E+02  0.00000000000E+00 0.  1.
          1   -1    0    0  501    0  0.00000000000E+00 -0.00000000000E+00 -0.22461803380E+04  0.22461803380E+04  0.00000000000E+00 0. -1.
         25    2    1    2    0    0  0.10282442900E+02 -0.68642280209E+02 -0.18603976483E+04  0.18658898858E+04  0.12509262468E+03 0.  0.
          5    1    3    3  502    0  0.10052866801E+02 -0.10484147370E+03 -0.12686284155E+04  0.12729997344E+04  0.41800000000E+01 0. -1.
         -5    1    3    3    0  502  0.22957609864E+00  0.36199193494E+02 -0.59176923282E+03  0.59289015140E+03  0.41800000000E+01 0. -1.
        -11    1    1    2    0    0  0.38370848349E+02  0.38282117361E+02 -0.15153026841E+03  0.16093248509E+03  0.00000000000E+00 0.  1.
         11    1    1    2    0    0 -0.48653291249E+02  0.30360162848E+02 -0.22317996611E+03  0.23043042228E+03  0.00000000000E+00 0. -1.
</event>
<event>
 7    1  0.2899775E-009  0.7287514E+02  0.7561462E-02  0.1350580E+00
         -2   -1    0    0    0  501 -0.00000000000E+00  0.00000000000E+00  0.28975540493E+02  0.28975540493E+02  0.00000000000E+00 0.  1.
          2   -1    0    0  501    0  0.00000000000E+00 -0.00000000000E+00 -0.46570497314E+03  0.46570497314E+03  0.00000000000E+00 0. -1.
         25    2    1    2    0    0 -0.37369348616E+02 -0.28818455452E+02 -0.27715851413E+03  0.30771027039E+03  0.12506716978E+03 0.  0.
          5    1    3    3  502    0 -0.51570063146E+02 -0.88992887699E+01 -0.27796543998E+03  0.28287970407E+03  0.41800000000E+01 0.  1.
         -5    1    3    3    0  502  0.14200714530E+02 -0.19919166682E+02  0.80692584434E+00  0.24830566320E+02  0.41800000000E+01 0.  1.
        -11    1    1    2    0    0  0.43351334319E+02  0.47240408939E+01 -0.25283779815E+02  0.50407581486E+02  0.00000000000E+00 0.  1.
         11    1    1    2    0    0 -0.59819857032E+01  0.24094414558E+02 -0.13428713870E+03  0.13656266176E+03  0.00000000000E+00 0. -1.
</event>
<event>
 7    1  0.2899775E-009  0.1117355E+03  0.7561462E-02  0.1257389E+00
          2   -1    0    0  501    0  0.00000000000E+00  0.00000000000E+00  0.56896089375E+03  0.56896089375E+03  0.00000000000E+00 0. -1.
         -2   -1    0    0    0  501 -0.00000000000E+00 -0.00000000000E+00 -0.27887776827E+02  0.27887776827E+02  0.00000000000E+00 0.  1.
         25    2    1    2    0    0  0.37650995448E+02 -0.52035899785E+02  0.27824773937E+03  0.31176236687E+03  0.12509451069E+03 0.  0.
          5    1    3    3  502    0 -0.39344846809E+02 -0.45752493702E+02  0.92204825916E+02  0.11027470232E+03  0.41800000000E+01 0.  1.
         -5    1    3    3    0  502  0.76995842258E+02 -0.62834060832E+01  0.18604291346E+03  0.20148766455E+03  0.41800000000E+01 0.  1.
        -11    1    1    2    0    0 -0.66723753144E+01  0.54157750666E+02  0.24107909621E+03  0.24717749327E+03  0.00000000000E+00 0. -1.
         11    1    1    2    0    0 -0.30978620134E+02 -0.21218508807E+01  0.21746281337E+02  0.37908810434E+02  0.00000000000E+00 0.  1.
</event>
<event>
 7    1  0.2899775E-009  0.9369285E+02  0.7561462E-02  0.1294148E+00
         -2   -1    0    0    0  501 -0.00000000000E+00  0.00000000000E+00  0.16239862468E+02  0.16239862468E+02  0.00000000000E+00 0.  1.
          2   -1    0    0  501    0  0.00000000000E+00 -0.00000000000E+00 -0.80263602957E+03  0.80263602957E+03  0.00000000000E+00 0. -1.
         25    2    1    2    0    0 -0.29524353095E+02 -0.23846822142E+01 -0.53567028586E+03  0.55087765855E+03  0.12508463299E+03 0.  0.
          5    1    3    3  502    0 -0.54593255758E+02  0.47255503318E+02 -0.27936783712E+03  0.28857818176E+03  0.41800000000E+01 0. -1.
         -5    1    3    3    0  502  0.25068902663E+02 -0.49640185532E+02 -0.25630244874E+03  0.26229947680E+03  0.41800000000E+01 0. -1.
        -11    1    1    2    0    0 -0.10911405872E+02 -0.12143650956E+02 -0.30313402566E+01  0.16604699949E+02  0.00000000000E+00 0.  1.
         11    1    1    2    0    0  0.40435758968E+02  0.14528333170E+02 -0.24769454099E+03  0.25139353354E+03  0.00000000000E+00 0. -1.
</event>
<event>
 7    1  0.2899775E-009  0.9529448E+02  0.7561462E-02  0.1290514E+00
          2   -1    0    0  501    0  0.00000000000E+00  0.00000000000E+00  0.94229819311E+03  0.94229819311E+03  0.00000000000E+00 0. -1.
         -2   -1    0    0    0  501 -0.00000000000E+00 -0.00000000000E+00 -0.18878796344E+02  0.18878796344E+02  0.00000000000E+00 0.  1.
         25    2    1    2    0    0 -0.17103628641E+02 -0.77201380133E+02  0.54331298910E+03  0.56310630044E+03  0.12508842576E+03 0.  0.
          5    1    3    3  502    0 -0.15894825984E+02 -0.32821748754E+02  0.28778706810E+02  0.46643317313E+02  0.41800000000E+01 0.  1.
         -5    1    3    3    0  502 -0.12088026572E+01 -0.44379631379E+02  0.51453428229E+03  0.51646298312E+03  0.41800000000E+01 0.  1.
        -11    1    1    2    0    0 -0.21606236440E+02  0.65315235377E+02  0.30583995334E+03  0.31348203534E+03  0.00000000000E+00 0. -1.
         11    1    1    2    0    0  0.38709865081E+02  0.11886144756E+02  0.74266454331E+02  0.84588653676E+02  0.00000000000E+00 0.  1.
</event>
<event>
 7    1  0.2899775E-009  0.1170808E+03  0.7561462E-02  0.1247992E+00
          2   -1    0    0  501    0  0.00000000000E+00  0.00000000000E+00  0.15973751705E+03  0.15973751705E+03  0.00000000000E+00 0. -1.
         -2   -1    0    0    0  501 -0.00000000000E+00 -0.00000000000E+00 -0.15613012755E+03  0.15613012755E+03  0.00000000000E+00 0.  1.
         25    2    1    2    0    0 -0.16186637570E+02  0.85974965089E+02  0.72456151101E+02  0.16897374970E+03  0.12509409418E+03 0.  0.
          5    1    3    3  502    0 -0.40543586072E+02  0.68003369034E+02 -0.11053404232E+02  0.80049301788E+02  0.41800000000E+01 0. -1.
         -5    1    3    3    0  502  0.24356948502E+02  0.17971596055E+02  0.83509555333E+02  0.88924447915E+02  0.41800000000E+01 0. -1.
        -11    1    1    2    0    0  0.12907661738E+02  0.16972273946E+02 -0.30012575227E+02  0.36816035721E+02  0.00000000000E+00 0.  1.
         11    1    1    2    0    0  0.32789758318E+01 -0.10294723903E+03 -0.38836186377E+02  0.11007785917E+03  0.00000000000E+00 0. -1.
</event>
<event>
 7    1  0.2899775E-009  0.2490000E+03  0.7561462E-02  0.1113938E+00
          2   -1    0    0  501    0  0.00000000000E+00  0.00000000000E+00  0.15368643553E+04  0.15368643553E+04  0.00000000000E+00 0. -1.
         -2   -1    0    0    0  501 -0.00000000000E+00 -0.00000000000E+00 -0.45525644760E+02  0.45525644760E+02  0.00000000000E+00 0.  1.
         25    2    1    2    0    0  0.16047301296E+03 -0.17714097256E+03  0.80266432052E+03  0.84678671571E+03  0.12508884212E+03 0.  0.
          5    1    3    3  502    0  0.12999055541E+03 -0.11773439596E+03  0.71669190499E+03  0.73785072444E+03  0.41800000000E+01 0. -1.
         -5    1    3    3    0  502  0.30482457544E+02 -0.59406576595E+02  0.85972415532E+02  0.10893599127E+03  0.41800000000E+01 0. -1.
        -11    1    1    2    0    0 -0.16161585598E+03  0.12708463233E+03  0.59282127365E+03  0.62746095589E+03  0.00000000000E+00 0. -1.
         11    1    1    2    0    0  0.11428430218E+01  0.50056340224E+02  0.95853116415E+02  0.10814232850E+03  0.00000000000E+00 0.  1.
</event>
<event>
 7    1  0.2899775E-009  0.1288938E+03  0.7561462E-02  0.1229106E+00
          2   -1    0    0  501    0  0.00000000000E+00  0.00000000000E+00  0.39054904839E+03  0.39054904839E+03  0.00000000000E+00 0.  1.
         -2   -1    0    0    0  501 -0.00000000000E+00 -0.00000000000E+00 -0.55902626951E+02  0.55902626951E+02  0.00000000000E+00 0. -1.
         25    2    1    2    0    0 -0.60857924609E+02 -0.79120187929E+02  0.16608159796E+03  0.23063811564E+03  0.12508857692E+03 0.  0.
          5    1    3    3  502    0 -0.84089173196E+02 -0.63914280356E+02  0.61372267186E+02  0.12222950487E+03  0.41800000000E+01 0. -1.
         -5    1    3    3    0  502  0.23231248587E+02 -0.15205907573E+02  0.10470933078E+03  0.10840861076E+03  0.41800000000E+01 0. -1.
        -11    1    1    2    0    0  0.78122028374E+02  0.62589420711E+02  0.93285915845E+02  0.13683109660E+03  0.00000000000E+00 0. -1.
         11    1    1    2    0    0 -0.17264103765E+02  0.16530767218E+02  0.75278907634E+02  0.78982463105E+02  0.00000000000E+00 0.  1.
</event>
<event>
 7    1  0.2899775E-009  0.7747820E+02  0.7561462E-02  0.1336364E+00
          1   -1    0    0  501    0  0.00000000000E+00  0.00000000000E+00  0.12622375221E+03  0.12622375221E+03  0.00000000000E+00 0. -1.
         -1   -1    0    0    0  501 -0.00000000000E+00 -0.00000000000E+00 -0.97818469046E+02  0.97818469046E+02  0.00000000000E+00 0.  1.
         25    2    1    2    0    0 -0.42943000505E+01  0.22531987207E+02  0.39529724743E+01  0.12723870256E+03  0.12509168628E+03 0.  0.
          5    1    3    3  502    0 -0.50628680522E+02  0.25555121979E+02  0.38964719360E+02  0.68935109382E+02  0.41800000000E+01 0. -1.
         -5    1    3    3    0  502  0.46334380471E+02 -0.30231347715E+01 -0.35011746885E+02  0.58303593178E+02  0.41800000000E+01 0. -1.
        -11    1    1    2    0    0 -0.18196661355E+02 -0.22552616459E+02 -0.27650549680E+02  0.40053612711E+02  0.00000000000E+00 0.  1.
         11    1    1    2    0    0  0.22490961405E+02  0.20629252342E-01  0.52102860369E+02  0.56749905983E+02  0.00000000000E+00 0. -1.
</event>
<event>
 7    1  0.2899775E-009  0.1285305E+03  0.7561462E-02  0.1229653E+00
         -1   -1    0    0    0  501 -0.00000000000E+00  0.00000000000E+00  0.56793511566E+02  0.56793511566E+02  0.00000000000E+00 0.  1.
          1   -1    0    0  501    0  0.00000000000E+00 -0.00000000000E+00 -0.48894702484E+03  0.48894702484E+03  0.00000000000E+00 0. -1.
         25    2    1    2    0    0 -0.75587565099E+02 -0.50907103965E+02 -0.88256356241E+02  0.17816157763E+03  0.12508936843E+03 0.  0.
          5    1    3    3  502    0 -0.86928205251E+02  0.13441787563E+02 -0.39424922051E+02  0.96483114583E+02  0.41800000000E+01 0.  1.
         -5    1    3    3    0  502  0.11340640151E+02 -0.64348891528E+02 -0.48831434190E+02  0.81678463042E+02  0.41800000000E+01 0.  1.
        -11    1    1    2    0    0  0.37531800706E+02  0.53534224904E+02 -0.30912274439E+03  0.31596110584E+03  0.00000000000E+00 0. -1.
         11    1    1    2    0    0  0.38055764393E+02 -0.26271209392E+01 -0.34774412638E+02  0.51617852942E+02  0.00000000000E+00 0.  1.
</event>
<event>
 7    1  0.2899775E-009  0.1079874E+03  0.7561462E-02  0.1264343E+00
         -2   -1    0    0    0  501 -0.00000000000E+00  0.00000000000E+00  0.86264317103E+02  0.86264317103E+02  0.00000000000E+00 0.  1.
          2   -1    0    0  501    0  0.00000000000E+00 -0.00000000000E+00 -0.17974214811E+03  0.17974214811E+03  0.00000000000E+00 0. -1.
         25    2    1    2    0    0 -0.30324923072E+02 -0.48996731636E+02 -0.56233046745E+02  0.14876041258E+03  0.12508886495E+03 0.  0.
          5    1    3    3  502    0 -0.57273551533E+02 -0.55236632733E+02  0.66286029267E+01  0.79954712667E+02  0.41800000000E+01 0. -1.
         -5    1    3    3    0  502  0.26948628461E+02  0.62399010970E+01 -0.62861649672E+02  0.68805699917E+02  0.41800000000E+01 0. -1.
        -11    1    1    2    0    0  0.61999835748E+02  0.19386909077E+02 -0.35092961065E+02  0.73833243140E+02  0.00000000000E+00 0.  1.
         11    1    1    2    0    0 -0.31674912676E+02  0.29609822559E+02 -0.21518232025E+01  0.43412809493E+02  0.00000000000E+00 0. -1.
</event>
<event>
 7    1  0.2899775E-009  0.2162144E+03  0.7561462E-02  0.1136737E+00
          1   -1    0    0  501    0  0.00000000000E+00  0.00000000000E+00  0.23146257565E+03  0.23146257565E+03  0.00000000000E+00 0. -1.
         -1   -1    0    0    0  501 -0.00000000000E+00 -0.00000000000E+00 -0.30195296303E+03  0.30195296303E+03  0.00000000000E+00 0.  1.
         25    2    1    2    0    0  0.20416962555E+03 -0.29261923635E+02  0.89104427495E+02  0.25715945816E+03  0.12509952738E+03 0.  0.
          5    1    3    3  502    0  0.14642777701E+03 -0.47932638012E+02  0.11371633285E+03  0.19153983508E+03  0.41800000000E+01 0. -1.
         -5    1    3    3    0  502  0.57741848538E+02  0.18670714377E+02 -0.24611905352E+02  0.65619623079E+02  0.41800000000E+01 0. -1.
        -11    1    1    2    0    0 -0.35337120241E+02  0.33347187881E+02 -0.69629679306E+02  0.84906061307E+02  0.00000000000E+00 0.  1.
         11    1    1    2    0    0 -0.16883250531E+03 -0.40852642470E+01 -0.89965135568E+02  0.19135001921E+03  0.00000000000E+00 0. -1.
</event>
<event>
 7    1  0.2899775E-009  0.2152350E+03  0.7561462E-02  0.1137486E+00
         -1   -1    0    0    0  501 -0.00000000000E+00  0.00000000000E+00  0.32666560188E+02  0.32666560188E+02  0.00000000000E+00 0.  1.
          1   -1    0    0  501    0  0.00000000000E+00 -0.00000000000E+00 -0.16084479671E+04  0.16084479671E+04  0.00000000000E+00 0. -1.
         25    2    1    2    0    0  0.85056350262E+02 -0.17509378195E+03 -0.10013450436E+04  0.10277314574E+04  0.12509051520E+03 0.  0.
          5    1    3    3  502    0  0.10618353089E+03 -0.15967534113E+03 -0.71889113709E+03  0.74403837011E+03  0.41800000000E+01 0. -1.
         -5    1    3    3    0  502 -0.21127180633E+02 -0.15418440813E+02 -0.28245390647E+03  0.28369308726E+03  0.41800000000E+01 0. -1.
        -11    1    1    2    0    0 -0.38780883123E+02  0.15825193937E+03 -0.47963487256E+03  0.50655428553E+03  0.00000000000E+00 0.  1.
         11    1    1    2    0    0 -0.46275467139E+02  0.16841842577E+02 -0.94801490810E+02  0.10682878442E+03  0.00000000000E+00 0. -1.
</event>
<event>
 7    1  0.2899775E-009  0.6990792E+02  0.7561462E-02  0.1360406E+00
         -1   -1    0    0    0  501 -0.00000000000E+00  0.00000000000E+00  0.48405554915E+02  0.48405554915E+02  0.00000000000E+00 0.  1.
          1   -1    0    0  501    0  0.00000000000E+00 -0.00000000000E+00 -0.28515396023E+03  0.28515396023E+03  0.00000000000E+00 0. -1.
         25    2    1    2    0    0 -0.30087172319E+02  0.14627377009E+02 -0.17687409839E+03  0.21920643473E+03  0.12509123170E+03 0.  0.
          5    1    3    3  502    0 -0.30572058570E+02 -0.28870952317E+01 -0.19273196872E+03  0.19520776176E+03  0.41800000000E+01 0. -1.
         -5    1    3    3    0  502  0.48488625089E+00  0.17514472241E+02  0.15857870332E+02  0.23998672964E+02  0.41800000000E+01 0. -1.
        -11    1    1    2    0    0 -0.24733548962E+02  0.14564405899E+02 -0.39820840877E+02  0.49087368351E+02  0.00000000000E+00 0. -1.
         11    1    1    2    0    0  0.54820721281E+02 -0.29191782908E+02 -0.20053466044E+02  0.65265712066E+02  0.00000000000E+00 0.  1.
</event>
<event>
 7    1  0.2899775E-009  0.1320344E+03  0.7561462E-02  0.1224468E+00
          3   -1    0    0  501    0  0.00000000000E+00  0.00000000000E+00  0.78865952712E+02  0.78865952712E+02  0.00000000000E+00 0. -1.
         -3   -1    0    0    0  501 -0.00000000000E+00 -0.00000000000E+00 -0.26707943274E+03  0.26707943274E+03  0.00000000000E+00 0.  1.
         25    2    1    2    0    0 -0.87476979864E+02 -0.19114169874E+02 -0.14095993323E+03  0.20865008711E+03  0.12509029771E+03 0.  0.
          5    1    3    3  502    0 -0.10743190490E+03 -0.42514703360E+02 -0.81099751606E+02  0.14122236474E+03  0.41800000000E+01 0.  1.
         -5    1    3    3    0  502  0.19954925037E+02  0.23400533486E+02 -0.59860181621E+02  0.67427722372E+02  0.41800000000E+01 0.  1.
        -11    1    1    2    0    0  0.71386956875E+02  0.46825928859E+02 -0.67385999147E+01  0.85639791886E+02  0.00000000000E+00 0. -1.
         11    1    1    2    0    0  0.16090022989E+02 -0.27711758985E+02 -0.40514946890E+02  0.51655506457E+02  0.00000000000E+00 0.  1.
</event>
<event>
 7    1  0.2899775E-009  0.1086278E+03  0.7561462E-02  0.1263132E+00
          1   -1    0    0  501    0  0.00000000000E+00  0.00000000000E+00  0.52289554573E+02  0.52289554573E+02  0.00000000000E+00 0. -1.
         -1   -1    0    0    0  501 -0.00000000000E+00 -0.00000000000E+00 -0.31640208811E+03  0.31640208811E+03  0.00000000000E+00 0.  1.
         25    2    1    2    0    0  0.74654647125E+02 -0.20055406501E+02 -0.13600565765E+03  0.20029933160E+03  0.12508696039E+03 0.  0.
          5    1    3    3  502    0 -0.85697354080E+01  0.27912654192E+02 -0.88040087910E+02  0.92849804028E+02  0.41800000000E+01 0.  1.
         -5    1    3    3    0  502  0.83224382532E+02 -0.47968060693E+02 -0.47965569740E+02  0.10744952757E+03  0.41800000000E+01 0.  1.
        -11    1    1    2    0    0 -0.41326775058E+02 -0.14313708914E+02 -0.10790206884E+03  0.11642869517E+03  0.00000000000E+00 0.  1.
         11    1    1    2    0    0 -0.33327872067E+02  0.34369115415E+02 -0.20204807048E+02  0.51963615913E+02  0.00000000000E+00 0. -1.
</event>
<event>
 7    1  0.2899775E-009  0.9523428E+02  0.7561462E-02  0.1290649E+00
         -2   -1    0    0    0  501 -0.00000000000E+00  0.00000000000E+00  0.63398083995E+02  0.63398083995E+02  0.00000000000E+00 0.  1.
          2   -1    0    0  501    0  0.00000000000E+00 -0.00000000000E+00 -0.23018925325E+03  0.23018925325E+03  0.00000000000E+00 0. -1.
         25    2    1    2    0    0  0.16884828099E+02  0.35129991337E+02 -0.13321043836E+03  0.18684941289E+03  0.12509383877E+03 0.  0.
          5    1    3    3  502    0  0.38664016723E+02  0.58698845484E+02 -0.13722870728E+03  0.15423894175E+03  0.41800000000E+01 0. -1.
         -5    1    3    3    0  502 -0.21779188624E+02 -0.23568854147E+02  0.40182689174E+01  0.32610471141E+02  0.41800000000E+01 0. -1.
        -11    1    1    2    0    0  0.31720563606E+02 -0.14923520096E+02 -0.40592776328E+02  0.53634681853E+02  0.00000000000E+00 0. -1.
         11    1    1    2    0    0 -0.48605391705E+02 -0.20206471241E+02  0.70120454370E+01  0.53103242500E+02  0.00000000000E+00 0.  1.
</event>
<event>
 7    1  0.2899775E-009  0.1148255E+03  0.7561462E-02  0.1251886E+00
          2   -1    0    0  501    0  0.00000000000E+00  0.00000000000E+00  0.99755057148E+02  0.99755057148E+02  0.00000000000E+00 0. -1.
         -2   -1    0    0    0  501 -0.00000000000E+00 -0.00000000000E+00 -0.14709137250E+03  0.14709137250E+03  0.00000000000E+00 0.  1.
         25    2    1    2    0    0  0.51990982607E+02 -0.32497385130E+01 -0.16676453274E+02  0.13654701627E+03  0.12511339051E+03 0.  0.
          5    1    3    3  502    0 -0.16771315904E+02  0.43795775544E+02 -0.23922990861E+02  0.52812203934E+02  0.41800000000E+01 0.  1.
         -5    1    3    3    0  502  0.68762298511E+02 -0.47045514057E+02  0.72465375866E+01  0.83734812333E+02  0.41800000000E+01 0.  1.
        -11    1    1    2    0    0 -0.43256934201E+02 -0.37636681145E+02 -0.36668863998E+02  0.68060911771E+02  0.00000000000E+00 0.  1.
         11    1    1    2    0    0 -0.87340484065E+01  0.40886419658E+02  0.60090019226E+01  0.42238501609E+02  0.00000000000E+00 0. -1.
</event>
<event>
 7    1  0.2899775E-009  0.1007024E+03  0.7561462E-02  0.1278826E+00
          1   -1    0    0  501    0  0.00000000000E+00  0.00000000000E+00  0.32213889522E+02  0.32213889522E+02  0.00000000000E+00 0. -1.
         -1   -1    0    0    0  501 -0.00000000000E+00 -0.00000000000E+00 -0.36395756453E+03  0.36395756453E+03  0.00000000000E+00 0.  1.
         25    2    1    2    0    0 -0.10689144628E+02  0.82489862806E+01 -0.21123840565E+03  0.24586465584E+03  0.12508181875E+03 0.  0.
          5    1    3    3  502    0  0.32234195175E+02  0.44588595253E+02 -0.47915231797E+02  0.73078916271E+02  0.41800000000E+01 0.  1.
         -5    1    3    3    0  502 -0.42923339803E+02 -0.36339608972E+02 -0.16332317385E+03  0.17278573957E+03  0.41800000000E+01 0.  1.
        -11    1    1    2    0    0 -0.39376796697E+02 -0.42513872450E+01 -0.52291943119E+02  0.65597665559E+02  0.00000000000E+00 0. -1.
         11    1    1    2    0    0  0.50065941325E+02 -0.39975990356E+01 -0.68213326241E+02  0.84709132658E+02  0.00000000000E+00 0.  1.
</event>
<event>
 7    1  0.2899775E-009  0.9091373E+02  0.7561462E-02  0.1300654E+00
          2   -1    0    0  501    0  0.00000000000E+00  0.00000000000E+00  0.13299359961E+03  0.13299359961E+03  0.00000000000E+00 0. -1.
         -2   -1    0    0    0  501 -0.00000000000E+00 -0.00000000000E+00 -0.11542045512E+03  0.11542045512E+03  0.00000000000E+00 0.  1.
         25    2    1    2    0    0 -0.98286220420E+01 -0.94478056446E+01 -0.48767944972E+02  0.13495009109E+03  0.12508937519E+03 0.  0.
          5    1    3    3  502    0 -0.28524294926E+01  0.53513344192E+02  0.18080761645E+01  0.53782486926E+02  0.41800000000E+01 0. -1.
         -5    1    3    3    0  502 -0.69761925494E+01 -0.62961149836E+02 -0.50576021137E+02  0.81167604161E+02  0.41800000000E+01 0. -1.
        -11    1    1    2    0    0  0.32673633647E+02  0.21151775630E+02 -0.34763339793E+01  0.39077472358E+02  0.00000000000E+00 0.  1.
         11    1    1    2    0    0 -0.22845011605E+02 -0.11703969985E+02  0.69817423441E+02  0.74386491278E+02  0.00000000000E+00 0. -1.
</event>
<event>
 7    1  0.2899775E-009  0.4096644E+03  0.7561462E-02  0.1040484E+00
          1   -1    0    0  501    0  0.00000000000E+00  0.00000000000E+00  0.62714771705E+03  0.62714771705E+03  0.00000000000E+00 0. -1.
         -1   -1    0    0    0  501 -0.00000000000E+00 -0.00000000000E+00 -0.31838949217E+03  0.31838949217E+03  0.00000000000E+00 0.  1.
         25    2    1    2    0    0 -0.35140658815E+03 -0.19985862540E+03 -0.90547150666E+01  0.42327306240E+03  0.12509211465E+03 0.  0.
          5    1    3    3  502    0 -0.16038241199E+03 -0.12118965659E+03  0.52243936739E+02  0.20774107024E+03  0.41800000000E+01 0. -1.
         -5    1    3    3    0  502 -0.19102417615E+03 -0.78668968818E+02 -0.61298651806E+02  0.21553199216E+03  0.41800000000E+01 0. -1.
        -11    1    1    2    0    0  0.29747893548E+03  0.13332751375E+03  0.27512862062E+03  0.42657437905E+03  0.00000000000E+00 0. -1.
         11    1    1    2    0    0  0.53927652666E+02  0.66531111653E+02  0.42684319322E+02  0.95689767770E+02  0.00000000000E+00 0.  1.
</event>
<event>
 7    1  0.2899775E-009  0.1455029E+03  0.7561462E-02  0.1206110E+00
          3   -1    0    0  501    0  0.00000000000E+00  0.00000000000E+00  0.14182959990E+03  0.14182959990E+03  0.00000000000E+00 0. -1.
         -3   -1    0    0    0  501 -0.00000000000E+00 -0.00000000000E+00 -0.24037047852E+03  0.24037047852E+03  0.00000000000E+00 0.  1.
         25    2    1    2    0    0  0.61311119301E+02 -0.12027533052E+03  0.14928784868E+02  0.18464966680E+03  0.12508965725E+03 0.  0.
          5    1    3    3  502    0  0.13442635607E+02 -0.10297299100E+03  0.56951847137E+02  0.11851213701E+03  0.41800000000E+01 0.  1.
         -5    1    3    3    0  502  0.47868483694E+02 -0.17302339521E+02 -0.42023062269E+02  0.66137529788E+02  0.41800000000E+01 0.  1.
        -11    1    1    2    0    0 -0.13893949377E+02  0.44473175377E+02 -0.95630293038E+02  0.10637696228E+03  0.00000000000E+00 0.  1.
         11    1    1    2    0    0 -0.47417169924E+02  0.75802155139E+02 -0.17839370442E+02  0.91173449343E+02  0.00000000000E+00 0. -1.
</event>
<event>
 7    1  0.4759019E-009  0.1165013E+03  0.7561462E-02  0.1248983E+00
          1   -1    0    0  501    0  0.00000000000E+00  0.00000000000E+00  0.10688569472E+03  0.10688569472E+03  0.00000000000E+00 0. -1.
         -1   -1    0    0    0  501 -0.00000000000E+00 -0.00000000000E+00 -0.20033598508E+03  0.20033598508E+03  0.00000000000E+00 0.  1.
         25    2    1    2    0    0  0.25370311092E+02 -0.92201101492E+02 -0.27746535759E+02  0.15987545624E+03  0.12508235471E+03 0.  0.
          5    1    3    3  502    0  0.29351337057E+02 -0.42838213017E+02  0.46966467809E+02  0.70142248182E+02  0.41800000000E+01 0. -1.
         -5    1    3    3    0  502 -0.39810259653E+01 -0.49362888476E+02 -0.74713003568E+02  0.89733208059E+02  0.41800000000E+01 0. -1.
        -11    1    1    2    0    0 -0.58845870107E+02  0.49148710865E+02 -0.45700750368E+02  0.89258001281E+02  0.00000000000E+00 0.  1.
         11    1    1    2    0    0  0.33475559015E+02  0.43052390627E+02 -0.20003004231E+02  0.58088222286E+02  0.00000000000E+00 0. -1.
</event>
<event>
 7    1  0.2899775E-009  0.1426805E+03  0.7561462E-02  0.1209767E+00
          2   -1    0    0  501    0  0.00000000000E+00  0.00000000000E+00  0.70617652462E+02  0.70617652462E+02  0.00000000000E+00 0. -1.
         -2   -1    0    0    0  501 -0.00000000000E+00 -0.00000000000E+00 -0.32259410470E+03  0.32259410470E+03  0.00000000000E+00 0.  1.
         25    2    1    2    0    0  0.39865297203E+02 -0.91074113417E+02 -0.92976164661E+02  0.18486716168E+03  0.12509022430E+03 0.  0.
          5    1    3    3  502    0 -0.14659060240E+02 -0.10165286787E+03 -0.48843832262E+02  0.11380415609E+03  0.41800000000E+01 0. -1.
         -5    1    3    3    0  502  0.54524357443E+02  0.10578754450E+02 -0.44132332400E+02  0.71063005589E+02  0.41800000000E+01 0. -1.
        -11    1    1    2    0    0 -0.47245400997E+02  0.10273233476E+03 -0.11119811395E+03  0.15859092366E+03  0.00000000000E+00 0. -1.
         11    1    1    2    0    0  0.73801037939E+01 -0.11658221343E+02 -0.47802173624E+02  0.49753671825E+02  0.00000000000E+00 0.  1.
</event>
<event>
 7    1  0.2899775E-009  0.1009293E+03  0.7561462E-02  0.1278354E+00
          2   -1    0    0  501    0  0.00000000000E+00  0.00000000000E+00  0.87530081775E+03  0.87530081775E+03  0.00000000000E+00 0.  1.
         -2   -1    0    0    0  501 -0.00000000000E+00 -0.00000000000E+00 -0.17406289413E+02  0.17406289413E+02  0.00000000000E+00 0. -1.
         25    2    1    2    0    0 -0.28358099450E+02 -0.21179596313E+02  0.64623678828E+03  0.65918293781E+03  0.12508957537E+03 0.  0.
          5    1    3    3  502    0  0.17363033044E+01  0.40495013039E+02  0.91006866417E+02  0.99712501550E+02  0.41800000000E+01 0. -1.
         -5    1    3    3    0  502 -0.30094402754E+02 -0.61674609353E+02  0.55522992187E+03  0.55947043626E+03  0.41800000000E+01 0. -1.
        -11    1    1    2    0    0  0.57033772870E+02  0.55492032489E+00  0.16769460706E+03  0.17712888082E+03  0.00000000000E+00 0. -1.
         11    1    1    2    0    0 -0.28675673420E+02  0.20624675988E+02  0.43963133000E+02  0.56395288535E+02  0.00000000000E+00 0.  1.
</event>
<event>
 7    1  0.2899775E-009  0.1077876E+03  0.7561462E-02  0.1264723E+00
         -2   -1    0    0    0  501 -0.00000000000E+00  0.00000000000E+00  0.52269237625E+03  0.52269237625E+03  0.00000000000E+00 0.  1.
          2   -1    0    0  501    0  0.00000000000E+00 -0.00000000000E+00 -0.27819455335E+02  0.27819455335E+02  0.00000000000E+00 0. -1.
         25    2    1    2    0    0 -0.28585018991E+02  0.19603899294E+02  0.22903704754E+03  0.26326345755E+03  0.12509301641E+03 0.  0.
          5    1    3    3  502    0 -0.58881795260E+02 -0.22985806617E+02  0.63802134884E+02  0.89908831238E+02  0.41800000000E+01 0. -1.
         -5    1    3    3    0  502  0.30296776269E+02  0.42589705912E+02  0.16523491266E+03  0.17335462631E+03  0.41800000000E+01 0. -1.
        -11    1    1    2    0    0 -0.34028426912E+02 -0.14449568187E+02  0.15960239048E+03  0.16382810169E+03  0.00000000000E+00 0.  1.
         11    1    1    2    0    0  0.62613445903E+02 -0.51543311068E+01  0.10623348290E+03  0.12342027235E+03  0.00000000000E+00 0. -1.
</event>
<event>
 7    1  0.2899775E-009  0.1158809E+03  0.7561462E-02  0.1250051E+00
         -2   -1    0    0    0  501 -0.00000000000E+00  0.00000000000E+00  0.21552901239E+02  0.21552901239E+02  0.00000000000E+00 0.  1.
          2   -1    0    0  501    0  0.00000000000E+00 -0.00000000000E+00 -0.67405578870E+03  0.67405578870E+03  0.00000000000E+00 0. -1.
         25    2    1    2    0    0  0.46174482427E+02  0.11792252461E+02 -0.31834723146E+03  0.34534614189E+03  0.12509139817E+03 0.  0.
          5    1    3    3  502    0  0.84498508273E+02  0.24224838486E+02 -0.25859045476E+03  0.27315441859E+03  0.41800000000E+01 0.  1.
         -5    1    3    3    0  502 -0.38324025846E+02 -0.12432586025E+02 -0.59756776694E+02  0.72191723301E+02  0.41800000000E+01 0.  1.
        -11    1    1    2    0    0  0.25847600108E+02  0.10442597502E+02 -0.64421682825E+02  0.70194725528E+02  0.00000000000E+00 0.  1.
         11    1    1    2    0    0 -0.72022082535E+02 -0.22234849963E+02 -0.26973397318E+03  0.28006782252E+03  0.00000000000E+00 0. -1.
</event>
<event>
 7    1  0.2899775E-009  0.8944537E+02  0.7561462E-02  0.1304200E+00
          1   -1    0    0  501    0  0.00000000000E+00  0.00000000000E+00  0.14870490339E+04  0.14870490339E+04  0.00000000000E+00 0. -1.
         -1   -1    0    0    0  501 -0.00000000000E+00 -0.00000000000E+00 -0.97731800948E+01  0.97731800948E+01  0.00000000000E+00 0.  1.
         25    2    1    2    0    0 -0.30269732959E+01  0.42148749503E+02  0.10190071959E+04  0.10275254917E+04  0.12508913352E+03 0.  0.
          5    1    3    3  502    0 -0.27305993908E+02 -0.18317004210E+01  0.86570819627E+03  0.86615075243E+03  0.41800000000E+01 0. -1.
         -5    1    3    3    0  502  0.24279020612E+02  0.43980449924E+02  0.15329899958E+03  0.16137473931E+03  0.41800000000E+01 0. -1.
        -11    1    1    2    0    0 -0.15611198771E+02 -0.67527179773E+02  0.33246843906E+03  0.33961580132E+03  0.00000000000E+00 0.  1.
         11    1    1    2    0    0  0.18638172067E+02  0.25378430271E+02  0.12580021889E+03  0.12968092093E+03  0.00000000000E+00 0. -1.
</event>
<event>
 7    1  0.2899775E-009  0.1191402E+03  0.7561462E-02  0.1244522E+00
          4   -1    0    0  501    0  0.00000000000E+00  0.00000000000E+00  0.31899563644E+02  0.31899563644E+02  0.00000000000E+00 0. -1.
         -4   -1    0    0    0  501 -0.00000000000E+00 -0.00000000000E+00 -0.46171140014E+03  0.46171140014E+03  0.00000000000E+00 0.  1.
         25    2    1    2    0    0  0.33995638160E+02  0.34527484202E+02 -0.27375301484E+03  0.30485481603E+03  0.12509154706E+03 0.  0.
          5    1    3    3  502    0  0.54565676259E+02 -0.32009856312E+02 -0.11206504625E+03  0.12875593547E+03  0.41800000000E+01 0.  1.
         -5    1    3    3    0  502 -0.20570038099E+02  0.66537340514E+02 -0.16168796859E+03  0.17609888057E+03  0.41800000000E+01 0.  1.
        -11    1    1    2    0    0 -0.36200023813E+02  0.25983518897E+02 -0.53180988592E+02  0.69381571948E+02  0.00000000000E+00 0. -1.
         11    1    1    2    0    0  0.22043856527E+01 -0.60511003099E+02 -0.10287783306E+03  0.11937457580E+03  0.00000000000E+00 0.  1.
</event>
<event>
 7    1  0.2899775E-009  0.9518130E+02  0.7561462E-02  0.1290768E+00
         -2   -1    0    0    0  501 -0.00000000000E+00  0.00000000000E+00  0.17882061215E+02  0.17882061215E+02  0.00000000000E+00 0.  1.
          2   -1    0    0  501    0  0.00000000000E+00 -0.00000000000E+00 -0.11082031747E+04  0.11082031747E+04  0.00000000000E+00 0. -1.
         25    2    1    2    0    0 -0.17644781873E+02 -0.24209939464E+02 -0.94570913311E+03  0.95441611597E+03  0.12508756326E+03 0.  0.
          5    1    3    3  502    0  0.11662357747E+02  0.43675073368E+02 -0.54748399395E+03  0.54936301173E+03  0.41800000000E+01 0.  1.
         -5    1    3    3    0  502 -0.29307139620E+02 -0.67885012832E+02 -0.39822513916E+03  0.40505310424E+03  0.41800000000E+01 0.  1.
        -11    1    1    2    0    0  0.31002816942E+02 -0.11274957607E+02 -0.12440507312E+03  0.12870478447E+03  0.00000000000E+00 0. -1.
         11    1    1    2    0    0 -0.13358035069E+02  0.35484897071E+02 -0.20206907237E+02  0.42964335456E+02  0.00000000000E+00 0.  1.
</event>
<event>
 7    1  0.2899775E-009  0.9944868E+02  0.7561462E-02  0.1281460E+00
          1   -1    0    0  501    0  0.00000000000E+00  0.00000000000E+00  0.22368309772E+03  0.22368309772E+03  0.00000000000E+00 0. -1.
         -1   -1    0    0    0  501 -0.00000000000E+00 -0.00000000000E+00 -0.65399570526E+02  0.65399570526E+02  0.00000000000E+00 0.  1.
         25    2    1    2    0    0  0.44501753401E+02  0.14482520709E+02  0.57797597572E+02  0.14552686037E+03  0.12508938940E+03 0.  0.
          5    1    3    3  502    0  0.10171192021E+02  0.52103674805E+02 -0.16144041394E+02  0.55644842958E+02  0.41800000000E+01 0.  1.
         -5    1    3    3    0  502  0.34330561381E+02 -0.37621154097E+02  0.73941638966E+02  0.89882017407E+02  0.41800000000E+01 0.  1.
        -11    1    1    2    0    0  0.20812817973E+02  0.12045984333E+02  0.53999803595E+02  0.59112248467E+02  0.00000000000E+00 0. -1.
         11    1    1    2    0    0 -0.65314571374E+02 -0.26528505042E+02  0.46486126031E+02  0.84443559416E+02  0.00000000000E+00 0.  1.
</event>
<event>
 7    1  0.2899775E-009  0.1027599E+03  0.7561462E-02  0.1274597E+00
         -1   -1    0    0    0  501 -0.00000000000E+00  0.00000000000E+00  0.57159120215E+02  0.57159120215E+02  0.00000000000E+00 0.  1.
          1   -1    0    0  501    0  0.00000000000E+00 -0.00000000000E+00 -0.22791418548E+03  0.22791418548E+03  0.00000000000E+00 0. -1.
         25    2    1    2    0    0  0.28873989130E+02  0.54365006490E+01 -0.69802733283E+02  0.14622860700E+03  0.12508845328E+03 0.  0.
          5    1    3    3  502    0  0.63194645021E+02  0.32472999153E+02 -0.97361137692E+01  0.71835389222E+02  0.41800000000E+01 0.  1.
         -5    1    3    3    0  502 -0.34320655892E+02 -0.27036498504E+02 -0.60066619514E+02  0.74393217782E+02  0.41800000000E+01 0.  1.
        -11    1    1    2    0    0  0.25767149466E+02 -0.21439995314E+02 -0.17483353183E+02  0.37805912622E+02  0.00000000000E+00 0. -1.
         11    1    1    2    0    0 -0.54641138595E+02  0.16003494665E+02 -0.83468978799E+02  0.10103878607E+03  0.00000000000E+00 0.  1.
</event>
<event>
 7    1  0.2899775E-009  0.1610551E+03  0.7561462E-02  0.1187511E+00
         -2   -1    0    0    0  501 -0.00000000000E+00  0.00000000000E+00  0.59102927022E+02  0.59102927022E+02  0.00000000000E+00 0.  1.
          2   -1    0    0  501    0  0.00000000000E+00 -0.00000000000E+00 -0.51169487218E+03  0.51169487218E+03  0.00000000000E+00 0. -1.
         25    2    1    2    0    0 -0.68400953791E+02 -0.10752530061E+03 -0.31542903934E+03  0.36246172961E+03  0.12507056337E+03 0.  0.
          5    1    3    3  502    0  0.33061326058E+02 -0.42191862116E+02 -0.13543707667E+03  0.14571849109E+03  0.41800000000E+01 0.  1.
         -5    1    3    3    0  502 -0.10146227985E+03 -0.65333438496E+02 -0.17999196267E+03  0.21674323852E+03  0.41800000000E+01 0.  1.
        -11    1    1    2    0    0  0.15164117473E+02  0.90413026900E+02 -0.11756051446E+03  0.14908031544E+03  0.00000000000E+00 0. -1.
         11    1    1    2    0    0  0.53236836318E+02  0.17112273712E+02 -0.19602391359E+02  0.59255754149E+02  0.00000000000E+00 0.  1.
</event>
<event>
 7    1  0.2899775E-009  0.1390121E+03  0.7561462E-02  0.1214665E+00
         -2   -1    0    0    0  501 -0.00000000000E+00  0.00000000000E+00  0.30965158070E+02  0.30965158070E+02  0.00000000000E+00 0.  1.
          2   -1    0    0  501    0  0.00000000000E+00 -0.00000000000E+00 -0.81628121463E+03  0.81628121463E+03  0.00000000000E+00 0. -1.
         25    2    1    2    0    0  0.99329231587E+02  0.51138004760E+02 -0.48016842991E+03  0.50860983198E+03  0.12506337726E+03 0.  0.
          5    1    3    3  502    0 -0.25906662416E+00  0.50603889446E+02 -0.69837580212E+02  0.86345704887E+02  0.41800000000E+01 0. -1.
         -5    1    3    3    0  502  0.99588298211E+02  0.53411531412E+00 -0.41033084970E+03  0.42226412709E+03  0.41800000000E+01 0. -1.
        -11    1    1    2    0    0 -0.92901209328E+02 -0.19037121298E+02 -0.13266078953E+03  0.16307032765E+03  0.00000000000E+00 0.  1.
         11    1    1    2    0    0 -0.64280222586E+01 -0.32100883462E+02 -0.17248683712E+03  0.17556621306E+03  0.00000000000E+00 0. -1.
</event>
<event>
 7    1  0.2899775E-009  0.1089758E+03  0.7561462E-02  0.1262478E+00
          2   -1    0    0  501    0  0.00000000000E+00  0.00000000000E+00  0.15594084893E+03  0.15594084893E+03  0.00000000000E+00 0.  1.
         -2   -1    0    0    0  501 -0.00000000000E+00 -0.00000000000E+00 -0.87795016901E+02  0.87795016901E+02  0.00000000000E+00 0. -1.
         25    2    1    2    0    0  0.90767790761E+01  0.31683803847E+01 -0.40689663703E+01  0.12553110609E+03  0.12509626516E+03 0.  0.
          5    1    3    3  502    0 -0.57513478150E+02  0.25474411151E+01 -0.98543320079E+01  0.58556552874E+02  0.41800000000E+01 0. -1.
         -5    1    3    3    0  502  0.66590257227E+02  0.62093926953E+00  0.57853656376E+01  0.66974553217E+02  0.41800000000E+01 0. -1.
        -11    1    1    2    0    0 -0.48850895238E+02 -0.16491791999E+02  0.42167328515E+02  0.66606852223E+02  0.00000000000E+00 0.  1.
         11    1    1    2    0    0  0.39774116162E+02  0.13323411614E+02  0.30047469881E+02  0.51597907514E+02  0.00000000000E+00 0. -1.
</event>
<event>
 7    1  0.2899775E-009  0.1857964E+03  0.7561462E-02  0.1162308E+00
          2   -1    0    0  501    0  0.00000000000E+00  0.00000000000E+00  0.46440179820E+03  0.46440179820E+03  0.00000000000E+00 0. -1.
         -2   -1    0    0    0  501 -0.00000000000E+00 -0.00000000000E+00 -0.11792864513E+03  0.11792864513E+03  0.00000000000E+00 0.  1.
         25    2    1    2    0    0 -0.15686824563E+03 -0.26685734992E+02  0.14370033078E+02  0.20291082343E+03  0.12508608826E+03 0.  0.
          5    1    3    3  502    0 -0.47596546999E+02 -0.62277837172E+02  0.35226208651E+02  0.86036727419E+02  0.41800000000E+01 0.  1.
         -5    1    3    3    0  502 -0.10927169863E+03  0.35592102180E+02 -0.20856175573E+02  0.11687409601E+03  0.41800000000E+01 0.  1.
        -11    1    1    2    0    0  0.13342021087E+02 -0.22686677458E+02  0.89134415938E+02  0.92938899097E+02  0.00000000000E+00 0. -1.
         11    1    1    2    0    0  0.14352622454E+03  0.49372412450E+02  0.24296870405E+03  0.28648072080E+03  0.00000000000E+00 0.  1.
</event>
<event>
 7    1  0.2899775E-009  0.1281705E+03  0.7561462E-02  0.1230196E+00
          2   -1    0    0  501    0  0.00000000000E+00  0.00000000000E+00  0.63491533351E+02  0.63491533351E+02  0.00000000000E+00 0. -1.
         -2   -1    0    0    0  501 -0.00000000000E+00 -0.00000000000E+00 -0.30600083081E+03  0.30600083081E+03  0.00000000000E+00 0.  1.
         25    2    1    2    0    0 -0.65743982227E+02 -0.42538477282E+02 -0.75552664515E+02  0.16579375431E+03  0.12509024983E+03 0.  0.
          5    1    3    3  502    0  0.78890641552E+01 -0.68252233454E+02 -0.27722733153E+02  0.74206650903E+02  0.41800000000E+01 0. -1.
         -5    1    3    3    0  502 -0.73633046382E+02  0.25713756173E+02 -0.47829931362E+02  0.91587103405E+02  0.41800000000E+01 0. -1.
        -11    1    1    2    0    0  0.77938621004E+02  0.15117406211E+02 -0.14871328009E+03  0.16857818450E+03  0.00000000000E+00 0.  1.
         11    1    1    2    0    0 -0.12194638777E+02  0.27421071071E+02 -0.18243352855E+02  0.35120425353E+02  0.00000000000E+00 0. -1.
</event>
<event>
 7    1  0.2899775E-009  0.8262810E+02  0.7561462E-02  0.1321754E+00
          2   -1    0    0  501    0  0.00000000000E+00  0.00000000000E+00  0.52058913959E+02  0.52058913959E+02  0.00000000000E+00 0. -1.
         -2   -1    0    0    0  501 -0.00000000000E+00 -0.00000000000E+00 -0.30972254227E+03  0.30972254227E+03  0.00000000000E+00 0.  1.
         25    2    1    2    0    0  0.46471768568E+02 -0.47472110578E+02 -0.14140628928E+03  0.20014071685E+03  0.12508933342E+03 0.  0.
          5    1    3    3  502    0  0.27904043676E+02 -0.10596521679E+01 -0.14698120945E+03  0.14966865687E+03  0.41800000000E+01 0. -1.
         -5    1    3    3    0  502  0.18567724891E+02 -0.46412458410E+02  0.55749201749E+01  0.50472059977E+02  0.41800000000E+01 0. -1.
        -11    1    1    2    0    0 -0.15566482679E+02 -0.12119931414E+02 -0.85596828481E+02  0.87840908274E+02  0.00000000000E+00 0.  1.
         11    1    1    2    0    0 -0.30905285889E+02  0.59592041992E+02 -0.30660510552E+02  0.73799831111E+02  0.00000000000E+00 0. -1.
</event>
<event>
 7    1  0.2899775E-009  0.1709033E+03  0.7561462E-02  0.1176909E+00
         -1   -1    0    0    0  501 -0.00000000000E+00  0.00000000000E+00  0.67536540710E+02  0.67536540710E+02  0.00000000000E+00 0.  1.
          1   -1    0    0  501    0  0.00000000000E+00 -0.00000000000E+00 -0.79798579700E+03  0.79798579700E+03  0.00000000000E+00 0. -1.
         25    2    1    2    0    0 -0.79253379338E+01 -0.13585780406E+03 -0.66267853812E+03  0.68797651022E+03  0.12509468342E+03 0.  0.
          5    1    3    3  502    0  0.19980318030E+02  0.14348678713E+02 -0.17887283546E+03  0.18060471022E+03  0.41800000000E+01 0. -1.
         -5    1    3    3    0  502 -0.27905655964E+02 -0.15020648277E+03 -0.48380570266E+03  0.50737180000E+03  0.41800000000E+01 0. -1.
        -11    1    1    2    0    0  0.11487762919E+02 -0.11713816063E+02 -0.84826105035E+01  0.18469890758E+02  0.00000000000E+00 0.  1.
         11    1    1    2    0    0 -0.35624249856E+01  0.14757162012E+03 -0.59288107663E+02  0.15907593673E+03  0.00000000000E+00 0. -1.
</event>
<event>
 7    1  0.2899775E-009  0.7500139E+02  0.7561462E-02  0.1343867E+00
         -1   -1    0    0    0  501 -0.00000000000E+00  0.00000000000E+00  0.28708890647E+03  0.28708890647E+03  0.00000000000E+00 0.  1.
          1   -1    0    0  501    0  0.00000000000E+00 -0.00000000000E+00 -0.44843505709E+02  0.44843505709E+02  0.00000000000E+00 0. -1.
         25    2    1    2    0    0  0.15250807334E+02  0.27221990868E+02  0.13632337265E+03  0.18763060451E+03  0.12509019909E+03 0.  0.
          5    1    3    3  502    0 -0.15982564290E+02  0.38499317060E+02 -0.51890244834E+01  0.42214193708E+02  0.41800000000E+01 0. -1.
         -5    1    3    3    0  502  0.31233371624E+02 -0.11277326192E+02  0.14151239713E+03  0.14541641080E+03  0.41800000000E+01 0. -1.
        -11    1    1    2    0    0  0.27098221128E+02 -0.92275608494E+01 -0.20725279151E+00  0.28626987639E+02  0.00000000000E+00 0. -1.
         11    1    1    2    0    0 -0.42349028462E+02 -0.17994430018E+02  0.10612928090E+03  0.11567482003E+03  0.00000000000E+00 0.  1.
</event>
<event>
 7    1  0.2899775E-009  0.2283657E+03  0.7561462E-02  0.1127795E+00
         -1   -1    0    0    0  501 -0.00000000000E+00  0.00000000000E+00  0.78910346025E+02  0.78910346025E+02  0.00000000000E+00 0.  1.
          1   -1    0    0  501    0  0.00000000000E+00 -0.00000000000E+00 -0.77537493422E+03  0.77537493422E+03  0.00000000000E+00 0. -1.
         25    2    1    2    0    0 -0.11612684705E+03  0.18535098040E+03 -0.29342241258E+03  0.38676004708E+03  0.12508473636E+03 0.  0.
          5    1    3    3  502    0 -0.51839951342E+02  0.11058822695E+03 -0.25133407865E+03  0.27946990533E+03  0.41800000000E+01 0. -1.
         -5    1    3    3    0  502 -0.64286895712E+02  0.74762753452E+02 -0.42088333937E+02  0.10729014175E+03  0.41800000000E+01 0. -1.
        -11    1    1    2    0    0  0.65253519671E+02 -0.17092123219E+03 -0.33043171650E+03  0.37769989239E+03  0.00000000000E+00 0. -1.
         11    1    1    2    0    0  0.50873327384E+02 -0.14429748212E+02 -0.72610459114E+02  0.89825340775E+02  0.00000000000E+00 0.  1.
</event>
<event>
 7    1  0.2899775E-009  0.1708643E+03  0.7561462E-02  0.1176950E+00
         -2   -1    0    0    0  501 -0.00000000000E+00  0.00000000000E+00  0.38845534640E+02  0.38845534640E+02  0.00000000000E+00 0.  1.
          2   -1    0    0  501    0  0.00000000000E+00 -0.00000000000E+00 -0.86500909051E+03  0.86500909051E+03  0.00000000000E+00 0. -1.
         25    2    1    2    0    0  0.11403213350E+03 -0.68901745667E+02 -0.28015881321E+03  0.33449386776E+03  0.12508560638E+03 0.  0.
          5    1    3    3  502    0  0.13404697010E+03 -0.82782667080E+02 -0.23381504933E+03  0.28197253387E+03  0.41800000000E+01 0.  1.
         -5    1    3    3    0  502 -0.20014836600E+02  0.13880921413E+02 -0.46343763878E+02  0.52521333892E+02  0.41800000000E+01 0.  1.
        -11    1    1    2    0    0 -0.19825092317E+02  0.61839733623E+02 -0.17984933462E+03  0.19121446102E+03  0.00000000000E+00 0.  1.
         11    1    1    2    0    0 -0.94207041180E+02  0.70620120436E+01 -0.36615540804E+03  0.37814629637E+03  0.00000000000E+00 0. -1.
</event>
<event>
 7    1  0.2899775E-009  0.1544327E+03  0.7561462E-02  0.1195130E+00
          2   -1    0    0  501    0  0.00000000000E+00  0.00000000000E+00  0.12384462128E+04  0.12384462128E+04  0.00000000000E+00 0. -1.
         -2   -1    0    0    0  501 -0.00000000000E+00 -0.00000000000E+00 -0.28836153903E+02  0.28836153903E+02  0.00000000000E+00 0.  1.
         25    2    1    2    0    0 -0.73245641974E+02 -0.10948471816E+03  0.90276607825E+03  0.92086335685E+03  0.12510356662E+03 0.  0.
          5    1    3    3  502    0 -0.97144818215E+02 -0.97443809538E+02  0.85449601515E+03  0.86551332978E+03  0.41800000000E+01 0.  1.
         -5    1    3    3    0  502  0.23899176240E+02 -0.12040908617E+02  0.48270063103E+02  0.55350027075E+02  0.41800000000E+01 0.  1.
        -11    1    1    2    0    0  0.16068332496E+02  0.76380000957E+02  0.24025168993E+03  0.25261229260E+03  0.00000000000E+00 0. -1.
         11    1    1    2    0    0  0.57177309478E+02  0.33104717198E+02  0.66592290733E+02  0.93806717270E+02  0.00000000000E+00 0.  1.
</event>
<event>
 7    1  0.2899775E-009  0.1588962E+03  0.7561462E-02  0.1189949E+00
         -1   -1    0    0    0  501 -0.00000000000E+00  0.00000000000E+00  0.63460426300E+03  0.63460426300E+03  0.00000000000E+00 0.  1.
          1   -1    0    0  501    0  0.00000000000E+00 -0.00000000000E+00 -0.56323095401E+02  0.56323095401E+02  0.00000000000E+00 0. -1.
         25    2    1    2    0    0 -0.70556565138E+02  0.13609075736E+03  0.27237276935E+03  0.33665115562E+03  0.12509257362E+03 0.  0.
          5    1    3    3  502    0 -0.72014512560E+02  0.11677150115E+03  0.28273191938E+03  0.31428726372E+03  0.41800000000E+01 0. -1.
         -5    1    3    3    0  502  0.14579474222E+01  0.19319256215E+02 -0.10359150037E+02  0.22363891899E+02  0.41800000000E+01 0. -1.
        -11    1    1    2    0    0  0.22831009811E+02 -0.95106380063E+02  0.25576451611E+03  0.27382835178E+03  0.00000000000E+00 0. -1.
         11    1    1    2    0    0  0.47725555326E+02 -0.40984377302E+02  0.50143882141E+02  0.80447850998E+02  0.00000000000E+00 0.  1.
</event>
<event>
 7    1  0.2899775E-009  0.1325211E+03  0.7561462E-02  0.1223762E+00
         -1   -1    0    0    0  501 -0.00000000000E+00  0.00000000000E+00  0.93972591269E+02  0.93972591269E+02  0.00000000000E+00 0.  1.
          1   -1    0    0  501    0  0.00000000000E+00 -0.00000000000E+00 -0.45713235736E+03  0.45713235736E+03  0.00000000000E+00 0. -1.
         25    2    1    2    0    0  0.99089815800E+02 -0.17025044995E+02  0.31859641503E+01  0.16051861412E+03  0.12508969326E+03 0.  0.
          5    1    3    3  502    0  0.42297430613E+02 -0.49358765929E+02  0.48219779112E+02  0.81043074400E+02  0.41800000000E+01 0. -1.
         -5    1    3    3    0  502  0.56792385187E+02  0.32333720933E+02 -0.45033814962E+02  0.79475539725E+02  0.41800000000E+01 0. -1.
        -11    1    1    2    0    0 -0.41689349146E+02 -0.36891355102E+02 -0.17596039869E+03  0.18455632154E+03  0.00000000000E+00 0.  1.
         11    1    1    2    0    0 -0.57400466654E+02  0.53916400097E+02 -0.19038533155E+03  0.20603001297E+03  0.00000000000E+00 0. -1.
</event>
<event>
 7    1  0.2899775E-009  0.1030831E+03  0.7561462E-02  0.1273943E+00
          2   -1    0    0  501    0  0.00000000000E+00  0.00000000000E+00  0.23912550463E+03  0.23912550463E+03  0.00000000000E+00 0. -1.
         -2   -1    0    0    0  501 -0.00000000000E+00 -0.00000000000E+00 -0.59931485511E+02  0.59931485511E+02  0.00000000000E+00 0.  1.
         25    2    1    2    0    0 -0.35080466501E+02 -0.39656386906E+02  0.11680760647E+03  0.17918095445E+03  0.12513404555E+03 0.  0.
          5    1    3    3  502    0  0.32552497642E+02  0.88379357283E+01  0.82205794384E+02  0.88955265392E+02  0.41800000000E+01 0.  1.
         -5    1    3    3    0  502 -0.67632964143E+02 -0.48494322635E+02  0.34601812090E+02  0.90225689061E+02  0.41800000000E+01 0.  1.
        -11    1    1    2    0    0  0.16507887054E+01  0.52875991285E+02  0.65030244859E+02  0.83830354312E+02  0.00000000000E+00 0. -1.
         11    1    1    2    0    0  0.33429677795E+02 -0.13219604379E+02 -0.26438322098E+01  0.36045681380E+02  0.00000000000E+00 0.  1.
</event>
<event>
 7    1  0.2899775E-009  0.1392847E+03  0.7561462E-02  0.1214295E+00
         -2   -1    0    0    0  501 -0.00000000000E+00  0.00000000000E+00  0.28551531505E+03  0.28551531505E+03  0.00000000000E+00 0.  1.
          2   -1    0    0  501    0  0.00000000000E+00 -0.00000000000E+00 -0.68806854209E+02  0.68806854209E+02  0.00000000000E+00 0. -1.
         25    2    1    2    0    0  0.21720887923E+02  0.85128283623E+02  0.10194833790E+03  0.18372873340E+03  0.12507662543E+03 0.  0.
          5    1    3    3  502    0  0.61644243634E+02  0.93067214826E+02  0.70177755410E+02  0.13192387579E+03  0.41800000000E+01 0. -1.
         -5    1    3    3    0  502 -0.39923355710E+02 -0.79389312025E+01  0.31770582493E+02  0.51804857608E+02  0.41800000000E+01 0. -1.
        -11    1    1    2    0    0  0.33166842238E+02 -0.13761918873E+02  0.37978727886E+02  0.52266754317E+02  0.00000000000E+00 0. -1.
         11    1    1    2    0    0 -0.54887730161E+02 -0.71366364750E+02  0.76781395054E+02  0.11832668155E+03  0.00000000000E+00 0.  1.
</event>
<event>
 7    1  0.2899775E-009  0.9078652E+02  0.7561462E-02  0.1300958E+00
         -1   -1    0    0    0  501 -0.00000000000E+00  0.00000000000E+00  0.34613736958E+02  0.34613736958E+02  0.00000000000E+00 0.  1.
          1   -1    0    0  501    0  0.00000000000E+00 -0.00000000000E+00 -0.44997782800E+03  0.44997782800E+03  0.00000000000E+00 0. -1.
         25    2    1    2    0    0  0.23601574746E+02  0.21530526892E+02 -0.13422315209E+03  0.18625264099E+03  0.12511432292E+03 0.  0.
          5    1    3    3  502    0  0.63526023728E+02  0.21011208208E+02 -0.27922008810E+02  0.72623257549E+02  0.41800000000E+01 0.  1.
         -5    1    3    3    0  502 -0.39924448982E+02  0.51931868377E+00 -0.10630114328E+03  0.11362938344E+03  0.41800000000E+01 0.  1.
        -11    1    1    2    0    0 -0.26800089750E+02  0.19555130882E+02 -0.32980041098E+02  0.46779600952E+02  0.00000000000E+00 0.  1.
         11    1    1    2    0    0  0.31985150044E+01 -0.41085657773E+02 -0.24816089785E+03  0.25155932301E+03  0.00000000000E+00 0. -1.
</event>
<event>
 6    1  0.2899775E-009  0.1136051E+03  0.7561462E-02  0.1254036E+00
         -1   -1    0    0    0  501 -0.00000000000E+00  0.00000000000E+00  0.55900235820E+02  0.55900235820E+02  0.00000000000E+00 0.  1.
          1   -1    0    0  501    0  0.00000000000E+00 -0.00000000000E+00 -0.38694186091E+03  0.38694186091E+03  0.00000000000E+00 0. -1.
          5    1    1    2  502    0 -0.41587138824E+02 -0.59517320870E+02 -0.52978349600E+02  0.89977661258E+02  0.41800000000E+01 0.  1.
         -5    1    1    2    0  502  0.48794910685E+02 -0.32363338510E+02 -0.18488597707E+03  0.19398099367E+03  0.41800000000E+01 0.  1.
        -11    1    1    2    0    0  0.96547358768E+01  0.24769835899E+02  0.14957428359E+02  0.30503825308E+02  0.00000000000E+00 0.  1.
         11    1    1    2    0    0 -0.16862507738E+02  0.67110823481E+02 -0.10813472678E+03  0.12837961650E+03  0.00000000000E+00 0. -1.
</event>
<event>
 7    1  0.2899775E-009  0.1187149E+03  0.7561462E-02  0.1245232E+00
         -1   -1    0    0    0  501 -0.00000000000E+00  0.00000000000E+00  0.69469029049E+02  0.69469029049E+02  0.00000000000E+00 0.  1.
          1   -1    0    0  501    0  0.00000000000E+00 -0.00000000000E+00 -0.31962431155E+03  0.31962431155E+03  0.00000000000E+00 0. -1.
         25    2    1    2    0    0  0.93019558662E+02 -0.40982998743E+02 -0.15438266785E+03  0.22318937961E+03  0.12508895458E+03 0.  0.
          5    1    3    3  502    0  0.38534764031E+02  0.27790977085E+02 -0.25304880607E+01  0.47761304589E+02  0.41800000000E+01 0.  1.
         -5    1    3    3    0  502  0.54484794631E+02 -0.68773975827E+02 -0.15185217979E+03  0.17542807502E+03  0.41800000000E+01 0.  1.
        -11    1    1    2    0    0 -0.28641664243E+02  0.90834037870E+01  0.15223200984E+02  0.33683809214E+02  0.00000000000E+00 0.  1.
         11    1    1    2    0    0 -0.64377894419E+02  0.31899594956E+02 -0.11099581563E+03  0.13222015178E+03  0.00000000000E+00 0. -1.
</event>
<event>
 7    1  0.2899775E-009  0.8093510E+02  0.7561462E-02  0.1326419E+00
         -2   -1    0    0    0  501 -0.00000000000E+00  0.00000000000E+00  0.10749307486E+02  0.10749307486E+02  0.00000000000E+00 0.  1.
          2   -1    0    0  501    0  0.00000000000E+00 -0.00000000000E+00 -0.11034010951E+04  0.11034010951E+04  0.00000000000E+00 0. -1.
         25    2    1    2    0    0 -0.87574193120E+01  0.41126057246E+02 -0.71239899629E+03  0.72451862165E+03  0.12508740231E+03 0.  0.
          5    1    3    3  502    0 -0.17408745806E+02 -0.13043995952E+02 -0.19717354859E+02  0.29655635950E+02  0.41800000000E+01 0.  1.
         -5    1    3    3    0  502  0.86513264944E+01  0.54170053199E+02 -0.69268164143E+03  0.69486298570E+03  0.41800000000E+01 0.  1.
        -11    1    1    2    0    0 -0.21024107985E+02 -0.49489149631E+02 -0.25605086371E+03  0.26163568919E+03  0.00000000000E+00 0.  1.
         11    1    1    2    0    0  0.29781527297E+02  0.83630923844E+01 -0.12420192763E+03  0.12799609177E+03  0.00000000000E+00 0. -1.
</event>
<event>
 7    1  0.2899775E-009  0.1147357E+03  0.7561462E-02  0.1252043E+00
         -1   -1    0    0    0  501 -0.00000000000E+00  0.00000000000E+00  0.30015894204E+02  0.30015894204E+02  0.00000000000E+00 0.  1.
          1   -1    0    0  501    0  0.00000000000E+00 -0.00000000000E+00 -0.59595380191E+03  0.59595380191E+03  0.00000000000E+00 0. -1.
         25    2    1    2    0    0  0.27862596907E+02 -0.48781395515E+02 -0.46064913464E+03  0.48062548871E+03  0.12508911342E+03 0.  0.
          5    1    3    3  502    0  0.80093099935E+01 -0.90337482483E+02 -0.29674684855E+03  0.31032430506E+03  0.41800000000E+01 0.  1.
         -5    1    3    3    0  502  0.19853286913E+02  0.41556086967E+02 -0.16390228609E+03  0.17030118364E+03  0.41800000000E+01 0.  1.
        -11    1    1    2    0    0 -0.18171963989E+02  0.68284467293E+02 -0.10081362565E+03  0.12311123371E+03  0.00000000000E+00 0. -1.
         11    1    1    2    0    0 -0.96906329176E+01 -0.19503071778E+02 -0.44751474170E+01  0.22232973699E+02  0.00000000000E+00 0.  1.
</event>
<event>
 7    1  0.2899775E-009  0.1551002E+03  0.7561462E-02  0.1194342E+00
         -1   -1    0    0    0  501 -0.00000000000E+00  0.00000000000E+00  0.42621500181E+02  0.42621500181E+02  0.00000000000E+00 0.  1.
          1   -1    0    0  501    0  0.00000000000E+00 -0.00000000000E+00 -0.97178604831E+03  0.97178604831E+03  0.00000000000E+00 0. -1.
         25    2    1    2    0    0  0.11457847138E+03 -0.14352627582E+01 -0.80335253481E+03  0.82106780548E+03  0.12508700943E+03 0.  0.
          5    1    3    3  502    0 -0.40311786452E+01 -0.40030829361E+02 -0.12663163646E+03  0.13293517764E+03  0.41800000000E+01 0.  1.
         -5    1    3    3    0  502  0.11860965002E+03  0.38595566602E+02 -0.67672089835E+03  0.68813262785E+03  0.41800000000E+01 0.  1.
        -11    1    1    2    0    0  0.75272558845E+01 -0.19644669181E+02 -0.84518701981E+01  0.22671716261E+02  0.00000000000E+00 0.  1.
         11    1    1    2    0    0 -0.12210572726E+03  0.21079931940E+02 -0.11736014312E+03  0.17066802675E+03  0.00000000000E+00 0. -1.
</event>
<event>
 7    1  0.2899775E-009  0.1194493E+03  0.7561462E-02  0.1244008E+00
          1   -1    0    0  501    0  0.00000000000E+00  0.00000000000E+00  0.15415502921E+04  0.15415502921E+04  0.00000000000E+00 0. -1.
         -1   -1    0    0    0  501 -0.00000000000E+00 -0.00000000000E+00 -0.13149527939E+02  0.13149527939E+02  0.00000000000E+00 0.  1.
         25    2    1    2    0    0  0.65366562941E+02 -0.44802022528E+02  0.11337259312E+04  0.11433555780E+04  0.12508989585E+03 0.  0.
          5    1    3    3  502    0  0.92238088451E+02 -0.49417314800E+02  0.10498519875E+04  0.10550623697E+04  0.41800000000E+01 0.  1.
         -5    1    3    3    0  502 -0.26871525510E+02  0.46152922727E+01  0.83873943674E+02  0.88293208309E+02  0.41800000000E+01 0.  1.
        -11    1    1    2    0    0 -0.62901883568E+02  0.11951478353E+01  0.14775739996E+03  0.16059366294E+03  0.00000000000E+00 0.  1.
         11    1    1    2    0    0 -0.24646793726E+01  0.43606874692E+02  0.24691743302E+03  0.25075057905E+03  0.00000000000E+00 0. -1.
</event>
<event>
 7    1  0.2899775E-009  0.2119227E+03  0.7561462E-02  0.1140052E+00
         -2   -1    0    0    0  501 -0.00000000000E+00  0.00000000000E+00  0.89387953329E+02  0.89387953329E+02  0.00000000000E+00 0.  1.
          2   -1    0    0  501    0  0.00000000000E+00 -0.00000000000E+00 -0.16169534655E+04  0.16169534655E+04  0.00000000000E+00 0. -1.
         25    2    1    2    0    0  0.66871411008E+02 -0.18397014993E+03 -0.14361661387E+04  0.14548328159E+04  0.12509413528E+03 0.  0.
          5    1    3    3  502    0  0.88116164038E+02 -0.92769566895E+02 -0.60485605768E+03  0.61825478067E+03  0.41800000000E+01 0. -1.
         -5    1    3    3    0  502 -0.21244753031E+02 -0.91200583031E+02 -0.83131008099E+03  0.83657803524E+03  0.41800000000E+01 0. -1.
        -11    1    1    2    0    0 -0.43748413946E+02  0.16894613823E+03 -0.20847559746E+02  0.17575933003E+03  0.00000000000E+00 0.  1.
         11    1    1    2    0    0 -0.23122997062E+02  0.15024011699E+02 -0.70551813724E+02  0.75749272870E+02  0.00000000000E+00 0. -1.
</event>
<event>
 7    1  0.2899775E-009  0.9574542E+02  0.7561462E-02  0.1289506E+00
         -1   -1    0    0    0  501 -0.00000000000E+00  0.00000000000E+00  0.33593294433E+03  0.33593294433E+03  0.00000000000E+00 0.  1.
          1   -1    0    0  501    0  0.00000000000E+00 -0.00000000000E+00 -0.37063508293E+02  0.37063508293E+02  0.00000000000E+00 0. -1.
         25    2    1    2    0    0 -0.42302914086E+01  0.17781693539E+02  0.14156823516E+03  0.18979748596E+03  0.12508971372E+03 0.  0.
          5    1    3    3  502    0 -0.39051977856E+02 -0.36228418738E+02  0.99311297469E+02  0.11277305309E+03  0.41800000000E+01 0. -1.
         -5    1    3    3    0  502  0.34821686447E+02  0.54010112277E+02  0.42256937691E+02  0.77024432865E+02  0.41800000000E+01 0. -1.
        -11    1    1    2    0    0  0.34376437143E+02  0.64577442741E+01  0.13298614935E+03  0.13750911901E+03  0.00000000000E+00 0.  1.
         11    1    1    2    0    0 -0.30146145735E+02 -0.24239437813E+02  0.24315051529E+02  0.45689847658E+02  0.00000000000E+00 0. -1.
</event>
<event>
 7    1  0.2899775E-009  0.4530400E+02  0.7561462E-02  0.1472453E+00
          1   -1    0    0  501    0  0.00000000000E+00  0.00000000000E+00  0.12711507410E+03  0.12711507410E+03  0.00000000000E+00 0. -1.
         -1   -1    0    0    0  501 -0.00000000000E+00 -0.00000000000E+00 -0.93169721114E+02  0.93169721114E+02  0.00000000000E+00 0.  1.
         25    2    1    2    0    0 -0.22484743244E+01  0.11383707294E+02  0.13630760258E+02  0.12636585709E+03  0.12509151764E+03 0.  0.
          5    1    3    3  502    0  0.14843815547E+02  0.21982194690E+02  0.65385108181E+02  0.70684089548E+02  0.41800000000E+01 0. -1.
         -5    1    3    3    0  502 -0.17092289872E+02 -0.10598487396E+02 -0.51754347923E+02  0.55681767547E+02  0.41800000000E+01 0. -1.
        -11    1    1    2    0    0  0.40795282785E+01  0.15622557062E+02 -0.31535412268E+02  0.35428647548E+02  0.00000000000E+00 0.  1.
         11    1    1    2    0    0 -0.18310539540E+01 -0.27006264357E+02  0.51850004995E+02  0.58490290571E+02  0.00000000000E+00 0. -1.
</event>
<event>
 7    1  0.2899775E-009  0.1340104E+03  0.7561462E-02  0.1221623E+00
         -2   -1    0    0    0  501 -0.00000000000E+00  0.00000000000E+00  0.11122586320E+03  0.11122586320E+03  0.00000000000E+00 0.  1.
          2   -1    0    0  501    0  0.00000000000E+00 -0.00000000000E+00 -0.23426945813E+03  0.23426945813E+03  0.00000000000E+00 0. -1.
         25    2    1    2    0    0  0.14188800931E+02  0.11193984202E+03 -0.10599284752E+03  0.19902929178E+03  0.12508527074E+03 0.  0.
          5    1    3    3  502    0 -0.13928085254E+02  0.12463930207E+02 -0.92774305302E+02  0.94730592943E+02  0.41800000000E+01 0. -1.
         -5    1    3    3    0  502  0.28116886185E+02  0.99475911817E+02 -0.13218542217E+02  0.10429869884E+03  0.41800000000E+01 0. -1.
        -11    1    1    2    0    0 -0.50556657651E+02 -0.89164094022E+02 -0.10108245215E+02  0.10299702868E+03  0.00000000000E+00 0.  1.
         11    1    1    2    0    0  0.36367856721E+02 -0.22775748002E+02 -0.69425022026E+01  0.43469000867E+02  0.00000000000E+00 0. -1.
</event>
<event>
 6    1  0.2899775E-009  0.1138710E+03  0.7561462E-02  0.1253565E+00
          1   -1    0    0  501    0  0.00000000000E+00  0.00000000000E+00  0.82993120888E+03  0.82993120888E+03  0.00000000000E+00 0. -1.
         -1   -1    0    0    0  501 -0.00000000000E+00 -0.00000000000E+00 -0.20048827008E+02  0.20048827008E+02  0.00000000000E+00 0.  1.
          5    1    1    2  502    0  0.74693813096E+02 -0.12187459354E+02  0.26281288150E+03  0.27352473921E+03  0.41800000000E+01 0. -1.
         -5    1    1    2    0  502 -0.24459289230E+02  0.39314706917E+02  0.50715884569E+02  0.68800264223E+02  0.41800000000E+01 0. -1.
        -11    1    1    2    0    0 -0.70724120093E+02  0.90802750983E+00  0.36494161973E+03  0.37173258061E+03  0.00000000000E+00 0. -1.
         11    1    1    2    0    0  0.20489596227E+02 -0.28035275072E+02  0.13141199608E+03  0.13592245185E+03  0.00000000000E+00 0.  1.
</event>
<event>
 7    1  0.2899775E-009  0.1039440E+03  0.7561462E-02  0.1272214E+00
         -1   -1    0    0    0  501 -0.00000000000E+00  0.00000000000E+00  0.11307042067E+03  0.11307042067E+03  0.00000000000E+00 0.  1.
          1   -1    0    0  501    0  0.00000000000E+00 -0.00000000000E+00 -0.10912944901E+03  0.10912944901E+03  0.00000000000E+00 0. -1.
         25    2    1    2    0    0  0.65285407592E+01  0.87756806715E+01  0.22836832113E+02  0.12762438661E+03  0.12508728449E+03 0.  0.
          5    1    3    3  502    0  0.47502242235E+02  0.48144158001E+02  0.51107869628E+01  0.67955246378E+02  0.41800000000E+01 0.  1.
         -5    1    3    3    0  502 -0.40973701475E+02 -0.39368477329E+02  0.17726045150E+02  0.59669140236E+02  0.41800000000E+01 0.  1.
        -11    1    1    2    0    0 -0.40679033307E+02 -0.22333537657E+02 -0.31093634649E+02  0.55860404319E+02  0.00000000000E+00 0. -1.
         11    1    1    2    0    0  0.34150492548E+02  0.13557856985E+02  0.12197774199E+02  0.38715078751E+02  0.00000000000E+00 0.  1.
</event>
<event>
 7    1  0.2899775E-009  0.1385327E+03  0.7561462E-02  0.1215317E+00
          1   -1    0    0  501    0  0.00000000000E+00  0.00000000000E+00  0.94996054480E+02  0.94996054480E+02  0.00000000000E+00 0. -1.
         -1   -1    0    0    0  501 -0.00000000000E+00 -0.00000000000E+00 -0.22865022541E+03  0.22865022541E+03  0.00000000000E+00 0.  1.
         25    2    1    2    0    0 -0.35762212843E+02 -0.79687792519E+02 -0.12710431804E+03  0.19857607138E+03  0.12509143982E+03 0.  0.
          5    1    3    3  502    0 -0.30190402760E+02  0.29732257903E+02 -0.41698122351E+02  0.59595917531E+02  0.41800000000E+01 0.  1.
         -5    1    3    3    0  502 -0.55718100828E+01 -0.10942005042E+03 -0.85406195687E+02  0.13898015385E+03  0.41800000000E+01 0.  1.
        -11    1    1    2    0    0 -0.21841659275E+02 -0.50158836465E+01 -0.25818009649E+01  0.22558432234E+02  0.00000000000E+00 0. -1.
         11    1    1    2    0    0  0.57603872118E+02  0.84703676165E+02 -0.39680519258E+01  0.10251177627E+03  0.00000000000E+00 0.  1.
</event>
<event>
 7    1  0.2899775E-009  0.6391131E+02  0.7561462E-02  0.1382114E+00
          4   -1    0    0  501    0  0.00000000000E+00  0.00000000000E+00  0.48535346381E+03  0.48535346381E+03  0.00000000000E+00 0. -1.
         -4   -1    0    0    0  501 -0.00000000000E+00 -0.00000000000E+00 -0.26296689668E+02  0.26296689668E+02  0.00000000000E+00 0.  1.
         25    2    1    2    0    0  0.26027710217E+02  0.15741878256E+02  0.24227140739E+03  0.27435003878E+03  0.12508901034E+03 0.  0.
          5    1    3    3  502    0  0.11544004397E+01  0.15062325472E+01 -0.14880399445E+02  0.15572413573E+02  0.41800000000E+01 0. -1.
         -5    1    3    3    0  502  0.24873309777E+02  0.14235645708E+02  0.25715180683E+03  0.25877762520E+03  0.41800000000E+01 0. -1.
        -11    1    1    2    0    0 -0.58730907400E+02 -0.18167911163E+02  0.11555418791E+03  0.13088988816E+03  0.00000000000E+00 0.  1.
         11    1    1    2    0    0  0.32703197183E+02  0.24260329078E+01  0.10123117885E+03  0.10641022654E+03  0.00000000000E+00 0. -1.
</event>
<event>
 7    1  0.2899775E-009  0.1028133E+03  0.7561462E-02  0.1274489E+00
         -2   -1    0    0    0  501 -0.00000000000E+00  0.00000000000E+00  0.43908505415E+02  0.43908505415E+02  0.00000000000E+00 0.  1.
          2   -1    0    0  501    0  0.00000000000E+00 -0.00000000000E+00 -0.49538849784E+03  0.49538849784E+03  0.00000000000E+00 0. -1.
         25    2    1    2    0    0  0.53128296960E+02 -0.57516839119E+02 -0.12446021669E+03  0.19303116410E+03  0.12505951405E+03 0.  0.
          5    1    3    3  502    0  0.59879599327E+02 -0.68725315927E+02 -0.27784417169E+02  0.95384389196E+02  0.41800000000E+01 0. -1.
         -5    1    3    3    0  502 -0.67513023674E+01  0.11208476808E+02 -0.96675799519E+02  0.97646774902E+02  0.41800000000E+01 0. -1.
        -11    1    1    2    0    0 -0.16879731991E+02  0.61871844509E+02 -0.12010972412E+03  0.13615945183E+03  0.00000000000E+00 0.  1.
         11    1    1    2    0    0 -0.36248564968E+02 -0.43550053901E+01 -0.20691005162E+03  0.21010638733E+03  0.00000000000E+00 0. -1.
</event>
<event>
 7    1  0.2899775E-009  0.1274973E+03  0.7561462E-02  0.1231217E+00
         -1   -1    0    0    0  501 -0.00000000000E+00  0.00000000000E+00  0.22685433995E+03  0.22685433995E+03  0.00000000000E+00 0.  1.
          1   -1    0    0  501    0  0.00000000000E+00 -0.00000000000E+00 -0.74970148656E+02  0.74970148656E+02  0.00000000000E+00 0. -1.
         25    2    1    2    0    0  0.65921402295E+02  0.30816186931E+02  0.93184629620E+02  0.17212226545E+03  0.12508968946E+03 0.  0.
          5    1    3    3  502    0  0.72457299903E+02  0.69951706981E+02  0.83925052843E+02  0.13116473807E+03  0.41800000000E+01 0. -1.
         -5    1    3    3    0  502 -0.65358976078E+01 -0.39135520050E+02  0.92595767776E+01  0.40957527382E+02  0.41800000000E+01 0. -1.
        -11    1    1    2    0    0 -0.54533294680E+02 -0.61127188887E+02  0.50740168503E+02  0.96358591467E+02  0.00000000000E+00 0.  1.
         11    1    1    2    0    0 -0.11388107615E+02  0.30311001956E+02  0.79593931750E+01  0.33343631691E+02  0.00000000000E+00 0. -1.
</event>
<event>
 7    1  0.2899775E-009  0.4177394E+03  0.7561462E-02  0.1037805E+00
          2   -1    0    0  501    0  0.00000000000E+00  0.00000000000E+00  0.22005425586E+04  0.22005425586E+04  0.00000000000E+00 0. -1.
         -2   -1    0    0    0  501 -0.00000000000E+00 -0.00000000000E+00 -0.81340994824E+02  0.81340994824E+02  0.00000000000E+00 0.  1.
         25    2    1    2    0    0  0.22750295427E+03  0.33911967880E+03  0.10463387629E+04  0.11301472407E+04  0.12509287822E+03 0.  0.
          5    1    3    3  502    0  0.11899118620E+03  0.27773498567E+03  0.75497046426E+03  0.81319954437E+03  0.41800000000E+01 0.  1.
         -5    1    3    3    0  502  0.10851176808E+03  0.61384693126E+02  0.29136829866E+03  0.31694769635E+03  0.41800000000E+01 0.  1.
        -11    1    1    2    0    0 -0.25683483075E+02 -0.45862935622E+02  0.69829837561E+02  0.87402839660E+02  0.00000000000E+00 0.  1.
         11    1    1    2    0    0 -0.20181947120E+03 -0.29325674318E+03  0.10030329633E+04  0.10643334730E+04  0.00000000000E+00 0. -1.
</event>
<event>
 7    1  0.2899775E-009  0.1555026E+03  0.7561462E-02  0.1193870E+00
         -2   -1    0    0    0  501 -0.00000000000E+00  0.00000000000E+00  0.22383432476E+02  0.22383432476E+02  0.00000000000E+00 0.  1.
          2   -1    0    0  501    0  0.00000000000E+00 -0.00000000000E+00 -0.16485734689E+04  0.16485734689E+04  0.00000000000E+00 0. -1.
         25    2    1    2    0    0  0.46774122147E+02  0.74295279201E+02 -0.12714203714E+04  0.12805721385E+04  0.12509050286E+03 0.  0.
          5    1    3    3  502    0  0.87503820411E+02  0.36108092655E+02 -0.89667653790E+03  0.90166900743E+03  0.41800000000E+01 0.  1.
         -5    1    3    3    0  502 -0.40729698264E+02  0.38187186546E+02 -0.37474383353E+03  0.37890313103E+03  0.41800000000E+01 0.  1.
        -11    1    1    2    0    0  0.42875469233E+02 -0.52906035763E+02 -0.11696880249E+03  0.13534790445E+03  0.00000000000E+00 0.  1.
         11    1    1    2    0    0 -0.89649591380E+02 -0.21389243438E+02 -0.23780086251E+03  0.25503685847E+03  0.00000000000E+00 0. -1.
</event>
<event>
 7    1  0.2899775E-009  0.1000408E+03  0.7561462E-02  0.1280210E+00
          2   -1    0    0  501    0  0.00000000000E+00  0.00000000000E+00  0.58208181669E+03  0.58208181669E+03  0.00000000000E+00 0.  1.
         -2   -1    0    0    0  501 -0.00000000000E+00 -0.00000000000E+00 -0.23531319401E+02  0.23531319401E+02  0.00000000000E+00 0. -1.
         25    2    1    2    0    0 -0.37182367229E+02  0.20427962631E+02  0.35039444048E+03  0.37446438054E+03  0.12508988085E+03 0.  0.
          5    1    3    3  502    0 -0.85678946261E+01 -0.49094913314E+02  0.20149654417E+03  0.20761032981E+03  0.41800000000E+01 0.  1.
         -5    1    3    3    0  502 -0.28614472603E+02  0.69522875945E+02  0.14889789630E+03  0.16685405073E+03  0.41800000000E+01 0.  1.
        -11    1    1    2    0    0 -0.88785978851E+01  0.14475088891E+02  0.20626193600E+01  0.17105908261E+02  0.00000000000E+00 0. -1.
         11    1    1    2    0    0  0.46060965114E+02 -0.34903051522E+02  0.20609343745E+03  0.21404284728E+03  0.00000000000E+00 0.  1.
</event>
<event>
 7    1  0.2899775E-009  0.9671718E+02  0.7561462E-02  0.1287355E+00
         -1   -1    0    0    0  501 -0.00000000000E+00  0.00000000000E+00  0.52312652877E+03  0.52312652877E+03  0.00000000000E+00 0.  1.
          1   -1    0    0  501    0  0.00000000000E+00 -0.00000000000E+00 -0.28182532216E+02  0.28182532216E+02  0.00000000000E+00 0. -1.
         25    2    1    2    0    0 -0.95092108125E+01 -0.43005875313E+02  0.33221664959E+03  0.35770858688E+03  0.12509036916E+03 0.  0.
          5    1    3    3  502    0  0.29643372904E+02 -0.50757047260E+02  0.30141117659E+03  0.30711752991E+03  0.41800000000E+01 0.  1.
         -5    1    3    3    0  502 -0.39152583716E+02  0.77511719472E+01  0.30805473000E+02  0.50591056966E+02  0.41800000000E+01 0.  1.
        -11    1    1    2    0    0 -0.24100929334E+02 -0.14239411866E+02  0.15263755107E+02  0.31884131869E+02  0.00000000000E+00 0.  1.
         11    1    1    2    0    0  0.33610140147E+02  0.57245287179E+02  0.14746359186E+03  0.16171634224E+03  0.00000000000E+00 0. -1.
</event>
<event>
 7    1  0.2899775E-009  0.5348084E+02  0.7561462E-02  0.1427423E+00
         -3   -1    0    0    0  501 -0.00000000000E+00  0.00000000000E+00  0.22197055977E+03  0.22197055977E+03  0.00000000000E+00 0.  1.
          3   -1    0    0  501    0  0.00000000000E+00 -0.00000000000E+00 -0.82429925531E+02  0.82429925531E+02  0.00000000000E+00 0. -1.
         25    2    1    2    0    0 -0.17138196334E+02  0.58784766506E+01 -0.11174506692E+02  0.12688449697E+03  0.12508609719E+03 0.  0.
          5    1    3    3  502    0  0.60725630501E+01  0.66404218433E+01 -0.66238566914E+02  0.66977543782E+02  0.41800000000E+01 0.  1.
         -5    1    3    3    0  502 -0.23210759384E+02 -0.76194519268E+00  0.55064060223E+02  0.59906953185E+02  0.41800000000E+01 0.  1.
        -11    1    1    2    0    0  0.44222093915E+02 -0.11693988205E+02  0.14088109892E+03  0.14812098765E+03  0.00000000000E+00 0. -1.
         11    1    1    2    0    0 -0.27083897581E+02  0.58155115544E+01  0.98340420119E+01  0.29395000682E+02  0.00000000000E+00 0.  1.
</event>
<event>
 7    1  0.2899775E-009  0.1055019E+03  0.7561462E-02  0.1269134E+00
          1   -1    0    0  501    0  0.00000000000E+00  0.00000000000E+00  0.50584164777E+02  0.50584164777E+02  0.00000000000E+00 0. -1.
         -1   -1    0    0    0  501 -0.00000000000E+00 -0.00000000000E+00 -0.24299876741E+03  0.24299876741E+03  0.00000000000E+00 0.  1.
         25    2    1    2    0    0  0.59068084258E+01  0.21546469407E+02 -0.97060030257E+02  0.15990017373E+03  0.12509306678E+03 0.  0.
          5    1    3    3  502    0  0.54298433666E+02  0.39193158566E+02 -0.82241696849E+02  0.10613949631E+03  0.41800000000E+01 0.  1.
         -5    1    3    3    0  502 -0.48391625240E+02 -0.17646689159E+02 -0.14818333408E+02  0.53760677420E+02  0.41800000000E+01 0.  1.
        -11    1    1    2    0    0  0.41877365330E+02 -0.91969354108E+01 -0.32688208302E+02  0.53914898775E+02  0.00000000000E+00 0. -1.
         11    1    1    2    0    0 -0.47784173755E+02 -0.12349533996E+02 -0.62666364073E+02  0.79767859678E+02  0.00000000000E+00 0.  1.
</event>
