<event>
 8    1  0.6901948E-009  0.1079160E+03  0.7561462E-02  0.1264479E+00
          1   -1    0    0  501    0  0.00000000000E+00  0.00000000000E+00  0.16912600195E+03  0.16912600195E+03  0.00000000000E+00 0. -1.
         -1   -1    0    0    0  501 -0.00000000000E+00 -0.00000000000E+00 -0.11374398955E+03  0.11374398955E+03  0.00000000000E+00 0.  1.
         25    2    1    2    0    0  0.67533887693E+02 -0.31327725201E+02  0.81769883151E+02  0.16696144171E+03  0.12509019495E+03 0.  0.
         23    2    1    2    0    0 -0.67533887693E+02  0.31327725201E+02 -0.26387870759E+02  0.11590854979E+03  0.84830536001E+02 0.  0.
          5    1    3    3  502    0 -0.62781171096E+00 -0.34419392940E+02  0.91557388012E+02  0.97904629397E+02  0.41800000000E+01 0.  1.
         -5    1    3    3    0  502  0.68161699404E+02  0.30916677389E+01 -0.97875048604E+01  0.69056812310E+02  0.41800000000E+01 0.  1.
        -11    1    4    4    0    0 -0.24774784411E+02  0.57535381210E+02 -0.16689194916E+02  0.64827766123E+02  0.00000000000E+00 0.  1.
         11    1    4    4    0    0 -0.42759103282E+02 -0.26207656009E+02 -0.96986758430E+01  0.51080783667E+02  0.00000000000E+00 0. -1.
</event>
<event>
 8    1  0.6901948E-009  0.1656039E+03  0.7561462E-02  0.1182511E+00
          1   -1    0    0  501    0  0.00000000000E+00  0.00000000000E+00  0.22647313850E+03  0.22647313850E+03  0.00000000000E+00 0. -1.
         -1   -1    0    0    0  501 -0.00000000000E+00 -0.00000000000E+00 -0.20927709332E+03  0.20927709332E+03  0.00000000000E+00 0.  1.
         25    2    1    2    0    0  0.10395269546E+03  0.10340689169E+03 -0.10721572911E+03  0.22055065090E+03  0.12509288110E+03 0.  0.
         23    2    1    2    0    0 -0.10395269546E+03 -0.10340689169E+03  0.12441177429E+03  0.21519958091E+03  0.96609636670E+02 0.  0.
          5    1    3    3  502    0  0.10039648761E+03  0.11868311304E+03 -0.12272439203E+03  0.19810069370E+03  0.41800000000E+01 0. -1.
         -5    1    3    3    0  502  0.35562078510E+01 -0.15276221352E+02  0.15508662914E+02  0.22449957204E+02  0.41800000000E+01 0. -1.
        -11    1    4    4    0    0 -0.44909946638E+02 -0.87448893793E+02  0.30135465930E+02  0.10282197547E+03  0.00000000000E+00 0.  1.
         11    1    4    4    0    0 -0.59042748825E+02 -0.15957997898E+02  0.94276308365E+02  0.11237760544E+03  0.00000000000E+00 0. -1.
</event>
<event>
 8    1  0.6901948E-009  0.1036359E+03  0.7561462E-02  0.1272831E+00
         -1   -1    0    0    0  501 -0.00000000000E+00  0.00000000000E+00  0.47938387201E+02  0.47938387201E+02  0.00000000000E+00 0.  1.
          1   -1    0    0  501    0  0.00000000000E+00 -0.00000000000E+00 -0.28200382976E+03  0.28200382976E+03  0.00000000000E+00 0. -1.
         25    2    1    2    0    0 -0.39875577916E+02  0.82157331726E+00 -0.12502833645E+03  0.18130187610E+03  0.12509016215E+03 0.  0.
         23    2    1    2    0    0  0.39875577916E+02 -0.82157331726E+00 -0.10903710612E+03  0.14864034086E+03  0.92812303731E+02 0.  0.
          5    1    3    3  502    0 -0.21738676073E+02 -0.52069068867E+02 -0.10928643124E+03  0.12306402571E+03  0.41800000000E+01 0. -1.
         -5    1    3    3    0  502 -0.18136901842E+02  0.52890642184E+02 -0.15741905203E+02  0.58237850394E+02  0.41800000000E+01 0. -1.
        -11    1    4    4    0    0  0.67142416517E+02  0.22710445394E+01 -0.98534940914E+02  0.11925768873E+03  0.00000000000E+00 0. -1.
         11    1    4    4    0    0 -0.27266838601E+02 -0.30926178567E+01 -0.10502165201E+02  0.29382652134E+02  0.00000000000E+00 0.  1.
</event>
<event>
 8    1  0.6901948E-009  0.4361223E+03  0.7561462E-02  0.1031943E+00
         -2   -1    0    0    0  501 -0.00000000000E+00  0.00000000000E+00  0.13399146918E+03  0.13399146918E+03  0.00000000000E+00 0.  1.
          2   -1    0    0  501    0  0.00000000000E+00 -0.00000000000E+00 -0.15193213458E+04  0.15193213458E+04  0.00000000000E+00 0. -1.
         25    2    1    2    0    0  0.34319493190E+03  0.25489554459E+03 -0.87597346166E+03  0.98271662603E+03  0.12509181275E+03 0.  0.
         23    2    1    2    0    0 -0.34319493190E+03 -0.25489554459E+03 -0.50935641501E+03  0.67059618899E+03  0.86607108512E+02 0.  0.
          5    1    3    3  502    0  0.34607665775E+03  0.23856790755E+03 -0.78813043724E+03  0.89322492020E+03  0.41800000000E+01 0.  1.
         -5    1    3    3    0  502 -0.28817258456E+01  0.16327637032E+02 -0.87843024415E+02  0.89491705835E+02  0.41800000000E+01 0.  1.
        -11    1    4    4    0    0 -0.18820180166E+03 -0.18786889265E+03 -0.33729186436E+03  0.42951186333E+03  0.00000000000E+00 0.  1.
         11    1    4    4    0    0 -0.15499313024E+03 -0.67026651936E+02 -0.17206455065E+03  0.24108432566E+03  0.00000000000E+00 0. -1.
</event>
<event>
 8    1  0.6901948E-009  0.1176160E+03  0.7561462E-02  0.1247082E+00
          1   -1    0    0  501    0  0.00000000000E+00  0.00000000000E+00  0.13170561448E+04  0.13170561448E+04  0.00000000000E+00 0. -1.
         -1   -1    0    0    0  501 -0.00000000000E+00 -0.00000000000E+00 -0.14777813254E+02  0.14777813254E+02  0.00000000000E+00 0.  1.
         25    2    1    2    0    0  0.61845450513E+01 -0.88357365765E+02  0.85527389913E+03  0.86889964330E+03  0.12509146613E+03 0.  0.
         23    2    1    2    0    0 -0.61845450513E+01  0.88357365765E+02  0.44700443243E+03  0.46293431477E+03  0.81547191874E+02 0.  0.
          5    1    3    3  502    0 -0.11103540698E+02  0.12175287939E+02  0.15698465790E+02  0.23139586872E+02  0.41800000000E+01 0.  1.
         -5    1    3    3    0  502  0.17288085749E+02 -0.10053265370E+03  0.83957543334E+03  0.84576005642E+03  0.41800000000E+01 0.  1.
        -11    1    4    4    0    0  0.34039479946E+02  0.50499373847E+02  0.29458830157E+03  0.30081745357E+03  0.00000000000E+00 0.  1.
         11    1    4    4    0    0 -0.40224024997E+02  0.37857991918E+02  0.15241613086E+03  0.16211686120E+03  0.00000000000E+00 0. -1.
</event>
<event>
 8    1  0.6901948E-009  0.8574660E+02  0.7561462E-02  0.1313492E+00
          1   -1    0    0  501    0  0.00000000000E+00  0.00000000000E+00  0.59938565815E+02  0.59938565815E+02  0.00000000000E+00 0. -1.
         -1   -1    0    0    0  501 -0.00000000000E+00 -0.00000000000E+00 -0.25119219142E+03  0.25119219142E+03  0.00000000000E+00 0.  1.
         25    2    1    2    0    0  0.30702314848E+02 -0.33013869707E+02 -0.15510261580E+03  0.20429722173E+03  0.12509190879E+03 0.  0.
         23    2    1    2    0    0 -0.30702314848E+02  0.33013869707E+02 -0.36151009804E+02  0.10683353551E+03  0.89855222832E+02 0.  0.
          5    1    3    3  502    0 -0.14578258313E+02  0.21769806486E+02 -0.12364582167E+03  0.12646031672E+03  0.41800000000E+01 0. -1.
         -5    1    3    3    0  502  0.45280573161E+02 -0.54783676193E+02 -0.31456794136E+02  0.77836905002E+02  0.41800000000E+01 0. -1.
        -11    1    4    4    0    0  0.16627644191E+02  0.17047833339E+02  0.20417211899E+02  0.31368291548E+02  0.00000000000E+00 0. -1.
         11    1    4    4    0    0 -0.47329959039E+02  0.15966036367E+02 -0.56568221704E+02  0.75465243964E+02  0.00000000000E+00 0.  1.
</event>
<event>
 8    1  0.6901948E-009  0.1974215E+03  0.7561462E-02  0.1151933E+00
          2   -1    0    0  501    0  0.00000000000E+00  0.00000000000E+00  0.25264348178E+03  0.25264348178E+03  0.00000000000E+00 0. -1.
         -2   -1    0    0    0  501 -0.00000000000E+00 -0.00000000000E+00 -0.19058994392E+03  0.19058994392E+03  0.00000000000E+00 0.  1.
         25    2    1    2    0    0  0.11561366013E+03  0.13598896457E+03  0.96492359014E+02  0.23837149589E+03  0.12510266908E+03 0.  0.
         23    2    1    2    0    0 -0.11561366013E+03 -0.13598896457E+03 -0.34438821159E+02  0.20486192981E+03  0.94460896604E+02 0.  0.
          5    1    3    3  502    0  0.12421414280E+03  0.58426019685E+02  0.43922682241E+02  0.14418539268E+03  0.41800000000E+01 0. -1.
         -5    1    3    3    0  502 -0.86004826663E+01  0.77562944885E+02  0.52569676773E+02  0.94186103207E+02  0.41800000000E+01 0. -1.
        -11    1    4    4    0    0 -0.35948904645E+02 -0.55402954598E+02 -0.59402685666E+02  0.88828431190E+02  0.00000000000E+00 0.  1.
         11    1    4    4    0    0 -0.79664755487E+02 -0.80586009972E+02  0.24963864507E+02  0.11603349862E+03  0.00000000000E+00 0. -1.
</event>
<event>
 8    1  0.6901948E-009  0.1346400E+03  0.7561462E-02  0.1220729E+00
          3   -1    0    0  501    0  0.00000000000E+00  0.00000000000E+00  0.51138860644E+03  0.51138860644E+03  0.00000000000E+00 0. -1.
         -3   -1    0    0    0  501 -0.00000000000E+00 -0.00000000000E+00 -0.37109229473E+02  0.37109229473E+02  0.00000000000E+00 0.  1.
         25    2    1    2    0    0 -0.55258294262E+01 -0.79490322384E+02  0.20391397262E+03  0.25214494378E+03  0.12508764248E+03 0.  0.
         23    2    1    2    0    0  0.55258294262E+01  0.79490322384E+02  0.27036540435E+03  0.29635289213E+03  0.91533265338E+02 0.  0.
          5    1    3    3  502    0 -0.17983594511E+02  0.31393986553E+02  0.44262799118E+02  0.57320675580E+02  0.41800000000E+01 0.  1.
         -5    1    3    3    0  502  0.12457765084E+02 -0.11088430894E+03  0.15965117350E+03  0.19482426820E+03  0.41800000000E+01 0.  1.
        -11    1    4    4    0    0 -0.24891110854E+02  0.86478826049E+02  0.19395984957E+03  0.21381903096E+03  0.00000000000E+00 0.  1.
         11    1    4    4    0    0  0.30416940280E+02 -0.69885036651E+01  0.76405554777E+02  0.82533861174E+02  0.00000000000E+00 0. -1.
</event>
<event>
 8    1  0.6901948E-009  0.9005491E+02  0.7561462E-02  0.1302719E+00
          2   -1    0    0  501    0  0.00000000000E+00  0.00000000000E+00  0.74688245778E+03  0.74688245778E+03  0.00000000000E+00 0. -1.
         -2   -1    0    0    0  501 -0.00000000000E+00 -0.00000000000E+00 -0.17016306740E+02  0.17016306740E+02  0.00000000000E+00 0.  1.
         25    2    1    2    0    0  0.27171388481E+02  0.11459198321E+02  0.38492856364E+03  0.40581683507E+03  0.12509079480E+03 0.  0.
         23    2    1    2    0    0 -0.27171388481E+02 -0.11459198321E+02  0.34493758740E+03  0.35808192945E+03  0.91493887319E+02 0.  0.
          5    1    3    3  502    0  0.23491863269E+01  0.44283233108E+02  0.44773252835E+02  0.63155680507E+02  0.41800000000E+01 0.  1.
         -5    1    3    3    0  502  0.24822202155E+02 -0.32824034786E+02  0.34015531080E+03  0.34266115456E+03  0.41800000000E+01 0.  1.
        -11    1    4    4    0    0 -0.51471222433E+02  0.19328885466E+02  0.16500164386E+03  0.17392077228E+03  0.00000000000E+00 0.  1.
         11    1    4    4    0    0  0.24299833952E+02 -0.30788083787E+02  0.17993594354E+03  0.18416115717E+03  0.00000000000E+00 0. -1.
</event>
<event>
 8    1  0.6901948E-009  0.1675552E+03  0.7561462E-02  0.1180422E+00
         -2   -1    0    0    0  501 -0.00000000000E+00  0.00000000000E+00  0.15537923566E+03  0.15537923566E+03  0.00000000000E+00 0.  1.
          2   -1    0    0  501    0  0.00000000000E+00 -0.00000000000E+00 -0.26544313814E+03  0.26544313814E+03  0.00000000000E+00 0. -1.
         25    2    1    2    0    0 -0.10527912884E+03 -0.86013513728E+02 -0.16721934036E+03  0.24918239664E+03  0.12509012548E+03 0.  0.
         23    2    1    2    0    0  0.10527912884E+03  0.86013513728E+02  0.57155437881E+02  0.17163997715E+03  0.87815250169E+02 0.  0.
          5    1    3    3  502    0 -0.12707578480E+03 -0.80291597850E+02 -0.16897356523E+03  0.22619578669E+03  0.41800000000E+01 0.  1.
         -5    1    3    3    0  502  0.21796655961E+02 -0.57219158782E+01  0.17542248714E+01  0.22986609956E+02  0.41800000000E+01 0.  1.
        -11    1    4    4    0    0  0.14492725264E+02  0.67658138106E+02  0.22865750367E+02  0.72873213716E+02  0.00000000000E+00 0.  1.
         11    1    4    4    0    0  0.90786403579E+02  0.18355375622E+02  0.34289687513E+02  0.98766763432E+02  0.00000000000E+00 0. -1.
</event>
<event>
 8    1  0.6901948E-009  0.7892613E+02  0.7561462E-02  0.1332127E+00
          2   -1    0    0  501    0  0.00000000000E+00  0.00000000000E+00  0.13509359410E+03  0.13509359410E+03  0.00000000000E+00 0. -1.
         -2   -1    0    0    0  501 -0.00000000000E+00 -0.00000000000E+00 -0.94166596999E+02  0.94166596999E+02  0.00000000000E+00 0.  1.
         25    2    1    2    0    0  0.21364262852E+02 -0.23387287093E+01  0.93477942862E+00  0.12692953838E+03  0.12509329527E+03 0.  0.
         23    2    1    2    0    0 -0.21364262852E+02  0.23387287093E+01  0.39992217670E+02  0.10233065272E+03  0.91707598554E+02 0.  0.
          5    1    3    3  502    0  0.30285056929E+02 -0.55815808298E+02 -0.22796332433E+02  0.67599809922E+02  0.41800000000E+01 0. -1.
         -5    1    3    3    0  502 -0.89207940767E+01  0.53477079588E+02  0.23731111862E+02  0.59329728454E+02  0.41800000000E+01 0. -1.
        -11    1    4    4    0    0 -0.29491900538E+02 -0.36815022163E+01  0.67105305137E+02  0.73392422180E+02  0.00000000000E+00 0. -1.
         11    1    4    4    0    0  0.81276376862E+01  0.60202309256E+01 -0.27113087467E+02  0.28938230539E+02  0.00000000000E+00 0.  1.
</event>
<event>
 8    1  0.6901948E-009  0.1348911E+03  0.7561462E-02  0.1220373E+00
         -2   -1    0    0    0  501 -0.00000000000E+00  0.00000000000E+00  0.24911407181E+03  0.24911407181E+03  0.00000000000E+00 0.  1.
          2   -1    0    0  501    0  0.00000000000E+00 -0.00000000000E+00 -0.87803444098E+02  0.87803444098E+02  0.00000000000E+00 0. -1.
         25    2    1    2    0    0 -0.94394506621E+02 -0.10052299210E+02  0.12395130777E+03  0.20004927100E+03  0.12507762602E+03 0.  0.
         23    2    1    2    0    0  0.94394506621E+02  0.10052299210E+02  0.37359319941E+02  0.13686824491E+03  0.91245964724E+02 0.  0.
          5    1    3    3  502    0 -0.12500711030E+03 -0.37684370428E+01  0.10426145768E+03  0.16287695571E+03  0.41800000000E+01 0.  1.
         -5    1    3    3    0  502  0.30612603678E+02 -0.62838621668E+01  0.19689850097E+02  0.37172315297E+02  0.41800000000E+01 0.  1.
        -11    1    4    4    0    0  0.97138201903E+02  0.23049739737E+02  0.28341419739E+01  0.99875688391E+02  0.00000000000E+00 0. -1.
         11    1    4    4    0    0 -0.27436952817E+01 -0.12997440527E+02  0.34525177967E+02  0.36992556518E+02  0.00000000000E+00 0.  1.
</event>
<event>
 8    1  0.6901948E-009  0.1475505E+03  0.7561462E-02  0.1203516E+00
         -1   -1    0    0    0  501 -0.00000000000E+00  0.00000000000E+00  0.73023225517E+02  0.73023225517E+02  0.00000000000E+00 0.  1.
          1   -1    0    0  501    0  0.00000000000E+00 -0.00000000000E+00 -0.31504649529E+03  0.31504649529E+03  0.00000000000E+00 0. -1.
         25    2    1    2    0    0 -0.74121550845E+02 -0.72163735726E+02 -0.10030063023E+03  0.19081631529E+03  0.12509612584E+03 0.  0.
         23    2    1    2    0    0  0.74121550845E+02  0.72163735726E+02 -0.14172263954E+03  0.19725340552E+03  0.90122085961E+02 0.  0.
          5    1    3    3  502    0 -0.93333839052E+02 -0.68171628072E+01 -0.64702610302E+02  0.11384893237E+03  0.41800000000E+01 0.  1.
         -5    1    3    3    0  502  0.19212288207E+02 -0.65346572919E+02 -0.35598019932E+02  0.76967382920E+02  0.41800000000E+01 0.  1.
        -11    1    4    4    0    0 -0.15034052445E+02  0.32089580541E+02 -0.60720182502E+02  0.70304370244E+02  0.00000000000E+00 0.  1.
         11    1    4    4    0    0  0.89155603290E+02  0.40074155185E+02 -0.81002457034E+02  0.12694903528E+03  0.00000000000E+00 0. -1.
</event>
<event>
 8    1  0.6901948E-009  0.8363623E+02  0.7561462E-02  0.1319038E+00
          2   -1    0    0  501    0  0.00000000000E+00  0.00000000000E+00  0.19731614206E+03  0.19731614206E+03  0.00000000000E+00 0. -1.
         -2   -1    0    0    0  501 -0.00000000000E+00 -0.00000000000E+00 -0.11311139820E+03  0.11311139820E+03  0.00000000000E+00 0.  1.
         25    2    1    2    0    0 -0.71689120259E+01  0.29535141986E+02 -0.54020763433E+02  0.13960715299E+03  0.12509275108E+03 0.  0.
         23    2    1    2    0    0  0.71689120259E+01 -0.29535141986E+02  0.13822550729E+03  0.17082038726E+03  0.95653520208E+02 0.  0.
          5    1    3    3  502    0 -0.42993640707E+02 -0.42901643061E+01 -0.74389797496E+02  0.86128816446E+02  0.41800000000E+01 0.  1.
         -5    1    3    3    0  502  0.35824728681E+02  0.33825306292E+02  0.20369034062E+02  0.53478336543E+02  0.41800000000E+01 0.  1.
        -11    1    4    4    0    0 -0.12789083081E+02 -0.46497258136E+02  0.24448373861E+02  0.54067352854E+02  0.00000000000E+00 0.  1.
         11    1    4    4    0    0  0.19957995107E+02  0.16962116149E+02  0.11377713343E+03  0.11675303441E+03  0.00000000000E+00 0. -1.
</event>
<event>
 8    1  0.6901948E-009  0.1466657E+03  0.7561462E-02  0.1204631E+00
         -2   -1    0    0    0  501 -0.00000000000E+00  0.00000000000E+00  0.57667821524E+03  0.57667821524E+03  0.00000000000E+00 0.  1.
          2   -1    0    0  501    0  0.00000000000E+00 -0.00000000000E+00 -0.39413412237E+02  0.39413412237E+02  0.00000000000E+00 0. -1.
         25    2    1    2    0    0 -0.99353248914E+02  0.34132107168E+02  0.28489180688E+03  0.32840021926E+03  0.12508914252E+03 0.  0.
         23    2    1    2    0    0  0.99353248914E+02 -0.34132107168E+02  0.25237299613E+03  0.28769140822E+03  0.89655721386E+02 0.  0.
          5    1    3    3  502    0 -0.66475559705E+02  0.78871385527E+02  0.21916123441E+03  0.24225774407E+03  0.41800000000E+01 0. -1.
         -5    1    3    3    0  502 -0.32877689210E+02 -0.44739278359E+02  0.65730572469E+02  0.86142475196E+02  0.41800000000E+01 0. -1.
        -11    1    4    4    0    0 -0.10117582728E+02  0.11939217972E+02  0.56453856383E+02  0.58582832866E+02  0.00000000000E+00 0.  1.
         11    1    4    4    0    0  0.10947083164E+03 -0.46071325141E+02  0.19591913975E+03  0.22910857535E+03  0.00000000000E+00 0. -1.
</event>
<event>
 8    1  0.6901948E-009  0.8177215E+02  0.7561462E-02  0.1324096E+00
         -2   -1    0    0    0  501 -0.00000000000E+00  0.00000000000E+00  0.41470484603E+02  0.41470484603E+02  0.00000000000E+00 0.  1.
          2   -1    0    0  501    0  0.00000000000E+00 -0.00000000000E+00 -0.74932756041E+03  0.74932756041E+03  0.00000000000E+00 0. -1.
         25    2    1    2    0    0  0.13947961778E+02  0.30193364418E+02 -0.67520056863E+03  0.68749470889E+03  0.12508789702E+03 0.  0.
         23    2    1    2    0    0 -0.13947961778E+02 -0.30193364418E+02 -0.32656507181E+02  0.10330333613E+03  0.92189733164E+02 0.  0.
          5    1    3    3  502    0 -0.25228767449E+02  0.44994965555E+02 -0.11979254137E+03  0.13049430256E+03  0.41800000000E+01 0.  1.
         -5    1    3    3    0  502  0.39176729227E+02 -0.14801601136E+02 -0.55540802726E+03  0.55700040633E+03  0.41800000000E+01 0.  1.
        -11    1    4    4    0    0  0.36764707155E+01 -0.45928658908E+02  0.16356689962E+02  0.48892734149E+02  0.00000000000E+00 0.  1.
         11    1    4    4    0    0 -0.17624432493E+02  0.15735294490E+02 -0.49013197143E+02  0.54410601978E+02  0.00000000000E+00 0. -1.
</event>
<event>
 8    1  0.6901948E-009  0.1172464E+03  0.7561462E-02  0.1247710E+00
          1   -1    0    0  501    0  0.00000000000E+00  0.00000000000E+00  0.10475784694E+03  0.10475784694E+03  0.00000000000E+00 0. -1.
         -1   -1    0    0    0  501 -0.00000000000E+00 -0.00000000000E+00 -0.21108402327E+03  0.21108402327E+03  0.00000000000E+00 0.  1.
         25    2    1    2    0    0  0.10855613616E+01  0.79532697490E+02 -0.12230924921E+03  0.19218251616E+03  0.12509172100E+03 0.  0.
         23    2    1    2    0    0 -0.10855613616E+01 -0.79532697490E+02  0.15983072874E+02  0.12365935405E+03  0.93324963498E+02 0.  0.
          5    1    3    3  502    0 -0.22588431194E+01 -0.26536887414E+02 -0.67467205932E+02  0.72654009126E+02  0.41800000000E+01 0. -1.
         -5    1    3    3    0  502  0.33444044809E+01  0.10606958490E+03 -0.54842043274E+02  0.11952850703E+03  0.41800000000E+01 0. -1.
        -11    1    4    4    0    0  0.12835307004E+02 -0.85300520678E+02  0.40175642672E+02  0.95157796306E+02  0.00000000000E+00 0. -1.
         11    1    4    4    0    0 -0.13920868365E+02  0.57678231873E+01 -0.24192569798E+02  0.28501557743E+02  0.00000000000E+00 0.  1.
</event>
<event>
 8    1  0.6901948E-009  0.1081375E+03  0.7561462E-02  0.1264058E+00
          3   -1    0    0  501    0  0.00000000000E+00  0.00000000000E+00  0.70233664493E+02  0.70233664493E+02  0.00000000000E+00 0. -1.
         -3   -1    0    0    0  501 -0.00000000000E+00 -0.00000000000E+00 -0.24637449067E+03  0.24637449067E+03  0.00000000000E+00 0.  1.
         25    2    1    2    0    0  0.52865111974E+02  0.14582974922E+02 -0.36223573164E+02  0.14130110355E+03  0.12508585607E+03 0.  0.
         23    2    1    2    0    0 -0.52865111974E+02 -0.14582974922E+02 -0.13991725301E+03  0.17530705162E+03  0.90268164018E+02 0.  0.
          5    1    3    3  502    0  0.84840518284E+02  0.22091058682E+02 -0.54666290656E+02  0.10340118060E+03  0.41800000000E+01 0.  1.
         -5    1    3    3    0  502 -0.31975406310E+02 -0.75080837599E+01  0.18442717492E+02  0.37899922940E+02  0.41800000000E+01 0.  1.
        -11    1    4    4    0    0 -0.48281085045E+02 -0.44181222611E+02 -0.12662787714E+03  0.14254003955E+03  0.00000000000E+00 0.  1.
         11    1    4    4    0    0 -0.45840269293E+01  0.29598247689E+02 -0.13289375872E+02  0.32767012074E+02  0.00000000000E+00 0. -1.
</event>
<event>
 8    1  0.6901948E-009  0.1386443E+03  0.7561462E-02  0.1215165E+00
          2   -1    0    0  501    0  0.00000000000E+00  0.00000000000E+00  0.54180366991E+03  0.54180366991E+03  0.00000000000E+00 0. -1.
         -2   -1    0    0    0  501 -0.00000000000E+00 -0.00000000000E+00 -0.45561139176E+02  0.45561139176E+02  0.00000000000E+00 0.  1.
         25    2    1    2    0    0  0.10217961241E+03 -0.24743789204E+02  0.18988576789E+03  0.25051558987E+03  0.12509407509E+03 0.  0.
         23    2    1    2    0    0 -0.10217961241E+03  0.24743789204E+02  0.30635676284E+03  0.33684921922E+03  0.92520279146E+02 0.  0.
          5    1    3    3  502    0  0.50828907323E+01 -0.50214205162E+02  0.22776406980E+02  0.55529625365E+02  0.41800000000E+01 0. -1.
         -5    1    3    3    0  502  0.97096721673E+02  0.25470415959E+02  0.16710936091E+03  0.19498596450E+03  0.41800000000E+01 0. -1.
        -11    1    4    4    0    0 -0.78268028174E+02  0.48818228993E+02  0.27708571912E+03  0.29203698303E+03  0.00000000000E+00 0. -1.
         11    1    4    4    0    0 -0.23911584231E+02 -0.24074439789E+02  0.29271043719E+02  0.44812236186E+02  0.00000000000E+00 0.  1.
</event>
<event>
 8    1  0.6901948E-009  0.8514933E+02  0.7561462E-02  0.1315042E+00
          1   -1    0    0  501    0  0.00000000000E+00  0.00000000000E+00  0.39085238702E+03  0.39085238702E+03  0.00000000000E+00 0. -1.
         -1   -1    0    0    0  501 -0.00000000000E+00 -0.00000000000E+00 -0.52806764562E+02  0.52806764562E+02  0.00000000000E+00 0.  1.
         25    2    1    2    0    0 -0.45288377120E+02 -0.41123185052E+02  0.74610008877E+02  0.15797556270E+03  0.12508985384E+03 0.  0.
         23    2    1    2    0    0  0.45288377120E+02  0.41123185052E+02  0.26343561358E+03  0.28568358888E+03  0.92057791644E+02 0.  0.
          5    1    3    3  502    0 -0.13894538226E+02 -0.42587822272E+02  0.10489120101E+03  0.11413333101E+03  0.41800000000E+01 0.  1.
         -5    1    3    3    0  502 -0.31393838895E+02  0.14646372197E+01 -0.30281192131E+02  0.43842231691E+02  0.41800000000E+01 0.  1.
        -11    1    4    4    0    0  0.85849438438E+01  0.54020734296E+02  0.22284568186E+03  0.22946053891E+03  0.00000000000E+00 0.  1.
         11    1    4    4    0    0  0.36703433277E+02 -0.12897549244E+02  0.40589931728E+02  0.56223049975E+02  0.00000000000E+00 0. -1.
</event>
<event>
 8    1  0.6901948E-009  0.8198229E+02  0.7561462E-02  0.1323518E+00
          1   -1    0    0  501    0  0.00000000000E+00  0.00000000000E+00  0.23940098234E+03  0.23940098234E+03  0.00000000000E+00 0.  1.
         -1   -1    0    0    0  501 -0.00000000000E+00 -0.00000000000E+00 -0.62351930195E+02  0.62351930195E+02  0.00000000000E+00 0. -1.
         25    2    1    2    0    0  0.40254023236E+02 -0.36523816909E+02  0.12132930604E+03  0.18254480471E+03  0.12508968637E+03 0.  0.
         23    2    1    2    0    0 -0.40254023236E+02  0.36523816909E+02  0.55719746114E+02  0.11920810783E+03  0.90285698072E+02 0.  0.
          5    1    3    3  502    0 -0.11762082121E+01 -0.42262255738E+01  0.12913049347E+03  0.12927258485E+03  0.41800000000E+01 0.  1.
         -5    1    3    3    0  502  0.41430231448E+02 -0.32297591335E+02 -0.78011874390E+01  0.53272219865E+02  0.41800000000E+01 0.  1.
        -11    1    4    4    0    0  0.13740886359E+02  0.48066777835E+02  0.29932649382E+02  0.58268263990E+02  0.00000000000E+00 0.  1.
         11    1    4    4    0    0 -0.53994909594E+02 -0.11542960926E+02  0.25787096732E+02  0.60939843837E+02  0.00000000000E+00 0. -1.
</event>
<event>
 8    1  0.6901948E-009  0.2262715E+03  0.7561462E-02  0.1129292E+00
          2   -1    0    0  501    0  0.00000000000E+00  0.00000000000E+00  0.15600902377E+04  0.15600902377E+04  0.00000000000E+00 0. -1.
         -2   -1    0    0    0  501 -0.00000000000E+00 -0.00000000000E+00 -0.70263604676E+02  0.70263604676E+02  0.00000000000E+00 0.  1.
         25    2    1    2    0    0 -0.21636634355E+02  0.22328517951E+03  0.12888998796E+04  0.13142430203E+04  0.12508957321E+03 0.  0.
         23    2    1    2    0    0  0.21636634355E+02 -0.22328517951E+03  0.20092675343E+03  0.31611082213E+03  0.96073286029E+02 0.  0.
          5    1    3    3  502    0 -0.32627942478E+02  0.14634861813E+03  0.51387478550E+03  0.53531978128E+03  0.41800000000E+01 0. -1.
         -5    1    3    3    0  502  0.10991308124E+02  0.76936561378E+02  0.77502509411E+03  0.77892323898E+03  0.41800000000E+01 0. -1.
        -11    1    4    4    0    0  0.22433074379E+02 -0.17635951930E+03  0.98031307677E+02  0.20301738881E+03  0.00000000000E+00 0.  1.
         11    1    4    4    0    0 -0.79644002431E+00 -0.46925660205E+02  0.10289544576E+03  0.11309343332E+03  0.00000000000E+00 0. -1.
</event>
<event>
 8    1  0.6901948E-009  0.7758160E+02  0.7561462E-02  0.1336058E+00
         -2   -1    0    0    0  501 -0.00000000000E+00  0.00000000000E+00  0.99502287304E+02  0.99502287304E+02  0.00000000000E+00 0. -1.
          2   -1    0    0  501    0  0.00000000000E+00 -0.00000000000E+00 -0.14211555965E+03  0.14211555965E+03  0.00000000000E+00 0.  1.
         25    2    1    2    0    0 -0.10752106142E+02  0.70762679688E+01  0.24505138220E+02  0.12811768731E+03  0.12509180088E+03 0.  0.
         23    2    1    2    0    0  0.10752106142E+02 -0.70762679688E+01 -0.67118410562E+02  0.11350015964E+03  0.90618562380E+02 0.  0.
          5    1    3    3  502    0 -0.24418881511E+02  0.34670884667E+02 -0.38778326446E+02  0.57615822652E+02  0.41800000000E+01 0.  1.
         -5    1    3    3    0  502  0.13666775369E+02 -0.27594616698E+02  0.63283464666E+02  0.70501864655E+02  0.41800000000E+01 0.  1.
        -11    1    4    4    0    0 -0.28523019305E+02  0.19053562273E+02 -0.54959253238E+02  0.64785186440E+02  0.00000000000E+00 0.  1.
         11    1    4    4    0    0  0.39275125447E+02 -0.26129830241E+02 -0.12159157324E+02  0.48714973203E+02  0.00000000000E+00 0. -1.
</event>
<event>
 8    1  0.6901948E-009  0.2569791E+03  0.7561462E-02  0.1108972E+00
         -2   -1    0    0    0  501 -0.00000000000E+00  0.00000000000E+00  0.35822105240E+03  0.35822105240E+03  0.00000000000E+00 0. -1.
          2   -1    0    0  501    0  0.00000000000E+00 -0.00000000000E+00 -0.30720531505E+03  0.30720531505E+03  0.00000000000E+00 0.  1.
         25    2    1    2    0    0  0.42003084830E+02  0.23262335838E+03  0.23030570064E+03  0.35292965838E+03  0.12506295222E+03 0.  0.
         23    2    1    2    0    0 -0.42003084830E+02 -0.23262335838E+03 -0.17928996329E+03  0.31249670907E+03  0.98139779101E+02 0.  0.
          5    1    3    3  502    0 -0.29820566199E+02  0.16165842996E+03  0.12165900843E+03  0.20455097378E+03  0.41800000000E+01 0.  1.
         -5    1    3    3    0  502  0.71823651029E+02  0.70964928424E+02  0.10864669221E+03  0.14837868460E+03  0.41800000000E+01 0.  1.
        -11    1    4    4    0    0 -0.63538012672E+02 -0.14642245451E+03 -0.14975042060E+03  0.21886480463E+03  0.00000000000E+00 0.  1.
         11    1    4    4    0    0  0.21534927842E+02 -0.86200903871E+02 -0.29539542695E+02  0.93631904434E+02  0.00000000000E+00 0. -1.
</event>
<event>
 8    1  0.6901948E-009  0.1171803E+03  0.7561462E-02  0.1247822E+00
          2   -1    0    0  501    0  0.00000000000E+00  0.00000000000E+00  0.19034050311E+02  0.19034050311E+02  0.00000000000E+00 0.  1.
         -2   -1    0    0    0  501 -0.00000000000E+00 -0.00000000000E+00 -0.11556192198E+04  0.11556192198E+04  0.00000000000E+00 0. -1.
         25    2    1    2    0    0 -0.17934122397E+02  0.88523807017E+02 -0.79273582809E+03  0.80761124729E+03  0.12509091281E+03 0.  0.
         23    2    1    2    0    0  0.17934122397E+02 -0.88523807017E+02 -0.34384934140E+03  0.36704202282E+03  0.91265435827E+02 0.  0.
          5    1    3    3  502    0 -0.46187020284E+02  0.72559457521E+02 -0.26037214155E+03  0.27424303129E+03  0.41800000000E+01 0. -1.
         -5    1    3    3    0  502  0.28252897887E+02  0.15964349496E+02 -0.53236368654E+03  0.53336821600E+03  0.41800000000E+01 0. -1.
        -11    1    4    4    0    0  0.10942891685E+02  0.11141836990E+02 -0.99547631350E+01  0.18519846625E+02  0.00000000000E+00 0.  1.
         11    1    4    4    0    0  0.69912307124E+01 -0.99665644007E+02 -0.33389457827E+03  0.34852217619E+03  0.00000000000E+00 0. -1.
</event>
<event>
 7    1  0.6901948E-009  0.1730578E+03  0.7561462E-02  0.1174696E+00
         -2   -1    0    0    0  501 -0.00000000000E+00  0.00000000000E+00  0.51153663581E+02  0.51153663581E+02  0.00000000000E+00 0.  1.
          2   -1    0    0  501    0  0.00000000000E+00 -0.00000000000E+00 -0.68570806497E+03  0.68570806497E+03  0.00000000000E+00 0. -1.
         25    2    1    2    0    0 -0.91219785249E+02  0.13451737739E+03 -0.36019652848E+03  0.41449355342E+03  0.12508953853E+03 0.  0.
          5    1    3    3  502    0 -0.36608382927E+01  0.76567119237E+02 -0.25296599722E+03  0.26435807844E+03  0.41800000000E+01 0.  1.
         -5    1    3    3    0  502 -0.87558946956E+02  0.57950258154E+02 -0.10723053126E+03  0.15013547498E+03  0.41800000000E+01 0.  1.
        -11    1    1    2    0    0  0.69751980962E+02 -0.82772024904E+02 -0.21522669516E+03  0.24091300767E+03  0.00000000000E+00 0. -1.
         11    1    1    2    0    0  0.21467804287E+02 -0.51745352487E+02 -0.59131177738E+02  0.81455167458E+02  0.00000000000E+00 0.  1.
</event>
<event>
 8    1  0.6901948E-009  0.9045183E+02  0.7561462E-02  0.1301761E+00
         -1   -1    0    0    0  501 -0.00000000000E+00  0.00000000000E+00  0.11495344491E+03  0.11495344491E+03  0.00000000000E+00 0.  1.
          1   -1    0    0  501    0  0.00000000000E+00 -0.00000000000E+00 -0.12338823786E+03  0.12338823786E+03  0.00000000000E+00 0. -1.
         25    2    1    2    0    0 -0.23558286392E+02  0.41285268097E+02  0.27076416224E+01  0.13384332357E+03  0.12508891926E+03 0.  0.
         23    2    1    2    0    0  0.23558286392E+02 -0.41285268097E+02 -0.11142434577E+02  0.10449835920E+03  0.92392028919E+02 0.  0.
          5    1    3    3  502    0  0.62236809134E+00 -0.16036373125E+02 -0.49698109182E+02  0.52392051509E+02  0.41800000000E+01 0.  1.
         -5    1    3    3    0  502 -0.24180654483E+02  0.57321641221E+02  0.52405750805E+02  0.81451272065E+02  0.41800000000E+01 0.  1.
        -11    1    4    4    0    0  0.43844015125E+02 -0.60036579737E+02 -0.16997283744E+02  0.76260056539E+02  0.00000000000E+00 0. -1.
         11    1    4    4    0    0 -0.20285728733E+02  0.18751311640E+02  0.58548491664E+01  0.28238302662E+02  0.00000000000E+00 0.  1.
</event>
<event>
 8    1  0.6901948E-009  0.1122104E+03  0.7561462E-02  0.1256530E+00
         -2   -1    0    0    0  501 -0.00000000000E+00  0.00000000000E+00  0.12508706415E+02  0.12508706415E+02  0.00000000000E+00 0.  1.
          2   -1    0    0  501    0  0.00000000000E+00 -0.00000000000E+00 -0.24486402214E+04  0.24486402214E+04  0.00000000000E+00 0. -1.
         25    2    1    2    0    0  0.33717545430E+02  0.10240676166E+03 -0.19009064861E+04  0.19080658603E+04  0.12508333501E+03 0.  0.
         23    2    1    2    0    0 -0.33717545430E+02 -0.10240676166E+03 -0.53522502892E+03  0.55308306754E+03  0.88380033432E+02 0.  0.
          5    1    3    3  502    0  0.60507095248E+01 -0.22152895850E+01 -0.52157509827E+01  0.92841290389E+01  0.41800000000E+01 0. -1.
         -5    1    3    3    0  502  0.27666835905E+02  0.10462205125E+03 -0.18956907351E+04  0.18987817312E+04  0.41800000000E+01 0. -1.
        -11    1    4    4    0    0 -0.24318094873E+01 -0.22451983494E+02 -0.18274077219E+02  0.29050768637E+02  0.00000000000E+00 0.  1.
         11    1    4    4    0    0 -0.31285735943E+02 -0.79954778167E+02 -0.51695095170E+03  0.52403229890E+03  0.00000000000E+00 0. -1.
</event>
<event>
 8    1  0.6901948E-009  0.1079499E+03  0.7561462E-02  0.1264414E+00
         -1   -1    0    0    0  501 -0.00000000000E+00  0.00000000000E+00  0.54815694556E+02  0.54815694556E+02  0.00000000000E+00 0.  1.
          1   -1    0    0  501    0  0.00000000000E+00 -0.00000000000E+00 -0.38520194984E+03  0.38520194984E+03  0.00000000000E+00 0. -1.
         25    2    1    2    0    0 -0.85093831121E+02 -0.85709442979E+01 -0.24522755660E+03  0.28826967119E+03  0.12509367543E+03 0.  0.
         23    2    1    2    0    0  0.85093831121E+02  0.85709442979E+01 -0.85158698680E+02  0.15174797320E+03  0.91983815038E+02 0.  0.
          5    1    3    3  502    0 -0.81582245440E+02  0.27384276272E+02 -0.75084945051E+02  0.11428378158E+03  0.41800000000E+01 0. -1.
         -5    1    3    3    0  502 -0.35115856809E+01 -0.35955220569E+02 -0.17014261155E+03  0.17398588962E+03  0.41800000000E+01 0. -1.
        -11    1    4    4    0    0  0.27359818672E+02 -0.14781452314E+02 -0.83877685393E+02  0.89456789106E+02  0.00000000000E+00 0. -1.
         11    1    4    4    0    0  0.57734012449E+02  0.23352396612E+02 -0.12810132871E+01  0.62291184096E+02  0.00000000000E+00 0.  1.
</event>
<event>
 8    1  0.6901948E-009  0.1666085E+03  0.7561462E-02  0.1181431E+00
         -2   -1    0    0    0  501 -0.00000000000E+00  0.00000000000E+00  0.48398065618E+02  0.48398065618E+02  0.00000000000E+00 0.  1.
          2   -1    0    0  501    0  0.00000000000E+00 -0.00000000000E+00 -0.74594974359E+03  0.74594974359E+03  0.00000000000E+00 0. -1.
         25    2    1    2    0    0 -0.77905791320E+02  0.12935111548E+03 -0.44649254750E+03  0.48765145494E+03  0.12508926067E+03 0.  0.
         23    2    1    2    0    0  0.77905791320E+02 -0.12935111548E+03 -0.25105913048E+03  0.30669635427E+03  0.90724546457E+02 0.  0.
          5    1    3    3  502    0 -0.97080119429E+02  0.70228902077E+02 -0.19799839565E+03  0.23146810872E+03  0.41800000000E+01 0. -1.
         -5    1    3    3    0  502  0.19174328108E+02  0.59122213404E+02 -0.24849415185E+03  0.25618334622E+03  0.41800000000E+01 0. -1.
        -11    1    4    4    0    0  0.36228393997E+02 -0.57215211030E+02 -0.19462756521E+03  0.20607272028E+03  0.00000000000E+00 0. -1.
         11    1    4    4    0    0  0.41677397324E+02 -0.72135904451E+02 -0.56431565266E+02  0.10062363399E+03  0.00000000000E+00 0.  1.
</event>
<event>
 8    1  0.6901948E-009  0.1006456E+03  0.7561462E-02  0.1278944E+00
          2   -1    0    0  501    0  0.00000000000E+00  0.00000000000E+00  0.16356844415E+03  0.16356844415E+03  0.00000000000E+00 0. -1.
         -2   -1    0    0    0  501 -0.00000000000E+00 -0.00000000000E+00 -0.10111288912E+03  0.10111288912E+03  0.00000000000E+00 0.  1.
         25    2    1    2    0    0 -0.22935003650E+01  0.35730170499E+02 -0.28233312329E+02  0.13314009894E+03  0.12508901148E+03 0.  0.
         23    2    1    2    0    0  0.22935003650E+01 -0.35730170499E+02  0.90688867356E+02  0.13154123433E+03  0.88299039853E+02 0.  0.
          5    1    3    3  502    0  0.36783322378E+02 -0.22424181383E+02 -0.43441710784E+02  0.61323008339E+02  0.41800000000E+01 0.  1.
         -5    1    3    3    0  502 -0.39076822743E+02  0.58154351882E+02  0.15208398455E+02  0.71817090599E+02  0.41800000000E+01 0.  1.
        -11    1    4    4    0    0  0.67622552410E+01 -0.61396857587E+02  0.37357369952E+02  0.72186392812E+02  0.00000000000E+00 0.  1.
         11    1    4    4    0    0 -0.44687548760E+01  0.25666687089E+02  0.53331497403E+02  0.59354841517E+02  0.00000000000E+00 0. -1.
</event>
<event>
 8    1  0.6901948E-009  0.3618699E+03  0.7561462E-02  0.1057846E+00
         -2   -1    0    0    0  501 -0.00000000000E+00  0.00000000000E+00  0.31361608918E+03  0.31361608918E+03  0.00000000000E+00 0.  1.
          2   -1    0    0  501    0  0.00000000000E+00 -0.00000000000E+00 -0.46765851918E+03  0.46765851918E+03  0.00000000000E+00 0. -1.
         25    2    1    2    0    0  0.66299810011E+02  0.35261864529E+03 -0.15560442686E+03  0.41060401346E+03  0.12508934565E+03 0.  0.
         23    2    1    2    0    0 -0.66299810011E+02 -0.35261864529E+03  0.15619968649E+01  0.37067059490E+03  0.93052008415E+02 0.  0.
          5    1    3    3  502    0  0.19754506256E+02  0.48044874977E+02 -0.76342632403E+02  0.92434952541E+02  0.41800000000E+01 0. -1.
         -5    1    3    3    0  502  0.46545303755E+02  0.30457377032E+03 -0.79261794459E+02  0.31816906092E+03  0.41800000000E+01 0. -1.
        -11    1    4    4    0    0  0.10059829554E+01 -0.14956221090E+03  0.36401601684E+02  0.15393161967E+03  0.00000000000E+00 0.  1.
         11    1    4    4    0    0 -0.67305792966E+02 -0.20305643440E+03 -0.34839604819E+02  0.21673897522E+03  0.00000000000E+00 0. -1.
</event>
<event>
 8    1  0.6901948E-009  0.2562390E+03  0.7561462E-02  0.1109424E+00
          1   -1    0    0  501    0  0.00000000000E+00  0.00000000000E+00  0.13062240256E+04  0.13062240256E+04  0.00000000000E+00 0. -1.
         -1   -1    0    0    0  501 -0.00000000000E+00 -0.00000000000E+00 -0.62705980264E+02  0.62705980264E+02  0.00000000000E+00 0.  1.
         25    2    1    2    0    0  0.37928707698E+02  0.24079013828E+03  0.39072381028E+03  0.47721144028E+03  0.12508870953E+03 0.  0.
         23    2    1    2    0    0 -0.37928707698E+02 -0.24079013828E+03  0.85279423509E+03  0.89171856563E+03  0.92116856820E+02 0.  0.
          5    1    3    3  502    0 -0.20236706035E+02  0.45569779837E+02  0.16827924834E+03  0.17556055060E+03  0.41800000000E+01 0. -1.
         -5    1    3    3    0  502  0.58165413732E+02  0.19522035844E+03  0.22244456194E+03  0.30165088968E+03  0.41800000000E+01 0. -1.
        -11    1    4    4    0    0  0.26699306393E+02 -0.10456187189E+03  0.40958291634E+03  0.42356133366E+03  0.00000000000E+00 0.  1.
         11    1    4    4    0    0 -0.64628014090E+02 -0.13622826639E+03  0.44321131875E+03  0.46815723196E+03  0.00000000000E+00 0. -1.
</event>
<event>
 8    1  0.6901948E-009  0.1195171E+03  0.7561462E-02  0.1243896E+00
         -2   -1    0    0    0  501 -0.00000000000E+00  0.00000000000E+00  0.36297724672E+02  0.36297724672E+02  0.00000000000E+00 0.  1.
          2   -1    0    0  501    0  0.00000000000E+00 -0.00000000000E+00 -0.43616771894E+03  0.43616771894E+03  0.00000000000E+00 0. -1.
         25    2    1    2    0    0  0.18950560087E+02  0.57406519646E+02 -0.17076084461E+03  0.22013955474E+03  0.12509006868E+03 0.  0.
         23    2    1    2    0    0 -0.18950560087E+02 -0.57406519646E+02 -0.22910914965E+03  0.25232588887E+03  0.86733612364E+02 0.  0.
          5    1    3    3  502    0  0.49672418232E+02  0.84162388589E+02 -0.12513311546E+03  0.15882829021E+03  0.41800000000E+01 0.  1.
         -5    1    3    3    0  502 -0.30721858145E+02 -0.26755868943E+02 -0.45627729149E+02  0.61311264528E+02  0.41800000000E+01 0.  1.
        -11    1    4    4    0    0  0.19279455358E+02  0.10782099769E+02 -0.90844643106E+02  0.93491712229E+02  0.00000000000E+00 0. -1.
         11    1    4    4    0    0 -0.38230015445E+02 -0.68188619415E+02 -0.13826450655E+03  0.15883417664E+03  0.00000000000E+00 0.  1.
</event>
<event>
 8    1  0.6901948E-009  0.1618637E+03  0.7561462E-02  0.1186609E+00
          2   -1    0    0  501    0  0.00000000000E+00  0.00000000000E+00  0.18556130428E+03  0.18556130428E+03  0.00000000000E+00 0. -1.
         -2   -1    0    0    0  501 -0.00000000000E+00 -0.00000000000E+00 -0.18672453320E+03  0.18672453320E+03  0.00000000000E+00 0.  1.
         25    2    1    2    0    0 -0.12302401754E+03  0.81567322580E+02 -0.37792765804E+02  0.19713946150E+03  0.12509011604E+03 0.  0.
         23    2    1    2    0    0  0.12302401754E+03 -0.81567322580E+02  0.36629536877E+02  0.17514637598E+03  0.86869977795E+02 0.  0.
          5    1    3    3  502    0  0.12875050811E+02  0.25374948131E+02 -0.40887601535E+02  0.49989231694E+02  0.41800000000E+01 0.  1.
         -5    1    3    3    0  502 -0.13589906835E+03  0.56192374448E+02  0.30948357311E+01  0.14715022981E+03  0.41800000000E+01 0.  1.
        -11    1    4    4    0    0  0.71813904171E+02 -0.42584831258E+02 -0.23848925605E+02  0.86830155695E+02  0.00000000000E+00 0.  1.
         11    1    4    4    0    0  0.51210113368E+02 -0.38982491321E+02  0.60478462482E+02  0.88316220282E+02  0.00000000000E+00 0. -1.
</event>
<event>
 8    1  0.6901948E-009  0.1059541E+03  0.7561462E-02  0.1268251E+00
         -2   -1    0    0    0  501 -0.00000000000E+00  0.00000000000E+00  0.90384838569E+02  0.90384838569E+02  0.00000000000E+00 0. -1.
          2   -1    0    0  501    0  0.00000000000E+00 -0.00000000000E+00 -0.23078965995E+03  0.23078965995E+03  0.00000000000E+00 0.  1.
         25    2    1    2    0    0  0.45600304855E+02 -0.80451174313E+02 -0.52671473054E+02  0.16423731436E+03  0.12509129508E+03 0.  0.
         23    2    1    2    0    0 -0.45600304855E+02  0.80451174313E+02 -0.87733348326E+02  0.15693718416E+03  0.91544306818E+02 0.  0.
          5    1    3    3  502    0  0.37584837702E+01 -0.57002179395E+02 -0.87664155060E+02  0.10471795996E+03  0.41800000000E+01 0.  1.
         -5    1    3    3    0  502  0.41841821085E+02 -0.23448994918E+02  0.34992682006E+02  0.59519354402E+02  0.41800000000E+01 0.  1.
        -11    1    4    4    0    0 -0.39224057773E+02  0.17062085861E+02  0.64214112346E+01  0.43253624176E+02  0.00000000000E+00 0. -1.
         11    1    4    4    0    0 -0.63762470823E+01  0.63389088452E+02 -0.94154759560E+02  0.11368355998E+03  0.00000000000E+00 0.  1.
</event>
<event>
 8    1  0.6901948E-009  0.1444016E+03  0.7561462E-02  0.1207526E+00
         -2   -1    0    0    0  501 -0.00000000000E+00  0.00000000000E+00  0.26475752427E+02  0.26475752427E+02  0.00000000000E+00 0. -1.
          2   -1    0    0  501    0  0.00000000000E+00 -0.00000000000E+00 -0.13624684661E+04  0.13624684661E+04  0.00000000000E+00 0.  1.
         25    2    1    2    0    0 -0.32514502994E+02 -0.10141739182E+03 -0.11154977779E+04  0.11275258676E+04  0.12504642874E+03 0.  0.
         23    2    1    2    0    0  0.32514502994E+02  0.10141739182E+03 -0.22049493578E+03  0.26141835093E+03  0.91536097966E+02 0.  0.
          5    1    3    3  502    0  0.41131375064E+02 -0.67914070382E+02 -0.43330466989E+03  0.44053889763E+03  0.41800000000E+01 0.  1.
         -5    1    3    3    0  502 -0.73645878058E+02 -0.33503321438E+02 -0.68219310796E+03  0.68698696993E+03  0.41800000000E+01 0.  1.
        -11    1    4    4    0    0  0.55016765112E+02  0.62002039755E+02 -0.18840392849E+03  0.20583279051E+03  0.00000000000E+00 0.  1.
         11    1    4    4    0    0 -0.22502262118E+02  0.39415352065E+02 -0.32091007286E+02  0.55585560422E+02  0.00000000000E+00 0. -1.
</event>
<event>
 8    1  0.6901948E-009  0.1535504E+03  0.7561462E-02  0.1196177E+00
         -2   -1    0    0    0  501 -0.00000000000E+00  0.00000000000E+00  0.76697453808E+02  0.76697453808E+02  0.00000000000E+00 0.  1.
          2   -1    0    0  501    0  0.00000000000E+00 -0.00000000000E+00 -0.37572911650E+03  0.37572911650E+03  0.00000000000E+00 0. -1.
         25    2    1    2    0    0  0.66968070130E+01  0.12951761158E+03 -0.17977851179E+03  0.25453322595E+03  0.12508873201E+03 0.  0.
         23    2    1    2    0    0 -0.66968070130E+01 -0.12951761158E+03 -0.11925315090E+03  0.19789334436E+03  0.90115497040E+02 0.  0.
          5    1    3    3  502    0 -0.35861735639E+02 -0.37586420669E+01 -0.60882884056E+02  0.70882927735E+02  0.41800000000E+01 0.  1.
         -5    1    3    3    0  502  0.42558542652E+02  0.13327625365E+03 -0.11889562773E+03  0.18365029821E+03  0.41800000000E+01 0.  1.
        -11    1    4    4    0    0  0.23400249879E+01 -0.98432654314E+02 -0.13062977946E+03  0.16358056863E+03  0.00000000000E+00 0. -1.
         11    1    4    4    0    0 -0.90368320008E+01 -0.31084957271E+02  0.11376628553E+02  0.34312775731E+02  0.00000000000E+00 0.  1.
</event>
<event>
 8    1  0.6901948E-009  0.8861341E+02  0.7561462E-02  0.1306245E+00
          2   -1    0    0  501    0  0.00000000000E+00  0.00000000000E+00  0.34650939489E+03  0.34650939489E+03  0.00000000000E+00 0. -1.
         -2   -1    0    0    0  501 -0.00000000000E+00 -0.00000000000E+00 -0.31726666083E+02  0.31726666083E+02  0.00000000000E+00 0.  1.
         25    2    1    2    0    0  0.13570020196E+02  0.26789861039E+02  0.17160617710E+03  0.21447226232E+03  0.12509128340E+03 0.  0.
         23    2    1    2    0    0 -0.13570020196E+02 -0.26789861039E+02  0.14317655171E+03  0.16376379866E+03  0.73601730206E+02 0.  0.
          5    1    3    3  502    0  0.27451104899E+02 -0.29512076404E+02  0.86213393836E+01  0.41428561484E+02  0.41800000000E+01 0.  1.
         -5    1    3    3    0  502 -0.13881084703E+02  0.56301937442E+02  0.16298483772E+03  0.17304370083E+03  0.41800000000E+01 0.  1.
        -11    1    4    4    0    0 -0.43604470223E+02 -0.18823429437E+02  0.98394306873E+02  0.10925708647E+03  0.00000000000E+00 0. -1.
         11    1    4    4    0    0  0.30034450027E+02 -0.79664316021E+01  0.44782244832E+02  0.54506712184E+02  0.00000000000E+00 0.  1.
</event>
<event>
 8    1  0.6901948E-009  0.1197421E+03  0.7561462E-02  0.1243523E+00
         -1   -1    0    0    0  501 -0.00000000000E+00  0.00000000000E+00  0.33266239502E+03  0.33266239502E+03  0.00000000000E+00 0.  1.
          1   -1    0    0  501    0  0.00000000000E+00 -0.00000000000E+00 -0.46939621302E+02  0.46939621302E+02  0.00000000000E+00 0. -1.
         25    2    1    2    0    0  0.20793175439E+02  0.58328979671E+02  0.18300857484E+03  0.23016163395E+03  0.12509042035E+03 0.  0.
         23    2    1    2    0    0 -0.20793175439E+02 -0.58328979671E+02  0.10271419888E+03  0.14944038237E+03  0.89149286126E+02 0.  0.
          5    1    3    3  502    0  0.25383195399E+02 -0.31649263272E+02  0.23912262141E+02  0.47278442815E+02  0.41800000000E+01 0. -1.
         -5    1    3    3    0  502 -0.45900199594E+01  0.89978242943E+02  0.15909631270E+03  0.18288319114E+03  0.41800000000E+01 0. -1.
        -11    1    4    4    0    0  0.35340704047E+02 -0.21408952851E+02  0.41075023386E+02  0.58262047431E+02  0.00000000000E+00 0.  1.
         11    1    4    4    0    0 -0.56133879486E+02 -0.36920026819E+02  0.61639175490E+02  0.91178334935E+02  0.00000000000E+00 0. -1.
</event>
<event>
 8    1  0.6901948E-009  0.1253411E+03  0.7561462E-02  0.1234537E+00
          1   -1    0    0  501    0  0.00000000000E+00  0.00000000000E+00  0.21546113283E+03  0.21546113283E+03  0.00000000000E+00 0. -1.
         -1   -1    0    0    0  501 -0.00000000000E+00 -0.00000000000E+00 -0.92569035021E+02  0.92569035021E+02  0.00000000000E+00 0.  1.
         25    2    1    2    0    0 -0.87133533814E+02  0.15318195104E+02  0.41313654879E+02  0.15867508602E+03  0.12507623686E+03 0.  0.
         23    2    1    2    0    0  0.87133533814E+02 -0.15318195104E+02  0.81578442928E+02  0.14935508183E+03  0.88459020470E+02 0.  0.
          5    1    3    3  502    0  0.24983099582E+02 -0.21802387487E+00  0.37615314036E+02  0.45349609140E+02  0.41800000000E+01 0. -1.
         -5    1    3    3    0  502 -0.11211663340E+03  0.15536218979E+02  0.36983408435E+01  0.11332547688E+03  0.41800000000E+01 0. -1.
        -11    1    4    4    0    0  0.67184491509E+02 -0.41652411846E+02  0.23380428299E+02  0.82433753641E+02  0.00000000000E+00 0.  1.
         11    1    4    4    0    0  0.19949042305E+02  0.26334216741E+02  0.58198014628E+02  0.66921328192E+02  0.00000000000E+00 0. -1.
</event>
<event>
 8    1  0.6901948E-009  0.1460445E+03  0.7561462E-02  0.1205419E+00
          2   -1    0    0  501    0  0.00000000000E+00  0.00000000000E+00  0.55854846108E+02  0.55854846108E+02  0.00000000000E+00 0. -1.
         -2   -1    0    0    0  501 -0.00000000000E+00 -0.00000000000E+00 -0.46465885210E+03  0.46465885210E+03  0.00000000000E+00 0.  1.
         25    2    1    2    0    0 -0.19174579155E+02  0.11161823573E+03 -0.20736895294E+03  0.26734857484E+03  0.12508829998E+03 0.  0.
         23    2    1    2    0    0  0.19174579155E+02 -0.11161823573E+03 -0.20143505305E+03  0.25316512337E+03  0.10339344302E+03 0.  0.
          5    1    3    3  502    0  0.24438879962E+02  0.10219826251E+03 -0.19385216318E+03  0.22053996754E+03  0.41800000000E+01 0.  1.
         -5    1    3    3    0  502 -0.43613459117E+02  0.94199732262E+01 -0.13516789757E+02  0.46808607297E+02  0.41800000000E+01 0.  1.
        -11    1    4    4    0    0  0.50319735290E+02 -0.93230938342E+02 -0.10082807807E+03  0.14625452113E+03  0.00000000000E+00 0. -1.
         11    1    4    4    0    0 -0.31145156134E+02 -0.18387297390E+02 -0.10060697499E+03  0.10691060224E+03  0.00000000000E+00 0.  1.
</event>
<event>
 8    1  0.6901948E-009  0.3071460E+03  0.7561462E-02  0.1081722E+00
          2   -1    0    0  501    0  0.00000000000E+00  0.00000000000E+00  0.22394904423E+04  0.22394904423E+04  0.00000000000E+00 0. -1.
         -2   -1    0    0    0  501 -0.00000000000E+00 -0.00000000000E+00 -0.49081588868E+02  0.49081588868E+02  0.00000000000E+00 0.  1.
         25    2    1    2    0    0 -0.40219167982E+02  0.30130457854E+03  0.13677275120E+04  0.14066728619E+04  0.12509181732E+03 0.  0.
         23    2    1    2    0    0  0.40219167982E+02 -0.30130457854E+03  0.82268134142E+03  0.88189916927E+03  0.92409548824E+02 0.  0.
          5    1    3    3  502    0 -0.22933376538E+01  0.34701696207E+02  0.41893927962E+03  0.42040106984E+03  0.41800000000E+01 0. -1.
         -5    1    3    3    0  502 -0.37925830328E+02  0.26660288233E+03  0.94878823238E+03  0.98627179204E+03  0.41800000000E+01 0. -1.
        -11    1    4    4    0    0 -0.27646226465E+00 -0.21072491587E+03  0.46142961278E+03  0.50726950840E+03  0.00000000000E+00 0.  1.
         11    1    4    4    0    0  0.40495630247E+02 -0.90579662667E+02  0.36125172864E+03  0.37462966087E+03  0.00000000000E+00 0. -1.
</event>
<event>
 8    1  0.6901948E-009  0.1314008E+03  0.7561462E-02  0.1225392E+00
          1   -1    0    0  501    0  0.00000000000E+00  0.00000000000E+00  0.15057335511E+03  0.15057335511E+03  0.00000000000E+00 0. -1.
         -1   -1    0    0    0  501 -0.00000000000E+00 -0.00000000000E+00 -0.13154780668E+03  0.13154780668E+03  0.00000000000E+00 0.  1.
         25    2    1    2    0    0 -0.30033470526E+02  0.70529265648E+02 -0.36264766809E+02  0.15112631185E+03  0.12509053584E+03 0.  0.
         23    2    1    2    0    0  0.30033470526E+02 -0.70529265648E+02  0.55290315236E+02  0.13099484993E+03  0.90698649856E+02 0.  0.
          5    1    3    3  502    0  0.84553519905E+01  0.96870989709E+02 -0.37447573639E+02  0.10428458561E+03  0.41800000000E+01 0. -1.
         -5    1    3    3    0  502 -0.38488822516E+02 -0.26341724060E+02  0.11828068302E+01  0.46841726240E+02  0.41800000000E+01 0. -1.
        -11    1    4    4    0    0  0.10991724109E+02  0.21778138337E+02  0.91317553505E+01  0.26047922453E+02  0.00000000000E+00 0.  1.
         11    1    4    4    0    0  0.19041746417E+02 -0.92307403985E+02  0.46158559885E+02  0.10494692748E+03  0.00000000000E+00 0. -1.
</event>
<event>
 8    1  0.6901948E-009  0.1737817E+03  0.7561462E-02  0.1173961E+00
          1   -1    0    0  501    0  0.00000000000E+00  0.00000000000E+00  0.47430974830E+03  0.47430974830E+03  0.00000000000E+00 0. -1.
         -1   -1    0    0    0  501 -0.00000000000E+00 -0.00000000000E+00 -0.10285290421E+03  0.10285290421E+03  0.00000000000E+00 0.  1.
         25    2    1    2    0    0  0.11359862420E+02 -0.14876071851E+03  0.34984571444E+02  0.19781268259E+03  0.12508852589E+03 0.  0.
         23    2    1    2    0    0 -0.11359862420E+02  0.14876071851E+03  0.33647227264E+03  0.37934996992E+03  0.91836874833E+02 0.  0.
          5    1    3    3  502    0 -0.37004552040E+02 -0.21364285342E+01 -0.65549257232E+01  0.37872690026E+02  0.41800000000E+01 0. -1.
         -5    1    3    3    0  502  0.48364414460E+02 -0.14662428997E+03  0.41539497168E+02  0.15993999256E+03  0.41800000000E+01 0. -1.
        -11    1    4    4    0    0 -0.27166995803E+02  0.11954390189E+03  0.31915162974E+03  0.34188675450E+03  0.00000000000E+00 0. -1.
         11    1    4    4    0    0  0.15807133382E+02  0.29216816615E+02  0.17320642901E+02  0.37463215417E+02  0.00000000000E+00 0.  1.
</event>
<event>
 8    1  0.6901948E-009  0.8427434E+02  0.7561462E-02  0.1317341E+00
         -1   -1    0    0    0  501 -0.00000000000E+00  0.00000000000E+00  0.28346144946E+03  0.28346144946E+03  0.00000000000E+00 0.  1.
          1   -1    0    0  501    0  0.00000000000E+00 -0.00000000000E+00 -0.59810629005E+02  0.59810629005E+02  0.00000000000E+00 0. -1.
         25    2    1    2    0    0  0.10842693339E+02 -0.21110989580E+02  0.21633758471E+03  0.25102264162E+03  0.12508868121E+03 0.  0.
         23    2    1    2    0    0 -0.10842693339E+02  0.21110989580E+02  0.73132357484E+01  0.92249436851E+02  0.88843892882E+02 0.  0.
          5    1    3    3  502    0  0.15162931163E+00 -0.54027702977E+02  0.30989457092E+02  0.62424630806E+02  0.41800000000E+01 0.  1.
         -5    1    3    3    0  502  0.10691064027E+02  0.32916713397E+02  0.18534812762E+03  0.18859801081E+03  0.41800000000E+01 0.  1.
        -11    1    4    4    0    0 -0.21829583184E+02  0.46754952169E+02 -0.17929322372E+02  0.54626155412E+02  0.00000000000E+00 0. -1.
         11    1    4    4    0    0  0.10986889845E+02 -0.25643962590E+02  0.25242558121E+02  0.37623281439E+02  0.00000000000E+00 0.  1.
</event>
<event>
 8    1  0.6901948E-009  0.8171483E+02  0.7561462E-02  0.1324254E+00
         -1   -1    0    0    0  501 -0.00000000000E+00  0.00000000000E+00  0.10757142839E+03  0.10757142839E+03  0.00000000000E+00 0.  1.
          1   -1    0    0  501    0  0.00000000000E+00 -0.00000000000E+00 -0.11578408008E+03  0.11578408008E+03  0.00000000000E+00 0. -1.
         25    2    1    2    0    0 -0.87650881914E+01  0.20740816202E+02  0.11798270401E+02  0.12764791370E+03  0.12509109665E+03 0.  0.
         23    2    1    2    0    0  0.87650881914E+01 -0.20740816202E+02 -0.20010922088E+02  0.95707594768E+02  0.90843263183E+02 0.  0.
          5    1    3    3  502    0  0.36633912226E+02  0.19478199878E+02  0.52135457293E+02  0.66760932457E+02  0.41800000000E+01 0.  1.
         -5    1    3    3    0  502 -0.45399000417E+02  0.12626163240E+01 -0.40337186891E+02  0.60886981246E+02  0.41800000000E+01 0.  1.
        -11    1    4    4    0    0  0.81533513633E+00  0.27357665281E+02 -0.35251985429E+02  0.44629688523E+02  0.00000000000E+00 0.  1.
         11    1    4    4    0    0  0.79497530550E+01 -0.48098481482E+02  0.15241063341E+02  0.51077906244E+02  0.00000000000E+00 0. -1.
</event>
<event>
 8    1  0.6901948E-009  0.1849695E+03  0.7561462E-02  0.1163078E+00
         -2   -1    0    0    0  501 -0.00000000000E+00  0.00000000000E+00  0.39788542931E+03  0.39788542931E+03  0.00000000000E+00 0.  1.
          2   -1    0    0  501    0  0.00000000000E+00 -0.00000000000E+00 -0.11125540861E+03  0.11125540861E+03  0.00000000000E+00 0. -1.
         25    2    1    2    0    0 -0.16030965029E+03 -0.12728757063E+02  0.58596626937E+02  0.21199458420E+03  0.12508770447E+03 0.  0.
         23    2    1    2    0    0  0.16030965029E+03  0.12728757063E+02  0.22803339376E+03  0.29714625372E+03  0.10215411003E+03 0.  0.
          5    1    3    3  502    0 -0.46874978831E+02 -0.62701069542E+02  0.11068418742E+02  0.79174933253E+02  0.41800000000E+01 0.  1.
         -5    1    3    3    0  502 -0.11343467146E+03  0.49972312479E+02  0.47528208196E+02  0.13281965095E+03  0.41800000000E+01 0.  1.
        -11    1    4    4    0    0  0.61292549465E+02  0.27900631835E+02  0.16645079448E+03  0.17955803758E+03  0.00000000000E+00 0.  1.
         11    1    4    4    0    0  0.99017100828E+02 -0.15171874772E+02  0.61582599280E+02  0.11758821614E+03  0.00000000000E+00 0. -1.
</event>
<event>
 8    1  0.6901948E-009  0.1797424E+03  0.7561462E-02  0.1168053E+00
         -2   -1    0    0    0  501 -0.00000000000E+00  0.00000000000E+00  0.24479985130E+03  0.24479985130E+03  0.00000000000E+00 0.  1.
          2   -1    0    0  501    0  0.00000000000E+00 -0.00000000000E+00 -0.15935368354E+03  0.15935368354E+03  0.00000000000E+00 0. -1.
         25    2    1    2    0    0  0.12586683078E+03 -0.83417050640E+02 -0.22479519815E+02  0.19736751982E+03  0.12509094948E+03 0.  0.
         23    2    1    2    0    0 -0.12586683078E+03  0.83417050640E+02  0.10792568757E+03  0.20678601502E+03  0.91168188194E+02 0.  0.
          5    1    3    3  502    0  0.44116063311E+02  0.25952323528E+02 -0.31862720417E+02  0.60435548239E+02  0.41800000000E+01 0. -1.
         -5    1    3    3    0  502  0.81750767473E+02 -0.10936937417E+03  0.93832006025E+01  0.13693197158E+03  0.41800000000E+01 0. -1.
        -11    1    4    4    0    0 -0.39930754486E+02  0.75261702976E+02  0.29509391471E+02  0.90164257185E+02  0.00000000000E+00 0. -1.
         11    1    4    4    0    0 -0.85936076298E+02  0.81553476638E+01  0.78416296103E+02  0.11662175783E+03  0.00000000000E+00 0.  1.
</event>
<event>
 8    1  0.6901948E-009  0.1087225E+03  0.7561462E-02  0.1262954E+00
          4   -1    0    0  501    0  0.00000000000E+00  0.00000000000E+00  0.16912727926E+03  0.16912727926E+03  0.00000000000E+00 0.  1.
         -4   -1    0    0    0  501 -0.00000000000E+00 -0.00000000000E+00 -0.13834375081E+03  0.13834375081E+03  0.00000000000E+00 0. -1.
         25    2    1    2    0    0  0.99278944941E+02 -0.32093219038E+01  0.58130121065E+02  0.16998216959E+03  0.12509283891E+03 0.  0.
         23    2    1    2    0    0 -0.99278944941E+02  0.32093219038E+01 -0.27346592611E+02  0.13748886048E+03  0.91042528372E+02 0.  0.
          5    1    3    3  502    0  0.30365455256E+02  0.95500844891E+01 -0.38759161113E+02  0.50329017046E+02  0.41800000000E+01 0. -1.
         -5    1    3    3    0  502  0.68913489686E+02 -0.12759406393E+02  0.96889282177E+02  0.11965315254E+03  0.41800000000E+01 0. -1.
        -11    1    4    4    0    0 -0.38578200021E+02 -0.27234942419E+02 -0.47171082629E+02  0.66746765029E+02  0.00000000000E+00 0. -1.
         11    1    4    4    0    0 -0.60700744921E+02  0.30444264323E+02  0.19824490018E+02  0.70742095449E+02  0.00000000000E+00 0.  1.
</event>
<event>
 8    1  0.6901948E-009  0.1312155E+03  0.7561462E-02  0.1225663E+00
          1   -1    0    0  501    0  0.00000000000E+00  0.00000000000E+00  0.11285097335E+03  0.11285097335E+03  0.00000000000E+00 0. -1.
         -1   -1    0    0    0  501 -0.00000000000E+00 -0.00000000000E+00 -0.20268803433E+03  0.20268803433E+03  0.00000000000E+00 0.  1.
         25    2    1    2    0    0  0.94193581618E+02  0.17297531174E+02 -0.94437512531E+02  0.18367302618E+03  0.12508277808E+03 0.  0.
         23    2    1    2    0    0 -0.94193581618E+02 -0.17297531174E+02  0.46004515542E+01  0.13186598150E+03  0.90530865016E+02 0.  0.
          5    1    3    3  502    0  0.50353182200E+02 -0.40881450430E+02 -0.89404486383E+02  0.11053221491E+03  0.41800000000E+01 0. -1.
         -5    1    3    3    0  502  0.43840399418E+02  0.58178981604E+02 -0.50330261478E+01  0.73140811274E+02  0.41800000000E+01 0. -1.
        -11    1    4    4    0    0 -0.92272390408E+02  0.13812370251E+02 -0.15779514964E+02  0.94625412527E+02  0.00000000000E+00 0.  1.
         11    1    4    4    0    0 -0.19211912101E+01 -0.31109901425E+02  0.20379966518E+02  0.37240568976E+02  0.00000000000E+00 0. -1.
</event>
<event>
 8    1  0.6901948E-009  0.1572202E+03  0.7561462E-02  0.1191871E+00
          1   -1    0    0  501    0  0.00000000000E+00  0.00000000000E+00  0.86289039120E+03  0.86289039120E+03  0.00000000000E+00 0. -1.
         -1   -1    0    0    0  501 -0.00000000000E+00 -0.00000000000E+00 -0.30880254785E+02  0.30880254785E+02  0.00000000000E+00 0.  1.
         25    2    1    2    0    0 -0.51449696416E+02  0.10851696670E+03  0.52362936097E+03  0.55159589530E+03  0.12508925103E+03 0.  0.
         23    2    1    2    0    0  0.51449696416E+02 -0.10851696670E+03  0.30838077545E+03  0.34217475069E+03  0.86958921441E+02 0.  0.
          5    1    3    3  502    0  0.35757447412E+02  0.13559893582E+02  0.68762307096E+02  0.78792087398E+02  0.41800000000E+01 0.  1.
         -5    1    3    3    0  502 -0.87207143829E+02  0.94957073115E+02  0.45486705387E+03  0.47280380791E+03  0.41800000000E+01 0.  1.
        -11    1    4    4    0    0 -0.12228854658E+02 -0.73091573484E+02  0.13289452131E+03  0.15216069399E+03  0.00000000000E+00 0.  1.
         11    1    4    4    0    0  0.63678551075E+02 -0.35425393212E+02  0.17548625413E+03  0.19001405669E+03  0.00000000000E+00 0. -1.
</event>
<event>
 8    1  0.6901948E-009  0.1499456E+03  0.7561462E-02  0.1200540E+00
          1   -1    0    0  501    0  0.00000000000E+00  0.00000000000E+00  0.20728358515E+03  0.20728358515E+03  0.00000000000E+00 0. -1.
         -1   -1    0    0    0  501 -0.00000000000E+00 -0.00000000000E+00 -0.12838468169E+03  0.12838468169E+03  0.00000000000E+00 0.  1.
         25    2    1    2    0    0 -0.10392311076E+03 -0.20056872043E+02 -0.19895559088E+02  0.16506216337E+03  0.12508954169E+03 0.  0.
         23    2    1    2    0    0  0.10392311076E+03  0.20056872043E+02  0.98794462548E+02  0.17060610347E+03  0.90243036552E+02 0.  0.
          5    1    3    3  502    0  0.23578120170E+01 -0.51525550110E+02 -0.15638271979E+02  0.54059869979E+02  0.41800000000E+01 0. -1.
         -5    1    3    3    0  502 -0.10628092277E+03  0.31468678067E+02 -0.42572871089E+01  0.11100229339E+03  0.41800000000E+01 0. -1.
        -11    1    4    4    0    0  0.10836566400E+03 -0.81459785151E+01  0.88859768960E+02  0.14037639630E+03  0.00000000000E+00 0. -1.
         11    1    4    4    0    0 -0.44425532384E+01  0.28202850558E+02  0.99346935884E+01  0.30229707170E+02  0.00000000000E+00 0.  1.
</event>
<event>
 8    1  0.6901948E-009  0.8666730E+02  0.7561462E-02  0.1311129E+00
          1   -1    0    0  501    0  0.00000000000E+00  0.00000000000E+00  0.14005974253E+03  0.14005974253E+03  0.00000000000E+00 0. -1.
         -1   -1    0    0    0  501 -0.00000000000E+00 -0.00000000000E+00 -0.12313930340E+03  0.12313930340E+03  0.00000000000E+00 0.  1.
         25    2    1    2    0    0 -0.60575149157E+02  0.16747688209E+02 -0.26888277073E+02  0.14255028907E+03  0.12509105369E+03 0.  0.
         23    2    1    2    0    0  0.60575149157E+02 -0.16747688209E+02  0.43808716196E+02  0.12064875686E+03  0.93204534023E+02 0.  0.
          5    1    3    3  502    0 -0.79998449971E+02  0.70853106529E+01 -0.61670734772E+02  0.10134448950E+03  0.41800000000E+01 0.  1.
         -5    1    3    3    0  502  0.19423300814E+02  0.96623775560E+01  0.34782457699E+02  0.41205799569E+02  0.41800000000E+01 0.  1.
        -11    1    4    4    0    0  0.10052394405E+02 -0.17625885664E+02 -0.26928421436E+02  0.33717389575E+02  0.00000000000E+00 0.  1.
         11    1    4    4    0    0  0.50522754752E+02  0.87819745541E+00  0.70737137631E+02  0.86931367289E+02  0.00000000000E+00 0. -1.
</event>
<event>
 8    1  0.6901948E-009  0.2180390E+03  0.7561462E-02  0.1135354E+00
          2   -1    0    0  501    0  0.00000000000E+00  0.00000000000E+00  0.25159131297E+03  0.25159131297E+03  0.00000000000E+00 0. -1.
         -2   -1    0    0    0  501 -0.00000000000E+00 -0.00000000000E+00 -0.19345044915E+03  0.19345044915E+03  0.00000000000E+00 0.  1.
         25    2    1    2    0    0 -0.50723688683E+02 -0.18388387291E+03  0.53411809512E+02  0.23428039798E+03  0.12509321394E+03 0.  0.
         23    2    1    2    0    0  0.50723688683E+02  0.18388387291E+03  0.47290543093E+01  0.21076136414E+03  0.89508755733E+02 0.  0.
          5    1    3    3  502    0  0.38006265147E+02 -0.28463787224E+02  0.22132494216E+02  0.52554572340E+02  0.41800000000E+01 0. -1.
         -5    1    3    3    0  502 -0.88729953830E+02 -0.15542008568E+03  0.31279315295E+02  0.18172582564E+03  0.41800000000E+01 0. -1.
        -11    1    4    4    0    0 -0.23561441002E+02  0.27132974503E+02  0.97228559931E+01  0.37227325127E+02  0.00000000000E+00 0.  1.
         11    1    4    4    0    0  0.74285129685E+02  0.15675089840E+03 -0.49938016838E+01  0.17353403902E+03  0.00000000000E+00 0. -1.
</event>
<event>
 8    1  0.6901948E-009  0.1271275E+03  0.7561462E-02  0.1231781E+00
          2   -1    0    0  501    0  0.00000000000E+00  0.00000000000E+00  0.23924978437E+03  0.23924978437E+03  0.00000000000E+00 0. -1.
         -2   -1    0    0    0  501 -0.00000000000E+00 -0.00000000000E+00 -0.10692705858E+03  0.10692705858E+03  0.00000000000E+00 0.  1.
         25    2    1    2    0    0  0.96777038534E+02  0.29411206771E+02  0.58732953578E+01  0.16097531005E+03  0.12509092923E+03 0.  0.
         23    2    1    2    0    0 -0.96777038534E+02 -0.29411206771E+02  0.12644943044E+03  0.18520153290E+03  0.89885121462E+02 0.  0.
          5    1    3    3  502    0  0.74915919983E+02 -0.28776760447E+02  0.40188549890E+02  0.89850369787E+02  0.41800000000E+01 0.  1.
         -5    1    3    3    0  502  0.21861118551E+02  0.58187967218E+02 -0.34315254532E+02  0.71124940259E+02  0.41800000000E+01 0.  1.
        -11    1    4    4    0    0 -0.81220377455E+02 -0.34069468422E+01  0.13138448706E+03  0.15449996906E+03  0.00000000000E+00 0. -1.
         11    1    4    4    0    0 -0.15556661080E+02 -0.26004259929E+02 -0.49350566201E+01  0.30701563840E+02  0.00000000000E+00 0.  1.
</event>
<event>
 8    1  0.6901948E-009  0.9081437E+02  0.7561462E-02  0.1300891E+00
         -2   -1    0    0    0  501 -0.00000000000E+00  0.00000000000E+00  0.15418962601E+03  0.15418962601E+03  0.00000000000E+00 0.  1.
          2   -1    0    0  501    0  0.00000000000E+00 -0.00000000000E+00 -0.86295799037E+02  0.86295799037E+02  0.00000000000E+00 0. -1.
         25    2    1    2    0    0 -0.17881706006E+01  0.34951667122E+02  0.60526861514E+02  0.14330437666E+03  0.12509127394E+03 0.  0.
         23    2    1    2    0    0  0.17881706006E+01 -0.34951667122E+02  0.73669654629E+01  0.97181048394E+02  0.90360762492E+02 0.  0.
          5    1    3    3  502    0  0.28680336929E+02  0.48535756599E+02  0.84744752249E+02  0.10186965607E+03  0.41800000000E+01 0.  1.
         -5    1    3    3    0  502 -0.30468507530E+02 -0.13584089478E+02 -0.24217890735E+02  0.41434720582E+02  0.41800000000E+01 0.  1.
        -11    1    4    4    0    0 -0.17122519230E+02  0.24048097721E+02  0.17623678695E+02  0.34381473493E+02  0.00000000000E+00 0.  1.
         11    1    4    4    0    0  0.18910689831E+02 -0.58999764843E+02 -0.10256713233E+02  0.62799574901E+02  0.00000000000E+00 0. -1.
</event>
<event>
 8    1  0.6901948E-009  0.1081354E+03  0.7561462E-02  0.1264062E+00
         -1   -1    0    0    0  501 -0.00000000000E+00  0.00000000000E+00  0.30350583099E+03  0.30350583099E+03  0.00000000000E+00 0.  1.
          1   -1    0    0  501    0  0.00000000000E+00 -0.00000000000E+00 -0.53534406570E+02  0.53534406570E+02  0.00000000000E+00 0. -1.
         25    2    1    2    0    0 -0.45706066382E+02  0.45989712666E+02  0.11685844488E+03  0.18304623415E+03  0.12508369007E+03 0.  0.
         23    2    1    2    0    0  0.45706066382E+02 -0.45989712666E+02  0.13311297955E+03  0.17399400342E+03  0.91382436640E+02 0.  0.
          5    1    3    3  502    0 -0.57072132263E+01  0.84293655566E+02  0.61115149882E+02  0.10435768585E+03  0.41800000000E+01 0.  1.
         -5    1    3    3    0  502 -0.39998853156E+02 -0.38303942900E+02  0.55743294996E+02  0.78688548293E+02  0.41800000000E+01 0.  1.
        -11    1    4    4    0    0  0.35113819859E+02 -0.70856880264E+01  0.96806228684E+00  0.35834682425E+02  0.00000000000E+00 0.  1.
         11    1    4    4    0    0  0.10592246523E+02 -0.38904024640E+02  0.13214491726E+03  0.13815932099E+03  0.00000000000E+00 0. -1.
</event>
<event>
 8    1  0.6901948E-009  0.1250153E+03  0.7561462E-02  0.1235045E+00
         -1   -1    0    0    0  501 -0.00000000000E+00  0.00000000000E+00  0.39071568342E+02  0.39071568342E+02  0.00000000000E+00 0.  1.
          1   -1    0    0  501    0  0.00000000000E+00 -0.00000000000E+00 -0.54607919243E+03  0.54607919243E+03  0.00000000000E+00 0. -1.
         25    2    1    2    0    0 -0.27188674752E+02 -0.85385034867E+02 -0.19842944042E+03  0.25109968724E+03  0.12508789667E+03 0.  0.
         23    2    1    2    0    0  0.27188674752E+02  0.85385034867E+02 -0.30857818366E+03  0.33405107352E+03  0.91322483966E+02 0.  0.
          5    1    3    3  502    0 -0.61707648465E+02 -0.21497868864E+02 -0.39893855167E+02  0.76674535048E+02  0.41800000000E+01 0. -1.
         -5    1    3    3    0  502  0.34518973712E+02 -0.63887166004E+02 -0.15853558526E+03  0.17442515220E+03  0.41800000000E+01 0. -1.
        -11    1    4    4    0    0  0.44459612263E+02  0.29584700897E+02 -0.67892753567E+02  0.86379034705E+02  0.00000000000E+00 0.  1.
         11    1    4    4    0    0 -0.17270937510E+02  0.55800333970E+02 -0.24068543009E+03  0.24767203882E+03  0.00000000000E+00 0. -1.
</event>
<event>
 8    1  0.6901948E-009  0.9710102E+02  0.7561462E-02  0.1286513E+00
          2   -1    0    0  501    0  0.00000000000E+00  0.00000000000E+00  0.67001615873E+02  0.67001615873E+02  0.00000000000E+00 0. -1.
         -2   -1    0    0    0  501 -0.00000000000E+00 -0.00000000000E+00 -0.21535644207E+03  0.21535644207E+03  0.00000000000E+00 0.  1.
         25    2    1    2    0    0  0.22069544912E+02 -0.16979402084E+02 -0.13339374299E+03  0.18497788306E+03  0.12509021403E+03 0.  0.
         23    2    1    2    0    0 -0.22069544912E+02  0.16979402084E+02 -0.14961083202E+02  0.97380174875E+02  0.92107000496E+02 0.  0.
          5    1    3    3  502    0 -0.22834471551E+02  0.31995571126E+02 -0.43450552972E+01  0.39767845908E+02  0.41800000000E+01 0. -1.
         -5    1    3    3    0  502  0.44904016463E+02 -0.48974973209E+02 -0.12904868769E+03  0.14521003716E+03  0.41800000000E+01 0. -1.
        -11    1    4    4    0    0  0.21981967057E+02 -0.20650478931E+02 -0.24255454109E+02  0.38703697624E+02  0.00000000000E+00 0.  1.
         11    1    4    4    0    0 -0.44051511969E+02  0.37629881015E+02  0.92943709070E+01  0.58676477251E+02  0.00000000000E+00 0. -1.
</event>
<event>
 8    1  0.6901948E-009  0.1511140E+03  0.7561462E-02  0.1199111E+00
          1   -1    0    0  501    0  0.00000000000E+00  0.00000000000E+00  0.88090536656E+03  0.88090536656E+03  0.00000000000E+00 0. -1.
         -1   -1    0    0    0  501 -0.00000000000E+00 -0.00000000000E+00 -0.35747231304E+02  0.35747231304E+02  0.00000000000E+00 0.  1.
         25    2    1    2    0    0 -0.46110332918E+02 -0.98240444264E+02  0.67503612630E+03  0.69505275772E+03  0.12508883449E+03 0.  0.
         23    2    1    2    0    0  0.46110332918E+02  0.98240444264E+02  0.17012200896E+03  0.22159984014E+03  0.91584079018E+02 0.  0.
          5    1    3    3  502    0  0.30498024597E+02 -0.73764303016E+02  0.25040219213E+03  0.26284982810E+03  0.41800000000E+01 0. -1.
         -5    1    3    3    0  502 -0.76608357515E+02 -0.24476141248E+02  0.42463393416E+03  0.43220292962E+03  0.41800000000E+01 0. -1.
        -11    1    4    4    0    0 -0.12878598549E+02  0.78518749420E+02  0.89094749454E+02  0.11945261274E+03  0.00000000000E+00 0.  1.
         11    1    4    4    0    0  0.58988931467E+02  0.19721694844E+02  0.81027259502E+02  0.10214722740E+03  0.00000000000E+00 0. -1.
</event>
<event>
 8    1  0.6901948E-009  0.1611195E+03  0.7561462E-02  0.1187439E+00
         -1   -1    0    0    0  501 -0.00000000000E+00  0.00000000000E+00  0.42647876059E+02  0.42647876059E+02  0.00000000000E+00 0.  1.
          1   -1    0    0  501    0  0.00000000000E+00 -0.00000000000E+00 -0.68858530489E+03  0.68858530489E+03  0.00000000000E+00 0. -1.
         25    2    1    2    0    0  0.12873562354E+03  0.10215889119E+02 -0.40942699208E+03  0.44716352012E+03  0.12509007444E+03 0.  0.
         23    2    1    2    0    0 -0.12873562354E+03 -0.10215889119E+02 -0.23651043675E+03  0.28406966083E+03  0.89895274360E+02 0.  0.
          5    1    3    3  502    0  0.47465674219E+02  0.62263513146E+02 -0.23554279662E+03  0.24824910219E+03  0.41800000000E+01 0.  1.
         -5    1    3    3    0  502  0.81269949322E+02 -0.52047624027E+02 -0.17388419546E+03  0.19891441793E+03  0.41800000000E+01 0.  1.
        -11    1    4    4    0    0 -0.46773342218E+02 -0.38448910717E+02 -0.50473147536E+02  0.78826409912E+02  0.00000000000E+00 0.  1.
         11    1    4    4    0    0 -0.81962281324E+02  0.28233021597E+02 -0.18603728922E+03  0.20524325092E+03  0.00000000000E+00 0. -1.
</event>
<event>
 8    1  0.6901948E-009  0.1465732E+03  0.7561462E-02  0.1204748E+00
         -3   -1    0    0    0  501 -0.00000000000E+00  0.00000000000E+00  0.29603906609E+03  0.29603906609E+03  0.00000000000E+00 0. -1.
          3   -1    0    0  501    0  0.00000000000E+00 -0.00000000000E+00 -0.96197398685E+02  0.96197398685E+02  0.00000000000E+00 0.  1.
         25    2    1    2    0    0 -0.10056240068E+03 -0.76950015221E+02  0.13364026461E+03  0.22259097214E+03  0.12511162728E+03 0.  0.
         23    2    1    2    0    0  0.10056240068E+03  0.76950015221E+02  0.66201402794E+02  0.16964549263E+03  0.91448707838E+02 0.  0.
          5    1    3    3  502    0 -0.78943328881E+02 -0.15909703620E+02  0.13549338401E+03  0.15767402245E+03  0.41800000000E+01 0.  1.
         -5    1    3    3    0  502 -0.21619071800E+02 -0.61040311601E+02 -0.18531194012E+01  0.64916949693E+02  0.41800000000E+01 0.  1.
        -11    1    4    4    0    0  0.10838417495E+03  0.49643731074E+02  0.28730959601E+02  0.12262584334E+03  0.00000000000E+00 0.  1.
         11    1    4    4    0    0 -0.78217742702E+01  0.27306284148E+02  0.37470443193E+02  0.47019649294E+02  0.00000000000E+00 0. -1.
</event>
<event>
 8    1  0.6901948E-009  0.2236694E+03  0.7561462E-02  0.1131177E+00
         -1   -1    0    0    0  501 -0.00000000000E+00  0.00000000000E+00  0.35710058986E+03  0.35710058986E+03  0.00000000000E+00 0.  1.
          1   -1    0    0  501    0  0.00000000000E+00 -0.00000000000E+00 -0.21072605098E+03  0.21072605098E+03  0.00000000000E+00 0. -1.
         25    2    1    2    0    0 -0.13014823131E+03  0.16381187982E+03 -0.70096678924E+02  0.25364349881E+03  0.12509430846E+03 0.  0.
         23    2    1    2    0    0  0.13014823131E+03 -0.16381187982E+03  0.21647121780E+03  0.31418314204E+03  0.89879722513E+02 0.  0.
          5    1    3    3  502    0 -0.89237750736E+02  0.16810773187E+03 -0.24255019353E+02  0.19190978097E+03  0.41800000000E+01 0.  1.
         -5    1    3    3    0  502 -0.40910480576E+02 -0.42958520478E+01 -0.45841659571E+02  0.61733717837E+02  0.41800000000E+01 0.  1.
        -11    1    4    4    0    0  0.47008809402E+02 -0.10105738888E+03  0.16199415210E+03  0.19663298127E+03  0.00000000000E+00 0.  1.
         11    1    4    4    0    0  0.83139421911E+02 -0.62754490935E+02  0.54477065705E+02  0.11755016077E+03  0.00000000000E+00 0. -1.
</event>
<event>
 8    1  0.6901948E-009  0.9415398E+02  0.7561462E-02  0.1293093E+00
          4   -1    0    0  501    0  0.00000000000E+00  0.00000000000E+00  0.13238920108E+03  0.13238920108E+03  0.00000000000E+00 0. -1.
         -4   -1    0    0    0  501 -0.00000000000E+00 -0.00000000000E+00 -0.11306179028E+03  0.11306179028E+03  0.00000000000E+00 0.  1.
         25    2    1    2    0    0  0.37412830728E+02 -0.37433519670E+02  0.21209813134E+02  0.13747216238E+03  0.12509097073E+03 0.  0.
         23    2    1    2    0    0 -0.37412830728E+02  0.37433519670E+02 -0.18824023373E+01  0.10797882898E+03  0.94100455750E+02 0.  0.
          5    1    3    3  502    0  0.10831529087E+02 -0.54655499976E+02 -0.39802200498E+02  0.68601991695E+02  0.41800000000E+01 0.  1.
         -5    1    3    3    0  502  0.26581301641E+02  0.17221980306E+02  0.61012013632E+02  0.68870170684E+02  0.41800000000E+01 0.  1.
        -11    1    4    4    0    0  0.27914354675E+02  0.11923091337E+02 -0.18971775549E+02  0.35795245095E+02  0.00000000000E+00 0.  1.
         11    1    4    4    0    0 -0.65327185403E+02  0.25510428333E+02  0.17089373211E+02  0.72183583890E+02  0.00000000000E+00 0. -1.
</event>
<event>
 8    1  0.6901948E-009  0.9195267E+02  0.7561462E-02  0.1298191E+00
          3   -1    0    0  501    0  0.00000000000E+00  0.00000000000E+00  0.10436790534E+03  0.10436790534E+03  0.00000000000E+00 0. -1.
         -3   -1    0    0    0  501 -0.00000000000E+00 -0.00000000000E+00 -0.12910379007E+03  0.12910379007E+03  0.00000000000E+00 0.  1.
         25    2    1    2    0    0  0.31817242157E+02 -0.52033090604E+01 -0.44129828960E+02  0.13650795997E+03  0.12509024745E+03 0.  0.
         23    2    1    2    0    0 -0.31817242157E+02  0.52033090604E+01  0.19393944232E+02  0.96963735450E+02  0.89366826036E+02 0.  0.
          5    1    3    3  502    0  0.22502426808E+02  0.40686097213E+02 -0.69012007073E+02  0.83317748643E+02  0.41800000000E+01 0. -1.
         -5    1    3    3    0  502  0.93148153490E+01 -0.45889406273E+02  0.24882178113E+02  0.53190211325E+02  0.41800000000E+01 0. -1.
        -11    1    4    4    0    0 -0.31377608452E+02 -0.36712189850E+02  0.25484368518E+02  0.54605789386E+02  0.00000000000E+00 0. -1.
         11    1    4    4    0    0 -0.43963370543E+00  0.41915498911E+02 -0.60904242855E+01  0.42357946063E+02  0.00000000000E+00 0.  1.
</event>
<event>
 8    1  0.6901948E-009  0.6594124E+02  0.7561462E-02  0.1374465E+00
         -1   -1    0    0    0  501 -0.00000000000E+00  0.00000000000E+00  0.40074816855E+02  0.40074816855E+02  0.00000000000E+00 0.  1.
          1   -1    0    0  501    0  0.00000000000E+00 -0.00000000000E+00 -0.35199418940E+03  0.35199418940E+03  0.00000000000E+00 0. -1.
         25    2    1    2    0    0  0.20384954086E+02 -0.99201159823E+01 -0.24884410140E+03  0.27945243775E+03  0.12512522970E+03 0.  0.
         23    2    1    2    0    0 -0.20384954086E+02  0.99201159823E+01 -0.63075271146E+02  0.11261656851E+03  0.90498876336E+02 0.  0.
          5    1    3    3  502    0  0.22264132487E+02 -0.23829642632E+02 -0.25935189942E+03  0.26142766417E+03  0.41800000000E+01 0. -1.
         -5    1    3    3    0  502 -0.18791784004E+01  0.13909526649E+02  0.10507798021E+02  0.18024773572E+02  0.41800000000E+01 0. -1.
        -11    1    4    4    0    0 -0.46430012261E+02 -0.14514580659E+02 -0.59307060270E+02  0.76705583162E+02  0.00000000000E+00 0. -1.
         11    1    4    4    0    0  0.26045058175E+02  0.24434696642E+02 -0.37682108757E+01  0.35910985346E+02  0.00000000000E+00 0.  1.
</event>
<event>
 8    1  0.6901948E-009  0.9145822E+02  0.7561462E-02  0.1299358E+00
         -1   -1    0    0    0  501 -0.00000000000E+00  0.00000000000E+00  0.71958147915E+02  0.71958147915E+02  0.00000000000E+00 0.  1.
          1   -1    0    0  501    0  0.00000000000E+00 -0.00000000000E+00 -0.17826091874E+03  0.17826091874E+03  0.00000000000E+00 0. -1.
         25    2    1    2    0    0  0.28434535191E+02 -0.11102296384E+02 -0.70890934785E+02  0.14698558408E+03  0.12508978182E+03 0.  0.
         23    2    1    2    0    0 -0.28434535191E+02  0.11102296384E+02 -0.35411836042E+02  0.10323348258E+03  0.92040045724E+02 0.  0.
          5    1    3    3  502    0 -0.28555496904E+02  0.14413444793E+02  0.19013089415E+02  0.37445076624E+02  0.41800000000E+01 0.  1.
         -5    1    3    3    0  502  0.56990032096E+02 -0.25515741177E+02 -0.89904024200E+02  0.10954050745E+03  0.41800000000E+01 0.  1.
        -11    1    4    4    0    0 -0.57084589317E+02  0.15352187083E+02 -0.21825995086E+01  0.59153222451E+02  0.00000000000E+00 0.  1.
         11    1    4    4    0    0  0.28650054125E+02 -0.42498906989E+01 -0.33229236533E+02  0.44080260128E+02  0.00000000000E+00 0. -1.
</event>
<event>
 8    1  0.6901948E-009  0.1607584E+03  0.7561462E-02  0.1187843E+00
         -2   -1    0    0    0  501 -0.00000000000E+00  0.00000000000E+00  0.22600379915E+03  0.22600379915E+03  0.00000000000E+00 0.  1.
          2   -1    0    0  501    0  0.00000000000E+00 -0.00000000000E+00 -0.15866238112E+03  0.15866238112E+03  0.00000000000E+00 0. -1.
         25    2    1    2    0    0 -0.74844421913E+02  0.11621135162E+03  0.10837105539E+03  0.21565654190E+03  0.12512670652E+03 0.  0.
         23    2    1    2    0    0  0.74844421913E+02 -0.11621135162E+03 -0.41029637357E+02  0.16900963837E+03  0.88170635606E+02 0.  0.
          5    1    3    3  502    0 -0.63070766229E+02  0.13785913337E+03  0.11437272866E+03  0.18995171930E+03  0.41800000000E+01 0.  1.
         -5    1    3    3    0  502 -0.11773655684E+02 -0.21647781750E+02 -0.60016732720E+01  0.25704822601E+02  0.41800000000E+01 0.  1.
        -11    1    4    4    0    0 -0.57484469108E+01 -0.10025228433E+02 -0.33559701777E+02  0.35493709730E+02  0.00000000000E+00 0. -1.
         11    1    4    4    0    0  0.80592868824E+02 -0.10618612319E+03 -0.74699355797E+01  0.13351592864E+03  0.00000000000E+00 0.  1.
</event>
<event>
 8    1  0.6901948E-009  0.9988807E+02  0.7561462E-02  0.1280532E+00
         -1   -1    0    0    0  501 -0.00000000000E+00  0.00000000000E+00  0.93677058387E+02  0.93677058387E+02  0.00000000000E+00 0.  1.
          1   -1    0    0  501    0  0.00000000000E+00 -0.00000000000E+00 -0.15217557482E+03  0.15217557482E+03  0.00000000000E+00 0. -1.
         25    2    1    2    0    0 -0.38870093227E+02  0.18506135579E+02 -0.58707024639E+02  0.14469959537E+03  0.12505237686E+03 0.  0.
         23    2    1    2    0    0  0.38870093227E+02 -0.18506135579E+02  0.20850820729E+00  0.10115303783E+03  0.91534323538E+02 0.  0.
          5    1    3    3  502    0  0.30384377183E+02  0.14548314854E+01  0.21350252638E+02  0.37398296741E+02  0.41800000000E+01 0.  1.
         -5    1    3    3    0  502 -0.69254470409E+02  0.17051304094E+02 -0.80057277277E+02  0.10730129863E+03  0.41800000000E+01 0.  1.
        -11    1    4    4    0    0  0.47720703795E+02  0.24552978983E+02 -0.13063754342E+02  0.55233830441E+02  0.00000000000E+00 0. -1.
         11    1    4    4    0    0 -0.88506105685E+01 -0.43059114562E+02  0.13272262549E+02  0.45919207392E+02  0.00000000000E+00 0.  1.
</event>
<event>
 8    1  0.6901948E-009  0.1870866E+03  0.7561462E-02  0.1161116E+00
         -2   -1    0    0    0  501 -0.00000000000E+00  0.00000000000E+00  0.27931002362E+02  0.27931002362E+02  0.00000000000E+00 0.  1.
          2   -1    0    0  501    0  0.00000000000E+00 -0.00000000000E+00 -0.16514836969E+04  0.16514836969E+04  0.00000000000E+00 0. -1.
         25    2    1    2    0    0 -0.46078530060E+02 -0.16939890151E+03 -0.61950954130E+03  0.65594146070E+03  0.12509160378E+03 0.  0.
         23    2    1    2    0    0  0.46078530060E+02  0.16939890151E+03 -0.10040431532E+04  0.10234732385E+04  0.92604523238E+02 0.  0.
          5    1    3    3  502    0 -0.14897555192E+02 -0.52091638298E+02 -0.50732862661E+02  0.74342260424E+02  0.41800000000E+01 0.  1.
         -5    1    3    3    0  502 -0.31180974869E+02 -0.11730726321E+03 -0.56877667864E+03  0.58159920028E+03  0.41800000000E+01 0.  1.
        -11    1    4    4    0    0  0.56644631826E+02  0.41933687494E+02 -0.37252023636E+03  0.37912844124E+03  0.00000000000E+00 0. -1.
         11    1    4    4    0    0 -0.10566101766E+02  0.12746521402E+03 -0.63152291683E+03  0.64434479727E+03  0.00000000000E+00 0.  1.
</event>
<event>
 8    1  0.6901948E-009  0.1509523E+03  0.7561462E-02  0.1199308E+00
          3   -1    0    0  501    0  0.00000000000E+00  0.00000000000E+00  0.10133876797E+03  0.10133876797E+03  0.00000000000E+00 0. -1.
         -3   -1    0    0    0  501 -0.00000000000E+00 -0.00000000000E+00 -0.25610072156E+03  0.25610072156E+03  0.00000000000E+00 0.  1.
         25    2    1    2    0    0 -0.99465995459E+02 -0.42090906956E+02 -0.28829069911E+02  0.16776479150E+03  0.12509508901E+03 0.  0.
         23    2    1    2    0    0  0.99465995459E+02  0.42090906956E+02 -0.12593288367E+03  0.18967469803E+03  0.91936234327E+02 0.  0.
          5    1    3    3  502    0 -0.12387342881E+03 -0.11385880009E+02 -0.12568971714E+02  0.12509882525E+03  0.41800000000E+01 0. -1.
         -5    1    3    3    0  502  0.24407433352E+02 -0.30705026947E+02 -0.16260098197E+02  0.42665966250E+02  0.41800000000E+01 0. -1.
        -11    1    4    4    0    0  0.19712321111E+02 -0.26343772791E+02 -0.50662669841E+02  0.60409238398E+02  0.00000000000E+00 0. -1.
         11    1    4    4    0    0  0.79753674348E+02  0.68434679747E+02 -0.75270213832E+02  0.12926545963E+03  0.00000000000E+00 0.  1.
</event>
<event>
 8    1  0.6901948E-009  0.1291947E+03  0.7561462E-02  0.1228656E+00
          2   -1    0    0  501    0  0.00000000000E+00  0.00000000000E+00  0.54343330443E+02  0.54343330443E+02  0.00000000000E+00 0. -1.
         -2   -1    0    0    0  501 -0.00000000000E+00 -0.00000000000E+00 -0.66723038079E+03  0.66723038079E+03  0.00000000000E+00 0.  1.
         25    2    1    2    0    0  0.11176931816E+02 -0.91369159487E+02 -0.83747125075E+02  0.17644148640E+03  0.12507905522E+03 0.  0.
         23    2    1    2    0    0 -0.11176931816E+02  0.91369159487E+02 -0.52913992528E+03  0.54513222484E+03  0.93310422388E+02 0.  0.
          5    1    3    3  502    0  0.49800257008E+02 -0.50466835440E+02  0.50908328460E+01  0.71206432690E+02  0.41800000000E+01 0. -1.
         -5    1    3    3    0  502 -0.38623325192E+02 -0.40902324047E+02 -0.88837957921E+02  0.10523505371E+03  0.41800000000E+01 0. -1.
        -11    1    4    4    0    0 -0.44268271741E+02  0.13398237331E+02 -0.19812712312E+03  0.20345404779E+03  0.00000000000E+00 0.  1.
         11    1    4    4    0    0  0.33091339925E+02  0.77970922156E+02 -0.33101280215E+03  0.34167817704E+03  0.00000000000E+00 0. -1.
</event>
<event>
 8    1  0.6901948E-009  0.1499508E+03  0.7561462E-02  0.1200533E+00
          1   -1    0    0  501    0  0.00000000000E+00  0.00000000000E+00  0.27131429648E+02  0.27131429648E+02  0.00000000000E+00 0. -1.
         -1   -1    0    0    0  501 -0.00000000000E+00 -0.00000000000E+00 -0.98153295795E+03  0.98153295795E+03  0.00000000000E+00 0.  1.
         25    2    1    2    0    0 -0.50954657096E+02 -0.10076798705E+03 -0.64266406289E+03  0.66439127680E+03  0.12509239246E+03 0.  0.
         23    2    1    2    0    0  0.50954657096E+02  0.10076798705E+03 -0.31173746541E+03  0.34427311080E+03  0.92699316005E+02 0.  0.
          5    1    3    3  502    0  0.33583283489E+02 -0.23257754813E+02 -0.30508402617E+03  0.30783517588E+03  0.41800000000E+01 0. -1.
         -5    1    3    3    0  502 -0.84537940586E+02 -0.77510232241E+02 -0.33758003673E+03  0.35655610091E+03  0.41800000000E+01 0. -1.
        -11    1    4    4    0    0  0.15125436948E+02 -0.15946329492E+02 -0.71348774904E+02  0.74657296679E+02  0.00000000000E+00 0.  1.
         11    1    4    4    0    0  0.35829220149E+02  0.11671431655E+03 -0.24038869050E+03  0.26961581412E+03  0.00000000000E+00 0. -1.
</event>
<event>
 8    1  0.6901948E-009  0.8663809E+02  0.7561462E-02  0.1311204E+00
         -2   -1    0    0    0  501 -0.00000000000E+00  0.00000000000E+00  0.24322839492E+03  0.24322839492E+03  0.00000000000E+00 0.  1.
          2   -1    0    0  501    0  0.00000000000E+00 -0.00000000000E+00 -0.54916644864E+02  0.54916644864E+02  0.00000000000E+00 0. -1.
         25    2    1    2    0    0 -0.19228996143E+02 -0.33680938788E+02  0.88616349597E+02  0.15812894426E+03  0.12509094958E+03 0.  0.
         23    2    1    2    0    0  0.19228996143E+02  0.33680938788E+02  0.99695400454E+02  0.14001609552E+03  0.90339217415E+02 0.  0.
          5    1    3    3  502    0 -0.19841417220E+02  0.23702371408E+02  0.95232962770E+02  0.10021114631E+03  0.41800000000E+01 0. -1.
         -5    1    3    3    0  502  0.61242107740E+00 -0.57383310196E+02 -0.66166131736E+01  0.57917797943E+02  0.41800000000E+01 0. -1.
        -11    1    4    4    0    0 -0.24510153784E+02  0.32608627649E+02  0.12844806131E+02  0.42767502618E+02  0.00000000000E+00 0.  1.
         11    1    4    4    0    0  0.43739149927E+02  0.10723111398E+01  0.86850594323E+02  0.97248592904E+02  0.00000000000E+00 0. -1.
</event>
<event>
 8    1  0.6901948E-009  0.1702589E+03  0.7561462E-02  0.1177578E+00
          1   -1    0    0  501    0  0.00000000000E+00  0.00000000000E+00  0.36434519387E+03  0.36434519387E+03  0.00000000000E+00 0. -1.
         -1   -1    0    0    0  501 -0.00000000000E+00 -0.00000000000E+00 -0.10167249978E+03  0.10167249978E+03  0.00000000000E+00 0.  1.
         25    2    1    2    0    0 -0.15143064830E+03 -0.42168750510E+02  0.11272430960E+03  0.23035560541E+03  0.12508992847E+03 0.  0.
         23    2    1    2    0    0  0.15143064830E+03  0.42168750510E+02  0.14994838449E+03  0.23566208823E+03  0.91338146777E+02 0.  0.
          5    1    3    3  502    0 -0.13828127977E+03 -0.67894034519E+02  0.12525391123E+03  0.19858833535E+03  0.41800000000E+01 0.  1.
         -5    1    3    3    0  502 -0.13149368525E+02  0.25725284010E+02 -0.12529601630E+02  0.31767270059E+02  0.41800000000E+01 0.  1.
        -11    1    4    4    0    0  0.63062392664E+02  0.19053994649E+02  0.73078604020E+01  0.66282161282E+02  0.00000000000E+00 0.  1.
         11    1    4    4    0    0  0.88368255631E+02  0.23114755861E+02  0.14264052409E+03  0.16937992695E+03  0.00000000000E+00 0. -1.
</event>
<event>
 8    1  0.6901948E-009  0.1945884E+03  0.7561462E-02  0.1154387E+00
          2   -1    0    0  501    0  0.00000000000E+00  0.00000000000E+00  0.30512987473E+03  0.30512987473E+03  0.00000000000E+00 0.  1.
         -2   -1    0    0    0  501 -0.00000000000E+00 -0.00000000000E+00 -0.20811070834E+03  0.20811070834E+03  0.00000000000E+00 0. -1.
         25    2    1    2    0    0 -0.12526789081E+03  0.12089323151E+03 -0.98125705752E+02  0.23576090089E+03  0.12508928957E+03 0.  0.
         23    2    1    2    0    0  0.12526789081E+03 -0.12089323151E+03  0.19514487214E+03  0.27747968218E+03  0.92769795790E+02 0.  0.
          5    1    3    3  502    0  0.59505398919E+01 -0.61204835739E+01  0.17257493272E+02  0.19701845553E+02  0.41800000000E+01 0.  1.
         -5    1    3    3    0  502 -0.13121843070E+03  0.12701371508E+03 -0.11538319902E+03  0.21605905533E+03  0.41800000000E+01 0.  1.
        -11    1    4    4    0    0  0.50833491494E+02  0.46560957533E+01  0.44414320497E+02  0.67663542254E+02  0.00000000000E+00 0. -1.
         11    1    4    4    0    0  0.74434399316E+02 -0.12554932726E+03  0.15073055164E+03  0.20981613993E+03  0.00000000000E+00 0.  1.
</event>
<event>
 8    1  0.6901948E-009  0.2850912E+03  0.7561462E-02  0.1092940E+00
         -1   -1    0    0    0  501 -0.00000000000E+00  0.00000000000E+00  0.81107183132E+02  0.81107183132E+02  0.00000000000E+00 0.  1.
          1   -1    0    0  501    0  0.00000000000E+00 -0.00000000000E+00 -0.10614695083E+04  0.10614695083E+04  0.00000000000E+00 0. -1.
         25    2    1    2    0    0 -0.24254711440E+02  0.26153497781E+03 -0.63395805744E+03  0.69752324468E+03  0.12508805951E+03 0.  0.
         23    2    1    2    0    0  0.24254711440E+02 -0.26153497781E+03 -0.34640426774E+03  0.44505344677E+03  0.95330048376E+02 0.  0.
          5    1    3    3  502    0 -0.74975245781E+02  0.13449478299E+03 -0.34068821024E+03  0.37389311725E+03  0.41800000000E+01 0.  1.
         -5    1    3    3    0  502  0.50720534341E+02  0.12704019482E+03 -0.29326984720E+03  0.32363012743E+03  0.41800000000E+01 0.  1.
        -11    1    4    4    0    0  0.60880077332E+02 -0.14951564365E+03 -0.20696003162E+03  0.26247622026E+03  0.00000000000E+00 0. -1.
         11    1    4    4    0    0 -0.36625365892E+02 -0.11201933416E+03 -0.13944423612E+03  0.18257722651E+03  0.00000000000E+00 0.  1.
</event>
<event>
 8    1  0.6901948E-009  0.1106520E+03  0.7561462E-02  0.1259367E+00
         -2   -1    0    0    0  501 -0.00000000000E+00  0.00000000000E+00  0.36492256613E+02  0.36492256613E+02  0.00000000000E+00 0.  1.
          2   -1    0    0  501    0  0.00000000000E+00 -0.00000000000E+00 -0.49578647282E+03  0.49578647282E+03  0.00000000000E+00 0. -1.
         25    2    1    2    0    0 -0.17897725232E+02  0.58815382203E+02 -0.35597464878E+03  0.38228951599E+03  0.12509094976E+03 0.  0.
         23    2    1    2    0    0  0.17897725232E+02 -0.58815382203E+02 -0.10331956743E+03  0.14998921344E+03  0.89678611625E+02 0.  0.
          5    1    3    3  502    0  0.34130037516E+02  0.75347261808E+02 -0.18330462846E+03  0.20114703214E+03  0.41800000000E+01 0.  1.
         -5    1    3    3    0  502 -0.52027762748E+02 -0.16531879605E+02 -0.17267002031E+03  0.18114248385E+03  0.41800000000E+01 0.  1.
        -11    1    4    4    0    0 -0.18764950497E+02 -0.35864039062E+02 -0.98469504006E+02  0.10646405912E+03  0.00000000000E+00 0. -1.
         11    1    4    4    0    0  0.36662675729E+02 -0.22951343141E+02 -0.48500634229E+01  0.43525154322E+02  0.00000000000E+00 0.  1.
</event>
<event>
 8    1  0.6901948E-009  0.1889331E+03  0.7561462E-02  0.1159427E+00
         -2   -1    0    0    0  501 -0.00000000000E+00  0.00000000000E+00  0.25298729482E+03  0.25298729482E+03  0.00000000000E+00 0.  1.
          2   -1    0    0  501    0  0.00000000000E+00 -0.00000000000E+00 -0.19848181529E+03  0.19848181529E+03  0.00000000000E+00 0. -1.
         25    2    1    2    0    0 -0.17286905702E+03 -0.33391293896E+02  0.11434985717E+03  0.24438229007E+03  0.12509246375E+03 0.  0.
         23    2    1    2    0    0  0.17286905702E+03  0.33391293896E+02 -0.59844377640E+02  0.20708682004E+03  0.91131290546E+02 0.  0.
          5    1    3    3  502    0 -0.12873121936E+03 -0.65000306278E+02  0.35526700588E+02  0.14858124212E+03  0.41800000000E+01 0. -1.
         -5    1    3    3    0  502 -0.44137837652E+02  0.31609012381E+02  0.78823156579E+02  0.95801047955E+02  0.41800000000E+01 0. -1.
        -11    1    4    4    0    0  0.69768180150E+02 -0.29404480247E+01 -0.67998356891E+02  0.97468054951E+02  0.00000000000E+00 0. -1.
         11    1    4    4    0    0  0.10310087687E+03  0.36331741921E+02  0.81539792506E+01  0.10961876509E+03  0.00000000000E+00 0.  1.
</event>
<event>
 8    1  0.6901948E-009  0.1090768E+03  0.7561462E-02  0.1262289E+00
          2   -1    0    0  501    0  0.00000000000E+00  0.00000000000E+00  0.27023815801E+03  0.27023815801E+03  0.00000000000E+00 0. -1.
         -2   -1    0    0    0  501 -0.00000000000E+00 -0.00000000000E+00 -0.59385424328E+02  0.59385424328E+02  0.00000000000E+00 0.  1.
         25    2    1    2    0    0  0.59896854003E+02 -0.16986480749E+02  0.91128562670E+02  0.16681752939E+03  0.12508996574E+03 0.  0.
         23    2    1    2    0    0 -0.59896854003E+02  0.16986480749E+02  0.11972417101E+03  0.16280605295E+03  0.91081063374E+02 0.  0.
          5    1    3    3  502    0 -0.20133966165E+02  0.21071928042E+02  0.69532249502E+02  0.75508998574E+02  0.41800000000E+01 0. -1.
         -5    1    3    3    0  502  0.80030820169E+02 -0.38058408791E+02  0.21596313168E+02  0.91308530812E+02  0.41800000000E+01 0. -1.
        -11    1    4    4    0    0  0.12252819863E+02 -0.16417581707E+02  0.17759690851E+01  0.20562651820E+02  0.00000000000E+00 0.  1.
         11    1    4    4    0    0 -0.72149673866E+02  0.33404062455E+02  0.11794820193E+03  0.14224340113E+03  0.00000000000E+00 0. -1.
</event>
<event>
 8    1  0.6901948E-009  0.1187962E+03  0.7561462E-02  0.1245096E+00
          2   -1    0    0  501    0  0.00000000000E+00  0.00000000000E+00  0.53588119196E+03  0.53588119196E+03  0.00000000000E+00 0.  1.
         -2   -1    0    0    0  501 -0.00000000000E+00 -0.00000000000E+00 -0.17865992899E+03  0.17865992899E+03  0.00000000000E+00 0. -1.
         25    2    1    2    0    0  0.22846734329E+02  0.93052319831E+02  0.49619845865E+03  0.52061731614E+03  0.12509505187E+03 0.  0.
         23    2    1    2    0    0 -0.22846734329E+02 -0.93052319831E+02 -0.13897719567E+03  0.19392380482E+03  0.95451944257E+02 0.  0.
          5    1    3    3  502    0 -0.34430478979E+02  0.25615978668E+02  0.32513579753E+03  0.32798230971E+03  0.41800000000E+01 0. -1.
         -5    1    3    3    0  502  0.57277213308E+02  0.67436341163E+02  0.17106266112E+03  0.19263500643E+03  0.41800000000E+01 0. -1.
        -11    1    4    4    0    0 -0.36554120904E+02 -0.62353283833E+02 -0.27244384464E+02  0.77242425160E+02  0.00000000000E+00 0.  1.
         11    1    4    4    0    0  0.13707386575E+02 -0.30699035998E+02 -0.11173281121E+03  0.11668137966E+03  0.00000000000E+00 0. -1.
</event>
<event>
 8    1  0.6901948E-009  0.1046351E+03  0.7561462E-02  0.1270840E+00
          2   -1    0    0  501    0  0.00000000000E+00  0.00000000000E+00  0.92310059334E+03  0.92310059334E+03  0.00000000000E+00 0. -1.
         -2   -1    0    0    0  501 -0.00000000000E+00 -0.00000000000E+00 -0.15569600226E+02  0.15569600226E+02  0.00000000000E+00 0.  1.
         25    2    1    2    0    0  0.34732721473E+02  0.35286801109E+02  0.58065582158E+03  0.59603636133E+03  0.12508653254E+03 0.  0.
         23    2    1    2    0    0 -0.34732721473E+02 -0.35286801109E+02  0.32687517154E+03  0.34263383224E+03  0.89994694021E+02 0.  0.
          5    1    3    3  502    0  0.22056522963E+02  0.72136117571E+02  0.20745118365E+03  0.22077947292E+03  0.41800000000E+01 0.  1.
         -5    1    3    3    0  502  0.12676198510E+02 -0.36849316462E+02  0.37320463793E+03  0.37525688841E+03  0.41800000000E+01 0.  1.
        -11    1    4    4    0    0 -0.16994546604E+02  0.25814002582E+02  0.17905852383E+03  0.18170617023E+03  0.00000000000E+00 0. -1.
         11    1    4    4    0    0 -0.17738174870E+02 -0.61100803691E+02  0.14781664771E+03  0.16092766201E+03  0.00000000000E+00 0.  1.
</event>
<event>
 8    1  0.6901948E-009  0.1942068E+03  0.7561462E-02  0.1154721E+00
          2   -1    0    0  501    0  0.00000000000E+00  0.00000000000E+00  0.39446500082E+03  0.39446500082E+03  0.00000000000E+00 0. -1.
         -2   -1    0    0    0  501 -0.00000000000E+00 -0.00000000000E+00 -0.13620957438E+03  0.13620957438E+03  0.00000000000E+00 0.  1.
         25    2    1    2    0    0 -0.18863630206E+03 -0.45469427520E+02  0.20535552939E+03  0.30898352129E+03  0.12509516251E+03 0.  0.
         23    2    1    2    0    0  0.18863630206E+03  0.45469427520E+02  0.52899897057E+02  0.22169105392E+03  0.93259857296E+02 0.  0.
          5    1    3    3  502    0 -0.14299533514E+03 -0.32008678466E+02  0.21503060900E+03  0.26024576188E+03  0.41800000000E+01 0.  1.
         -5    1    3    3    0  502 -0.45640966921E+02 -0.13460749054E+02 -0.96750796152E+01  0.48737759408E+02  0.41800000000E+01 0.  1.
        -11    1    4    4    0    0  0.11573317854E+03  0.26760555817E+02  0.78281255328E+02  0.14226120659E+03  0.00000000000E+00 0. -1.
         11    1    4    4    0    0  0.72903123519E+02  0.18708871704E+02 -0.25381358271E+02  0.79429847331E+02  0.00000000000E+00 0.  1.
</event>
<event>
 8    1  0.6901948E-009  0.1158909E+03  0.7561462E-02  0.1250034E+00
         -4   -1    0    0    0  501 -0.00000000000E+00  0.00000000000E+00  0.58326723695E+02  0.58326723695E+02  0.00000000000E+00 0.  1.
          4   -1    0    0  501    0  0.00000000000E+00 -0.00000000000E+00 -0.41242431746E+03  0.41242431746E+03  0.00000000000E+00 0. -1.
         25    2    1    2    0    0 -0.92281756296E+02  0.28718254385E+02 -0.10642030364E+03  0.19056168799E+03  0.12509122760E+03 0.  0.
         23    2    1    2    0    0  0.92281756296E+02 -0.28718254385E+02 -0.24767729013E+03  0.28018935317E+03  0.88438526120E+02 0.  0.
          5    1    3    3  502    0 -0.92909436462E+02  0.29484226052E+02 -0.14612375773E+02  0.98653316697E+02  0.41800000000E+01 0.  1.
         -5    1    3    3    0  502  0.62768016510E+00 -0.76597166763E+00 -0.91807927867E+02  0.91908371295E+02  0.41800000000E+01 0.  1.
        -11    1    4    4    0    0  0.29185422581E+02  0.31330079886E+02 -0.65402781673E+02  0.78172160310E+02  0.00000000000E+00 0.  1.
         11    1    4    4    0    0  0.63096333716E+02 -0.60048334271E+02 -0.18227450845E+03  0.20201719286E+03  0.00000000000E+00 0. -1.
</event>
<event>
 8    1  0.6901948E-009  0.1066349E+03  0.7561462E-02  0.1266932E+00
         -1   -1    0    0    0  501 -0.00000000000E+00  0.00000000000E+00  0.10247552068E+03  0.10247552068E+03  0.00000000000E+00 0.  1.
          1   -1    0    0  501    0  0.00000000000E+00 -0.00000000000E+00 -0.19154048356E+03  0.19154048356E+03  0.00000000000E+00 0. -1.
         25    2    1    2    0    0 -0.57955495936E+02 -0.15506870039E+02  0.11217758416E+02  0.13918752698E+03  0.12509207423E+03 0.  0.
         23    2    1    2    0    0  0.57955495936E+02  0.15506870039E+02 -0.10028272130E+03  0.15482847725E+03  0.10156737000E+03 0.  0.
          5    1    3    3  502    0  0.43081535267E+01 -0.58593457376E+02  0.21413548447E+02  0.62671890757E+02  0.41800000000E+01 0.  1.
         -5    1    3    3    0  502 -0.62263649463E+02  0.43086587336E+02 -0.10195790030E+02  0.76515636226E+02  0.41800000000E+01 0.  1.
        -11    1    4    4    0    0  0.42624874056E+02 -0.14348286351E+02  0.41206773265E+01  0.45163405442E+02  0.00000000000E+00 0.  1.
         11    1    4    4    0    0  0.15330621880E+02  0.29855156390E+02 -0.10440339862E+03  0.10966507181E+03  0.00000000000E+00 0. -1.
</event>
<event>
 8    1  0.6901948E-009  0.1991970E+03  0.7561462E-02  0.1150418E+00
         -1   -1    0    0    0  501 -0.00000000000E+00  0.00000000000E+00  0.24932117675E+03  0.24932117675E+03  0.00000000000E+00 0.  1.
          1   -1    0    0  501    0  0.00000000000E+00 -0.00000000000E+00 -0.18013395409E+03  0.18013395409E+03  0.00000000000E+00 0. -1.
         25    2    1    2    0    0  0.11461207206E+03 -0.13327980283E+03 -0.11060298865E+02  0.21603036642E+03  0.12508939244E+03 0.  0.
         23    2    1    2    0    0 -0.11461207206E+03  0.13327980283E+03  0.80247521521E+02  0.21342476442E+03  0.90614747427E+02 0.  0.
          5    1    3    3  502    0  0.12954922732E+03 -0.84031822564E+02 -0.36117031635E+02  0.15863877797E+03  0.41800000000E+01 0.  1.
         -5    1    3    3    0  502 -0.14937155257E+02 -0.49247980266E+02  0.25056732770E+02  0.57391588448E+02  0.41800000000E+01 0.  1.
        -11    1    4    4    0    0 -0.53800087983E+02  0.11784995199E+03  0.76773674538E+02  0.15058970002E+03  0.00000000000E+00 0.  1.
         11    1    4    4    0    0 -0.60811984078E+02  0.15429850841E+02  0.34738469827E+01  0.62835064394E+02  0.00000000000E+00 0. -1.
</event>
<event>
 8    1  0.6901948E-009  0.1117972E+03  0.7561462E-02  0.1257277E+00
         -1   -1    0    0    0  501 -0.00000000000E+00  0.00000000000E+00  0.95762524305E+02  0.95762524305E+02  0.00000000000E+00 0.  1.
          1   -1    0    0  501    0  0.00000000000E+00 -0.00000000000E+00 -0.19518788520E+03  0.19518788520E+03  0.00000000000E+00 0. -1.
         25    2    1    2    0    0  0.16087486617E+02  0.78212443457E+02 -0.77146026026E+02  0.16727896883E+03  0.12511894558E+03 0.  0.
         23    2    1    2    0    0 -0.16087486617E+02 -0.78212443457E+02 -0.22279334874E+02  0.12367144068E+03  0.91772887833E+02 0.  0.
          5    1    3    3  502    0 -0.23493739599E+02  0.90360406763E+02 -0.18343921126E+02  0.95241434014E+02  0.41800000000E+01 0.  1.
         -5    1    3    3    0  502  0.39581226216E+02 -0.12147963307E+02 -0.58802104899E+02  0.72037534813E+02  0.41800000000E+01 0.  1.
        -11    1    4    4    0    0 -0.28562022657E+02 -0.59947005257E+02 -0.53593771493E+02  0.85333023622E+02  0.00000000000E+00 0. -1.
         11    1    4    4    0    0  0.12474536040E+02 -0.18265438199E+02  0.31314436619E+02  0.38338417062E+02  0.00000000000E+00 0.  1.
</event>
<event>
 8    1  0.6901948E-009  0.9541420E+02  0.7561462E-02  0.1290246E+00
         -1   -1    0    0    0  501 -0.00000000000E+00  0.00000000000E+00  0.16966875540E+03  0.16966875540E+03  0.00000000000E+00 0.  1.
          1   -1    0    0  501    0  0.00000000000E+00 -0.00000000000E+00 -0.92730773642E+02  0.92730773642E+02  0.00000000000E+00 0. -1.
         25    2    1    2    0    0 -0.39961903332E+01 -0.12585175877E+02  0.97899716864E+02  0.15938858913E+03  0.12508401814E+03 0.  0.
         23    2    1    2    0    0  0.39961903332E+01  0.12585175877E+02 -0.20961735111E+02  0.10301093990E+03  0.99987515281E+02 0.  0.
          5    1    3    3  502    0  0.34949515183E+02  0.31816150962E+02  0.87125524703E+02  0.99207184863E+02  0.41800000000E+01 0. -1.
         -5    1    3    3    0  502 -0.38945705516E+02 -0.44401326840E+02  0.10774192161E+02  0.60181404271E+02  0.41800000000E+01 0. -1.
        -11    1    4    4    0    0 -0.37160758159E+02  0.20231505641E+02  0.17853282280E+02  0.45923582783E+02  0.00000000000E+00 0.  1.
         11    1    4    4    0    0  0.41156948492E+02 -0.76463297643E+01 -0.38815017390E+02  0.57087357121E+02  0.00000000000E+00 0. -1.
</event>
<event>
 8    1  0.6901948E-009  0.1740424E+03  0.7561462E-02  0.1173697E+00
         -1   -1    0    0    0  501 -0.00000000000E+00  0.00000000000E+00  0.50502695549E+02  0.50502695549E+02  0.00000000000E+00 0.  1.
          1   -1    0    0  501    0  0.00000000000E+00 -0.00000000000E+00 -0.67898607467E+03  0.67898607467E+03  0.00000000000E+00 0. -1.
         25    2    1    2    0    0 -0.11119768727E+03  0.69727894921E+02 -0.20979815323E+03  0.27729257957E+03  0.12509598155E+03 0.  0.
         23    2    1    2    0    0  0.11119768727E+03 -0.69727894921E+02 -0.41868522589E+03  0.45219619065E+03  0.10934885220E+03 0.  0.
          5    1    3    3  502    0 -0.20791741666E+01 -0.31240643926E+02 -0.26378546624E+02  0.41153382852E+02  0.41800000000E+01 0.  1.
         -5    1    3    3    0  502 -0.10911851310E+03  0.10096853885E+03 -0.18341960661E+03  0.23613919672E+03  0.41800000000E+01 0.  1.
        -11    1    4    4    0    0  0.36004234390E+02  0.27181642826E+02 -0.78052428968E+02  0.90151695871E+02  0.00000000000E+00 0. -1.
         11    1    4    4    0    0  0.75193452876E+02 -0.96909537747E+02 -0.34063279692E+03  0.36204449478E+03  0.00000000000E+00 0.  1.
</event>
<event>
 8    1  0.6901948E-009  0.1056280E+03  0.7561462E-02  0.1268887E+00
         -2   -1    0    0    0  501 -0.00000000000E+00  0.00000000000E+00  0.95380059996E+02  0.95380059996E+02  0.00000000000E+00 0.  1.
          2   -1    0    0  501    0  0.00000000000E+00 -0.00000000000E+00 -0.17202838339E+03  0.17202838339E+03  0.00000000000E+00 0. -1.
         25    2    1    2    0    0 -0.18620038064E+02  0.63871542760E+02 -0.28047703846E+02  0.14442380271E+03  0.12508109891E+03 0.  0.
         23    2    1    2    0    0  0.18620038064E+02 -0.63871542760E+02 -0.48600619545E+02  0.12298464068E+03  0.91306745809E+02 0.  0.
          5    1    3    3  502    0 -0.12644644002E+02 -0.22309063227E+02  0.30436176513E+02  0.40017678153E+02  0.41800000000E+01 0. -1.
         -5    1    3    3    0  502 -0.59753940618E+01  0.86180605987E+02 -0.58483880359E+02  0.10440612455E+03  0.41800000000E+01 0. -1.
        -11    1    4    4    0    0 -0.26895479863E+02 -0.37609960184E+02  0.66757688548E+01  0.46716611948E+02  0.00000000000E+00 0.  1.
         11    1    4    4    0    0  0.45515517928E+02 -0.26261582576E+02 -0.55276388400E+02  0.76268028729E+02  0.00000000000E+00 0. -1.
</event>
<event>
 8    1  0.6901948E-009  0.1246163E+03  0.7561462E-02  0.1235670E+00
          2   -1    0    0  501    0  0.00000000000E+00  0.00000000000E+00  0.23868324803E+04  0.23868324803E+04  0.00000000000E+00 0. -1.
         -2   -1    0    0    0  501 -0.00000000000E+00 -0.00000000000E+00 -0.11420420305E+02  0.11420420305E+02  0.00000000000E+00 0.  1.
         25    2    1    2    0    0 -0.58956106529E+02 -0.85848026200E+02  0.17382459002E+04  0.17458507402E+04  0.12510112455E+03 0.  0.
         23    2    1    2    0    0  0.58956106529E+02  0.85848026200E+02  0.63716615976E+03  0.65240216038E+03  0.93819814665E+02 0.  0.
          5    1    3    3  502    0 -0.20622339226E+02 -0.86044114075E+01  0.12380651350E+04  0.12382738258E+04  0.41800000000E+01 0. -1.
         -5    1    3    3    0  502 -0.38333767303E+02 -0.77243614792E+02  0.50018076522E+03  0.50757691441E+03  0.41800000000E+01 0. -1.
        -11    1    4    4    0    0 -0.12591241570E+02  0.64188394039E+02  0.30013564656E+03  0.30718088422E+03  0.00000000000E+00 0.  1.
         11    1    4    4    0    0  0.71547348099E+02  0.21659632161E+02  0.33703051320E+03  0.34522127616E+03  0.00000000000E+00 0. -1.
</event>
<event>
 8    1  0.6901948E-009  0.9739723E+02  0.7561462E-02  0.1285866E+00
          4   -1    0    0  501    0  0.00000000000E+00  0.00000000000E+00  0.15813299920E+03  0.15813299920E+03  0.00000000000E+00 0. -1.
         -4   -1    0    0    0  501 -0.00000000000E+00 -0.00000000000E+00 -0.15432575690E+03  0.15432575690E+03  0.00000000000E+00 0.  1.
         25    2    1    2    0    0  0.18891937563E+02 -0.23536828110E+02 -0.10471987571E+03  0.16590553119E+03  0.12508998892E+03 0.  0.
         23    2    1    2    0    0 -0.18891937563E+02  0.23536828110E+02  0.10852711801E+03  0.14655322492E+03  0.93748732307E+02 0.  0.
          5    1    3    3  502    0 -0.38298733171E+02  0.20692967564E+02 -0.76628085882E+02  0.88228837774E+02  0.41800000000E+01 0. -1.
         -5    1    3    3    0  502  0.57190670734E+02 -0.44229795674E+02 -0.28091789823E+02  0.77676693415E+02  0.41800000000E+01 0. -1.
        -11    1    4    4    0    0  0.15422868664E+02 -0.18690230117E+02 -0.10026968432E+01  0.24252731405E+02  0.00000000000E+00 0.  1.
         11    1    4    4    0    0 -0.34314806226E+02  0.42227058227E+02  0.10952981485E+03  0.12230049351E+03  0.00000000000E+00 0. -1.
</event>
<event>
 8    1  0.6901948E-009  0.1309173E+03  0.7561462E-02  0.1226101E+00
          1   -1    0    0  501    0  0.00000000000E+00  0.00000000000E+00  0.47810167604E+02  0.47810167604E+02  0.00000000000E+00 0. -1.
         -1   -1    0    0    0  501 -0.00000000000E+00 -0.00000000000E+00 -0.37328161497E+03  0.37328161497E+03  0.00000000000E+00 0.  1.
         25    2    1    2    0    0 -0.45008872295E+02 -0.60277209559E+02 -0.20813497143E+03  0.25422040399E+03  0.12509479165E+03 0.  0.
         23    2    1    2    0    0  0.45008872295E+02  0.60277209559E+02 -0.11733647594E+03  0.16687137859E+03  0.91755478457E+02 0.  0.
          5    1    3    3  502    0 -0.17931176822E+01 -0.90873179148E+02 -0.15030948307E+03  0.17570305365E+03  0.41800000000E+01 0.  1.
         -5    1    3    3    0  502 -0.43215754613E+02  0.30595969589E+02 -0.57825488356E+02  0.78517350346E+02  0.41800000000E+01 0.  1.
        -11    1    4    4    0    0  0.72343727134E+02  0.34454286382E+02 -0.89207752772E+02  0.11991136669E+03  0.00000000000E+00 0.  1.
         11    1    4    4    0    0 -0.27334854838E+02  0.25822923177E+02 -0.28128723170E+02  0.46960011900E+02  0.00000000000E+00 0. -1.
</event>
<event>
 8    1  0.6901948E-009  0.1719407E+03  0.7561462E-02  0.1175839E+00
          1   -1    0    0  501    0  0.00000000000E+00  0.00000000000E+00  0.18036409647E+04  0.18036409647E+04  0.00000000000E+00 0. -1.
         -1   -1    0    0    0  501 -0.00000000000E+00 -0.00000000000E+00 -0.24315073308E+02  0.24315073308E+02  0.00000000000E+00 0.  1.
         25    2    1    2    0    0  0.15345019138E+03 -0.33799053208E+02  0.13095141540E+04  0.13248261620E+04  0.12509077806E+03 0.  0.
         23    2    1    2    0    0 -0.15345019138E+03  0.33799053208E+02  0.46981173741E+03  0.50312987603E+03  0.87904870809E+02 0.  0.
          5    1    3    3  502    0  0.63794882004E+02 -0.38896490397E+02  0.23660584539E+03  0.24815826081E+03  0.41800000000E+01 0.  1.
         -5    1    3    3    0  502  0.89655309377E+02  0.50974371894E+01  0.10729083086E+04  0.10766679012E+04  0.41800000000E+01 0.  1.
        -11    1    4    4    0    0  0.54025595406E+01  0.18834040069E+02  0.37434794638E+02  0.42252485897E+02  0.00000000000E+00 0.  1.
         11    1    4    4    0    0 -0.15885275092E+03  0.14965013139E+02  0.43237694277E+03  0.46087739013E+03  0.00000000000E+00 0. -1.
</event>
<event>
 8    1  0.6901948E-009  0.9330185E+02  0.7561462E-02  0.1295047E+00
         -2   -1    0    0    0  501 -0.00000000000E+00  0.00000000000E+00  0.41136417659E+03  0.41136417659E+03  0.00000000000E+00 0.  1.
          2   -1    0    0  501    0  0.00000000000E+00 -0.00000000000E+00 -0.31162142943E+02  0.31162142943E+02  0.00000000000E+00 0. -1.
         25    2    1    2    0    0  0.51303842274E+01 -0.32037909206E+02  0.19562831254E+03  0.23445863213E+03  0.12509062733E+03 0.  0.
         23    2    1    2    0    0 -0.51303842274E+01  0.32037909206E+02  0.18457372110E+03  0.20806768740E+03  0.90398869178E+02 0.  0.
          5    1    3    3  502    0 -0.14984786954E+02 -0.64446896220E+02  0.18206398171E+03  0.19375941811E+03  0.41800000000E+01 0. -1.
         -5    1    3    3    0  502  0.20115171181E+02  0.32408987013E+02  0.13564330835E+02  0.40699214020E+02  0.41800000000E+01 0. -1.
        -11    1    4    4    0    0  0.34893661490E+02  0.19598498414E+02  0.14501014674E+03  0.15043141763E+03  0.00000000000E+00 0.  1.
         11    1    4    4    0    0 -0.40024045718E+02  0.12439410792E+02  0.39563574362E+02  0.57636269768E+02  0.00000000000E+00 0. -1.
</event>
<event>
 8    1  0.6901948E-009  0.9909355E+02  0.7561462E-02  0.1282214E+00
         -1   -1    0    0    0  501 -0.00000000000E+00  0.00000000000E+00  0.29837498168E+02  0.29837498168E+02  0.00000000000E+00 0.  1.
          1   -1    0    0  501    0  0.00000000000E+00 -0.00000000000E+00 -0.43852218317E+03  0.43852218317E+03  0.00000000000E+00 0. -1.
         25    2    1    2    0    0 -0.21794518577E+02 -0.28997215108E+02 -0.24192647254E+03  0.27475860386E+03  0.12509209709E+03 0.  0.
         23    2    1    2    0    0  0.21794518577E+02  0.28997215108E+02 -0.16675821246E+03  0.19360107748E+03  0.91417920856E+02 0.  0.
          5    1    3    3  502    0  0.51816939906E+02 -0.13170548361E+02 -0.82515853006E+02  0.98411366227E+02  0.41800000000E+01 0.  1.
         -5    1    3    3    0  502 -0.73611458483E+02 -0.15826666747E+02 -0.15941061953E+03  0.17634723763E+03  0.41800000000E+01 0.  1.
        -11    1    4    4    0    0  0.23445397831E+02  0.46231498842E+02 -0.16841201700E+03  0.17620909635E+03  0.00000000000E+00 0. -1.
         11    1    4    4    0    0 -0.16508792542E+01 -0.17234283735E+02  0.16538045430E+01  0.17391981130E+02  0.00000000000E+00 0.  1.
</event>
<event>
 8    1  0.6901948E-009  0.9822064E+02  0.7561462E-02  0.1284083E+00
         -1   -1    0    0    0  501 -0.00000000000E+00  0.00000000000E+00  0.12392876073E+03  0.12392876073E+03  0.00000000000E+00 0.  1.
          1   -1    0    0  501    0  0.00000000000E+00 -0.00000000000E+00 -0.12399029612E+03  0.12399029612E+03  0.00000000000E+00 0. -1.
         25    2    1    2    0    0 -0.26028499056E+02 -0.28068637510E+02  0.47409704632E+02  0.13913875373E+03  0.12508629630E+03 0.  0.
         23    2    1    2    0    0  0.26028499056E+02  0.28068637510E+02 -0.47471240024E+02  0.10878030312E+03  0.90079434630E+02 0.  0.
          5    1    3    3  502    0 -0.42077479041E+02  0.25164288687E+02 -0.18714658174E+02  0.52644719566E+02  0.41800000000E+01 0.  1.
         -5    1    3    3    0  502  0.16048979986E+02 -0.53232926197E+02  0.66124362806E+02  0.86494034167E+02  0.41800000000E+01 0.  1.
        -11    1    4    4    0    0  0.43308252469E+02 -0.14391806243E+02 -0.43488344638E+01  0.45843660195E+02  0.00000000000E+00 0.  1.
         11    1    4    4    0    0 -0.17279753413E+02  0.42460443753E+02 -0.43122405561E+02  0.62936642928E+02  0.00000000000E+00 0. -1.
</event>
<event>
 7    1  0.6901948E-009  0.1187196E+03  0.7561462E-02  0.1245224E+00
          2   -1    0    0  501    0  0.00000000000E+00  0.00000000000E+00  0.16492723934E+03  0.16492723934E+03  0.00000000000E+00 0.  1.
         -2   -1    0    0    0  501 -0.00000000000E+00 -0.00000000000E+00 -0.14714581861E+03  0.14714581861E+03  0.00000000000E+00 0. -1.
         23    2    1    2    0    0  0.10251319301E+02 -0.95737622606E+02  0.62022350664E+02  0.14819137473E+03  0.94037915929E+02 0.  0.
          5    1    1    2  502    0 -0.16321531194E+01 -0.22255684108E+02  0.19055678367E+02  0.29640692923E+02  0.41800000000E+01 0.  1.
         -5    1    1    2    0  502 -0.86191661821E+01  0.11799330671E+03 -0.63296608299E+02  0.13424099030E+03  0.41800000000E+01 0.  1.
        -11    1    3    3    0    0  0.87641771496E+01 -0.65993040097E+02  0.86842078301E+02  0.10942320917E+03  0.00000000000E+00 0.  1.
         11    1    3    3    0    0  0.14871421518E+01 -0.29744582509E+02 -0.24819727637E+02  0.38768165553E+02  0.00000000000E+00 0. -1.
</event>
<event>
 8    1  0.6901948E-009  0.1211766E+03  0.7561462E-02  0.1241169E+00
         -4   -1    0    0    0  501 -0.00000000000E+00  0.00000000000E+00  0.18161090338E+02  0.18161090338E+02  0.00000000000E+00 0.  1.
          4   -1    0    0  501    0  0.00000000000E+00 -0.00000000000E+00 -0.99139325976E+03  0.99139325976E+03  0.00000000000E+00 0. -1.
         25    2    1    2    0    0 -0.66148334792E+02 -0.33894188531E+02 -0.63282293285E+03  0.64933663740E+03  0.12509510832E+03 0.  0.
         23    2    1    2    0    0  0.66148334792E+02  0.33894188531E+02 -0.34040923658E+03  0.36021771270E+03  0.91399857667E+02 0.  0.
          5    1    3    3  502    0 -0.20858389465E+02 -0.71518700962E+02 -0.21985973786E+03  0.23217616960E+03  0.41800000000E+01 0. -1.
         -5    1    3    3    0  502 -0.45289945328E+02  0.37624512431E+02 -0.41296319499E+03  0.41716046780E+03  0.41800000000E+01 0. -1.
        -11    1    4    4    0    0  0.80963122246E+02  0.11380003284E+02 -0.18184555206E+03  0.19937987973E+03  0.00000000000E+00 0.  1.
         11    1    4    4    0    0 -0.14814787454E+02  0.22514185247E+02 -0.15856368452E+03  0.16083783296E+03  0.00000000000E+00 0. -1.
</event>
<event>
 8    1  0.6901948E-009  0.9536652E+02  0.7561462E-02  0.1290353E+00
          1   -1    0    0  501    0  0.00000000000E+00  0.00000000000E+00  0.10000533181E+03  0.10000533181E+03  0.00000000000E+00 0. -1.
         -1   -1    0    0    0  501 -0.00000000000E+00 -0.00000000000E+00 -0.19047450278E+03  0.19047450278E+03  0.00000000000E+00 0.  1.
         25    2    1    2    0    0 -0.60718533808E+02  0.37204363533E+02  0.10837751468E+01  0.14394150560E+03  0.12508827864E+03 0.  0.
         23    2    1    2    0    0  0.60718533808E+02 -0.37204363533E+02 -0.91552946117E+02  0.14653832899E+03  0.89557997449E+02 0.  0.
          5    1    3    3  502    0 -0.81665952825E+02  0.34833512851E+02  0.41555467584E+02  0.98117433489E+02  0.41800000000E+01 0.  1.
         -5    1    3    3    0  502  0.20947419017E+02  0.23708506813E+01 -0.40471692437E+02  0.45824072115E+02  0.41800000000E+01 0.  1.
        -11    1    4    4    0    0  0.81602324401E+00 -0.17177640487E+02 -0.80624718819E+02  0.82438355826E+02  0.00000000000E+00 0.  1.
         11    1    4    4    0    0  0.59902510564E+02 -0.20026723046E+02 -0.10928227297E+02  0.64099973164E+02  0.00000000000E+00 0. -1.
</event>
<event>
 8    1  0.6901948E-009  0.1099122E+03  0.7561462E-02  0.1260733E+00
          2   -1    0    0  501    0  0.00000000000E+00  0.00000000000E+00  0.25539785837E+03  0.25539785837E+03  0.00000000000E+00 0.  1.
         -2   -1    0    0    0  501 -0.00000000000E+00 -0.00000000000E+00 -0.54047520812E+02  0.54047520812E+02  0.00000000000E+00 0. -1.
         25    2    1    2    0    0 -0.35432161930E+02  0.10323432187E+02  0.15218652445E+03  0.20042674519E+03  0.12509248824E+03 0.  0.
         23    2    1    2    0    0  0.35432161930E+02 -0.10323432187E+02  0.49163813117E+02  0.10901863399E+03  0.90033164368E+02 0.  0.
          5    1    3    3  502    0  0.16103021479E+02 -0.44697771047E+02  0.92905806198E+02  0.10443255844E+03  0.41800000000E+01 0.  1.
         -5    1    3    3    0  502 -0.51535183409E+02  0.55021203234E+02  0.59280718248E+02  0.95994186752E+02  0.41800000000E+01 0.  1.
        -11    1    4    4    0    0 -0.66923101446E+01  0.34484708156E+02  0.24137850898E+02  0.42621801436E+02  0.00000000000E+00 0.  1.
         11    1    4    4    0    0  0.42124472074E+02 -0.44808140343E+02  0.25025962219E+02  0.66396832556E+02  0.00000000000E+00 0. -1.
</event>
<event>
 8    1  0.6901948E-009  0.4282255E+02  0.7561462E-02  0.1488412E+00
          1   -1    0    0  501    0  0.00000000000E+00  0.00000000000E+00  0.11938906172E+03  0.11938906172E+03  0.00000000000E+00 0. -1.
         -1   -1    0    0    0  501 -0.00000000000E+00 -0.00000000000E+00 -0.11482973778E+03  0.11482973778E+03  0.00000000000E+00 0.  1.
         25    2    1    2    0    0 -0.27810285154E+02  0.13350590532E+02 -0.48609969677E+02  0.13770394890E+03  0.12509115941E+03 0.  0.
         23    2    1    2    0    0  0.27810285154E+02 -0.13350590532E+02  0.53169293621E+02  0.96514850594E+02  0.74407609645E+02 0.  0.
          5    1    3    3  502    0 -0.10215147039E+02  0.17348966499E+02 -0.90021051493E+02  0.92339579702E+02  0.41800000000E+01 0. -1.
         -5    1    3    3    0  502 -0.17595138115E+02 -0.39983759668E+01  0.41411081816E+02  0.45364369199E+02  0.41800000000E+01 0. -1.
        -11    1    4    4    0    0  0.63063517006E+01 -0.22370337518E+02  0.65948165301E+02  0.69923977140E+02  0.00000000000E+00 0. -1.
         11    1    4    4    0    0  0.21503933453E+02  0.90197469852E+01 -0.12778871680E+02  0.26590873454E+02  0.00000000000E+00 0.  1.
</event>
<event>
 8    1  0.6901948E-009  0.1845898E+03  0.7561462E-02  0.1163433E+00
         -1   -1    0    0    0  501 -0.00000000000E+00  0.00000000000E+00  0.89053447719E+03  0.89053447719E+03  0.00000000000E+00 0.  1.
          1   -1    0    0  501    0  0.00000000000E+00 -0.00000000000E+00 -0.45912151333E+02  0.45912151333E+02  0.00000000000E+00 0. -1.
         25    2    1    2    0    0  0.14898367109E+03  0.77971835578E+02  0.50775323101E+03  0.54930445802E+03  0.12508518142E+03 0.  0.
         23    2    1    2    0    0 -0.14898367109E+03 -0.77971835578E+02  0.33686909485E+03  0.38714217050E+03  0.90125089301E+02 0.  0.
          5    1    3    3  502    0  0.14357045796E+03  0.95983091703E+02  0.34929159186E+03  0.38967591514E+03  0.41800000000E+01 0.  1.
         -5    1    3    3    0  502  0.54132131304E+01 -0.18011256125E+02  0.15846163914E+03  0.15962854289E+03  0.41800000000E+01 0.  1.
        -11    1    4    4    0    0 -0.40764151692E+02 -0.51631986523E+02  0.61309880440E+02  0.89924854935E+02  0.00000000000E+00 0.  1.
         11    1    4    4    0    0 -0.10821951939E+03 -0.26339849055E+02  0.27555921441E+03  0.29721731556E+03  0.00000000000E+00 0. -1.
</event>
<event>
 8    1  0.6901948E-009  0.8983191E+02  0.7561462E-02  0.1303259E+00
          1   -1    0    0  501    0  0.00000000000E+00  0.00000000000E+00  0.13391091472E+03  0.13391091472E+03  0.00000000000E+00 0. -1.
         -1   -1    0    0    0  501 -0.00000000000E+00 -0.00000000000E+00 -0.18930788820E+03  0.18930788820E+03  0.00000000000E+00 0.  1.
         25    2    1    2    0    0  0.37667965952E+02 -0.52292664446E+02  0.68490914883E+02  0.15649990067E+03  0.12509122701E+03 0.  0.
         23    2    1    2    0    0 -0.37667965952E+02  0.52292664446E+02 -0.12388788837E+03  0.16671890225E+03  0.91069122482E+02 0.  0.
          5    1    3    3  502    0  0.35272808192E+02  0.17488650142E+02 -0.19468078517E+02  0.44119183613E+02  0.41800000000E+01 0.  1.
         -5    1    3    3    0  502  0.23951577597E+01 -0.69781314589E+02  0.87958993400E+02  0.11238071706E+03  0.41800000000E+01 0.  1.
        -11    1    4    4    0    0 -0.34128166943E+02  0.24266468457E+02 -0.13104857800E+03  0.13757660799E+03  0.00000000000E+00 0.  1.
         11    1    4    4    0    0 -0.35397990087E+01  0.28026195989E+02  0.71606896341E+01  0.29142294259E+02  0.00000000000E+00 0. -1.
</event>
<event>
 7    1  0.6901948E-009  0.8019149E+02  0.7561462E-02  0.1328509E+00
          2   -1    0    0  501    0  0.00000000000E+00  0.00000000000E+00  0.90893250726E+02  0.90893250726E+02  0.00000000000E+00 0. -1.
         -2   -1    0    0    0  501 -0.00000000000E+00 -0.00000000000E+00 -0.23280159895E+03  0.23280159895E+03  0.00000000000E+00 0.  1.
         25    2    1    2    0    0  0.30214755545E+02 -0.35510217988E+02 -0.20253332004E+02  0.13502545907E+03  0.12509104727E+03 0.  0.
          5    1    3    3  502    0  0.12558307938E+02  0.12429445988E+02  0.47046227785E+02  0.50428386595E+02  0.41800000000E+01 0.  1.
         -5    1    3    3    0  502  0.17656447607E+02 -0.47939663976E+02 -0.67299559789E+02  0.84597072479E+02  0.41800000000E+01 0.  1.
        -11    1    1    2    0    0  0.26524126835E+02  0.68172777793E+01 -0.12205207100E+03  0.12508682032E+03  0.00000000000E+00 0.  1.
         11    1    1    2    0    0 -0.56738882380E+02  0.28692940209E+02  0.39705478377E+00  0.63582570285E+02  0.00000000000E+00 0. -1.
</event>
<event>
 8    1  0.6901948E-009  0.8144767E+02  0.7561462E-02  0.1324993E+00
          1   -1    0    0  501    0  0.00000000000E+00  0.00000000000E+00  0.12610186529E+03  0.12610186529E+03  0.00000000000E+00 0. -1.
         -1   -1    0    0    0  501 -0.00000000000E+00 -0.00000000000E+00 -0.94879705776E+02  0.94879705776E+02  0.00000000000E+00 0.  1.
         25    2    1    2    0    0  0.19976858057E+02  0.27789215956E+02 -0.21537362416E+01  0.12970640635E+03  0.12509115831E+03 0.  0.
         23    2    1    2    0    0 -0.19976858057E+02 -0.27789215956E+02  0.33375895755E+02  0.91275164713E+02  0.77755320683E+02 0.  0.
          5    1    3    3  502    0 -0.12368106559E+02  0.41250842596E+02 -0.52623114643E+02  0.68126842503E+02  0.41800000000E+01 0. -1.
         -5    1    3    3    0  502  0.32344964615E+02 -0.13461626640E+02  0.50469378401E+02  0.61579563850E+02  0.41800000000E+01 0. -1.
        -11    1    4    4    0    0 -0.24855129937E+02 -0.53067732229E+02  0.18064416668E+02  0.61321161418E+02  0.00000000000E+00 0. -1.
         11    1    4    4    0    0  0.48782718804E+01  0.25278516273E+02  0.15311479087E+02  0.29954003294E+02  0.00000000000E+00 0.  1.
</event>
<event>
 8    1  0.6901948E-009  0.1294981E+03  0.7561462E-02  0.1228202E+00
          1   -1    0    0  501    0  0.00000000000E+00  0.00000000000E+00  0.88064286819E+03  0.88064286819E+03  0.00000000000E+00 0.  1.
         -1   -1    0    0    0  501 -0.00000000000E+00 -0.00000000000E+00 -0.19898928322E+02  0.19898928322E+02  0.00000000000E+00 0. -1.
         25    2    1    2    0    0  0.63638016352E+01 -0.75773526558E+02  0.44477035289E+03  0.46824475155E+03  0.12510137986E+03 0.  0.
         23    2    1    2    0    0 -0.63638016352E+01  0.75773526558E+02  0.41597358697E+03  0.43229704496E+03  0.89803032932E+02 0.  0.
          5    1    3    3  502    0 -0.72349929167E+00  0.34964413742E+02  0.11589126351E+03  0.12112510490E+03  0.41800000000E+01 0. -1.
         -5    1    3    3    0  502  0.70873009269E+01 -0.11073794030E+03  0.32887908938E+03  0.34711964665E+03  0.41800000000E+01 0. -1.
        -11    1    4    4    0    0  0.20837668200E+02  0.82184902171E+02  0.24997135130E+03  0.26395879040E+03  0.00000000000E+00 0.  1.
         11    1    4    4    0    0 -0.27201469836E+02 -0.64113756134E+01  0.16600223567E+03  0.16833825456E+03  0.00000000000E+00 0. -1.
</event>
<event>
 8    1  0.6901948E-009  0.1368379E+03  0.7561462E-02  0.1217648E+00
          1   -1    0    0  501    0  0.00000000000E+00  0.00000000000E+00  0.25032212531E+04  0.25032212531E+04  0.00000000000E+00 0. -1.
         -1   -1    0    0    0  501 -0.00000000000E+00 -0.00000000000E+00 -0.46398812949E+02  0.46398812949E+02  0.00000000000E+00 0.  1.
         25    2    1    2    0    0  0.11107843911E+02  0.11967895259E+03  0.23664685775E+04  0.23728184319E+04  0.12508935445E+03 0.  0.
         23    2    1    2    0    0 -0.11107843911E+02 -0.11967895259E+03  0.90353862719E+02  0.17680163421E+03  0.92997642246E+02 0.  0.
          5    1    3    3  502    0  0.30193527375E+02  0.38668872684E+01  0.12123270541E+04  0.12127163561E+04  0.41800000000E+01 0.  1.
         -5    1    3    3    0  502 -0.19085683463E+02  0.11581206532E+03  0.11541415234E+04  0.11601020758E+04  0.41800000000E+01 0.  1.
        -11    1    4    4    0    0  0.13045188186E+02 -0.32010428399E+02 -0.14956503013E+02  0.37663529355E+02  0.00000000000E+00 0.  1.
         11    1    4    4    0    0 -0.24153032097E+02 -0.87668524191E+02  0.10531036573E+03  0.13913810486E+03  0.00000000000E+00 0. -1.
</event>
<event>
 8    1  0.6901948E-009  0.1054841E+03  0.7561462E-02  0.1269169E+00
         -1   -1    0    0    0  501 -0.00000000000E+00  0.00000000000E+00  0.45754261524E+03  0.45754261524E+03  0.00000000000E+00 0.  1.
          1   -1    0    0  501    0  0.00000000000E+00 -0.00000000000E+00 -0.38113951218E+02  0.38113951218E+02  0.00000000000E+00 0. -1.
         25    2    1    2    0    0 -0.67938404612E+02  0.35386290286E+01  0.18059164103E+03  0.22997592551E+03  0.12508971496E+03 0.  0.
         23    2    1    2    0    0  0.67938404612E+02 -0.35386290286E+01  0.23883702300E+03  0.26568064095E+03  0.94418910735E+02 0.  0.
          5    1    3    3  502    0  0.36346253050E+02  0.44147071557E+00  0.61795072223E+02  0.71814680659E+02  0.41800000000E+01 0. -1.
         -5    1    3    3    0  502 -0.10428465766E+03  0.30971583130E+01  0.11879656881E+03  0.15816124485E+03  0.41800000000E+01 0. -1.
        -11    1    4    4    0    0  0.39161262529E+02 -0.10114742340E+02  0.23184275466E+03  0.23534437614E+03  0.00000000000E+00 0.  1.
         11    1    4    4    0    0  0.28777142084E+02  0.65761133115E+01  0.69942683412E+01  0.30336264806E+02  0.00000000000E+00 0. -1.
</event>
<event>
 8    1  0.6901948E-009  0.1279504E+03  0.7561462E-02  0.1230529E+00
          1   -1    0    0  501    0  0.00000000000E+00  0.00000000000E+00  0.19947546656E+03  0.19947546656E+03  0.00000000000E+00 0. -1.
         -1   -1    0    0    0  501 -0.00000000000E+00 -0.00000000000E+00 -0.10476836689E+03  0.10476836689E+03  0.00000000000E+00 0.  1.
         25    2    1    2    0    0  0.34045417533E+02  0.73071838276E+02  0.11487170736E+01  0.14881892970E+03  0.12508864969E+03 0.  0.
         23    2    1    2    0    0 -0.34045417533E+02 -0.73071838276E+02  0.93558382593E+02  0.15542490376E+03  0.94367079807E+02 0.  0.
          5    1    3    3  502    0  0.39365880517E+02  0.10706641523E+03  0.12463674050E+01  0.11415741610E+03  0.41800000000E+01 0.  1.
         -5    1    3    3    0  502 -0.53204629846E+01 -0.33994576957E+02 -0.97650331396E-01  0.34661513591E+02  0.41800000000E+01 0.  1.
        -11    1    4    4    0    0  0.11629358006E+02  0.79447745345E+01  0.51429990692E+02  0.53323590957E+02  0.00000000000E+00 0. -1.
         11    1    4    4    0    0 -0.45674775538E+02 -0.81016612811E+02  0.42128391901E+02  0.10210131280E+03  0.00000000000E+00 0.  1.
</event>
<event>
 8    1  0.6901948E-009  0.4316467E+02  0.7561462E-02  0.1486136E+00
          3   -1    0    0  501    0  0.00000000000E+00  0.00000000000E+00  0.86268596708E+02  0.86268596708E+02  0.00000000000E+00 0. -1.
         -3   -1    0    0    0  501 -0.00000000000E+00 -0.00000000000E+00 -0.16067056228E+03  0.16067056228E+03  0.00000000000E+00 0.  1.
         25    2    1    2    0    0  0.14976596264E+02 -0.14941300674E+00  0.26431051145E+01  0.12601391061E+03  0.12509276119E+03 0.  0.
         23    2    1    2    0    0 -0.14976596264E+02  0.14941300674E+00 -0.77045070690E+02  0.12092524838E+03  0.91992673722E+02 0.  0.
          5    1    3    3  502    0  0.94386183089E+00 -0.18551727573E+02  0.60571737445E+02  0.63493820552E+02  0.41800000000E+01 0. -1.
         -5    1    3    3    0  502  0.14032734433E+02  0.18402314567E+02 -0.57928632331E+02  0.62520090057E+02  0.41800000000E+01 0. -1.
        -11    1    4    4    0    0 -0.24918903272E+02 -0.12341561307E+02 -0.93768548199E+02  0.97804941118E+02  0.00000000000E+00 0.  1.
         11    1    4    4    0    0  0.99423070083E+01  0.12490974314E+02  0.16723477509E+02  0.23120307263E+02  0.00000000000E+00 0. -1.
</event>
<event>
 8    1  0.6901948E-009  0.1119313E+03  0.7561462E-02  0.1257035E+00
         -2   -1    0    0    0  501 -0.00000000000E+00  0.00000000000E+00  0.20461502454E+02  0.20461502454E+02  0.00000000000E+00 0.  1.
          2   -1    0    0  501    0  0.00000000000E+00 -0.00000000000E+00 -0.79791914129E+03  0.79791914129E+03  0.00000000000E+00 0. -1.
         25    2    1    2    0    0  0.16001969419E+02  0.64879505063E+02 -0.38844250752E+03  0.41352239302E+03  0.12509106553E+03 0.  0.
         23    2    1    2    0    0 -0.16001969419E+02 -0.64879505063E+02 -0.38901513132E+03  0.40485825073E+03  0.90066739626E+02 0.  0.
          5    1    3    3  502    0 -0.15419196866E+02  0.92433363426E+02 -0.31762682457E+03  0.33118869303E+03  0.41800000000E+01 0. -1.
         -5    1    3    3    0  502  0.31421166284E+02 -0.27553858362E+02 -0.70815682949E+02  0.82333699983E+02  0.41800000000E+01 0. -1.
        -11    1    4    4    0    0 -0.69396896487E+01  0.10253696635E+02 -0.48294075521E+01  0.13289874507E+02  0.00000000000E+00 0.  1.
         11    1    4    4    0    0 -0.90622797699E+01 -0.75133201699E+02 -0.38418572376E+03  0.39156837622E+03  0.00000000000E+00 0. -1.
</event>
<event>
 8    1  0.6901948E-009  0.1385617E+03  0.7561462E-02  0.1215277E+00
         -3   -1    0    0    0  501 -0.00000000000E+00  0.00000000000E+00  0.85975175136E+02  0.85975175136E+02  0.00000000000E+00 0.  1.
          3   -1    0    0  501    0  0.00000000000E+00 -0.00000000000E+00 -0.30092627607E+03  0.30092627607E+03  0.00000000000E+00 0. -1.
         25    2    1    2    0    0  0.90242479306E+02 -0.70991186963E+02 -0.15456494988E+03  0.22962169443E+03  0.12510933268E+03 0.  0.
         23    2    1    2    0    0 -0.90242479306E+02  0.70991186963E+02 -0.60386151058E+02  0.15727975678E+03  0.88921206443E+02 0.  0.
          5    1    3    3  502    0  0.97293762991E+02 -0.47009069178E+02 -0.44935519207E+02  0.11710082061E+03  0.41800000000E+01 0. -1.
         -5    1    3    3    0  502 -0.70512836850E+01 -0.23982117784E+02 -0.10962943067E+03  0.11252087381E+03  0.41800000000E+01 0. -1.
        -11    1    4    4    0    0  0.74583551560E+01  0.40665826097E+02 -0.28166397498E+02  0.50026817026E+02  0.00000000000E+00 0.  1.
         11    1    4    4    0    0 -0.97700834462E+02  0.30325360866E+02 -0.32219753560E+02  0.10725293975E+03  0.00000000000E+00 0. -1.
</event>
<event>
 8    1  0.6901948E-009  0.9318236E+02  0.7561462E-02  0.1295323E+00
         -1   -1    0    0    0  501 -0.00000000000E+00  0.00000000000E+00  0.24736847756E+03  0.24736847756E+03  0.00000000000E+00 0.  1.
          1   -1    0    0  501    0  0.00000000000E+00 -0.00000000000E+00 -0.50508516920E+02  0.50508516920E+02  0.00000000000E+00 0. -1.
         25    2    1    2    0    0 -0.21871689414E+01 -0.84221777410E+01  0.15336408326E+03  0.19810274818E+03  0.12509372492E+03 0.  0.
         23    2    1    2    0    0  0.21871689414E+01  0.84221777410E+01  0.43495877380E+02  0.99774246304E+02  0.89371651493E+02 0.  0.
          5    1    3    3  502    0 -0.48422611987E+02 -0.12027482795E+02  0.14143412603E+03  0.15003497625E+03  0.41800000000E+01 0. -1.
         -5    1    3    3    0  502  0.46235443045E+02  0.36053050543E+01  0.11929957232E+02  0.48067771924E+02  0.41800000000E+01 0. -1.
        -11    1    4    4    0    0  0.45272996310E+02  0.10929026013E+02  0.24428077914E+02  0.52591052424E+02  0.00000000000E+00 0. -1.
         11    1    4    4    0    0 -0.43085827368E+02 -0.25068482719E+01  0.19067799466E+02  0.47183193880E+02  0.00000000000E+00 0.  1.
</event>
<event>
 8    1  0.6901948E-009  0.1062450E+03  0.7561462E-02  0.1267686E+00
         -2   -1    0    0    0  501 -0.00000000000E+00  0.00000000000E+00  0.15984248919E+03  0.15984248919E+03  0.00000000000E+00 0.  1.
          2   -1    0    0  501    0  0.00000000000E+00 -0.00000000000E+00 -0.11200259520E+03  0.11200259520E+03  0.00000000000E+00 0. -1.
         25    2    1    2    0    0  0.50563873183E+02  0.40467383266E+02  0.63856482283E+02  0.15465976004E+03  0.12509067378E+03 0.  0.
         23    2    1    2    0    0 -0.50563873183E+02 -0.40467383266E+02 -0.16016588295E+02  0.11718532436E+03  0.96340826054E+02 0.  0.
          5    1    3    3  502    0  0.61468533368E+02  0.76143773142E+02  0.25984893944E+02  0.10133578783E+03  0.41800000000E+01 0. -1.
         -5    1    3    3    0  502 -0.10904660185E+02 -0.35676389876E+02  0.37871588339E+02  0.53323972204E+02  0.41800000000E+01 0. -1.
        -11    1    4    4    0    0 -0.11003924761E+02 -0.35459543990E+02  0.35951513812E+02  0.51681495387E+02  0.00000000000E+00 0.  1.
         11    1    4    4    0    0 -0.39559948422E+02 -0.50078392766E+01 -0.51968102107E+02  0.65503828972E+02  0.00000000000E+00 0. -1.
</event>
<event>
 8    1  0.6901948E-009  0.1477340E+03  0.7561462E-02  0.1203285E+00
          2   -1    0    0  501    0  0.00000000000E+00  0.00000000000E+00  0.31752373783E+03  0.31752373783E+03  0.00000000000E+00 0. -1.
         -2   -1    0    0    0  501 -0.00000000000E+00 -0.00000000000E+00 -0.97805516659E+02  0.97805516659E+02  0.00000000000E+00 0.  1.
         25    2    1    2    0    0 -0.63543728982E+02 -0.10963812915E+03  0.33408801342E+02  0.18116932730E+03  0.12509137577E+03 0.  0.
         23    2    1    2    0    0  0.63543728982E+02  0.10963812915E+03  0.18630941983E+03  0.23415992718E+03  0.63728696244E+02 0.  0.
          5    1    3    3  502    0  0.31363043264E+02 -0.37071579346E+02 -0.16740120627E+02  0.51532965338E+02  0.41800000000E+01 0. -1.
         -5    1    3    3    0  502 -0.94906772246E+02 -0.72566549808E+02  0.50148921969E+02  0.12963636197E+03  0.41800000000E+01 0. -1.
        -11    1    4    4    0    0  0.15359692090E+02  0.36528066421E+02  0.16143986531E+02  0.42788410565E+02  0.00000000000E+00 0.  1.
         11    1    4    4    0    0  0.48184036893E+02  0.73110062733E+02  0.17016543330E+03  0.19137151662E+03  0.00000000000E+00 0. -1.
</event>
<event>
 8    1  0.6901948E-009  0.1810954E+03  0.7561462E-02  0.1166747E+00
         -1   -1    0    0    0  501 -0.00000000000E+00  0.00000000000E+00  0.46927457677E+02  0.46927457677E+02  0.00000000000E+00 0.  1.
          1   -1    0    0  501    0  0.00000000000E+00 -0.00000000000E+00 -0.87322013107E+03  0.87322013107E+03  0.00000000000E+00 0. -1.
         25    2    1    2    0    0 -0.14102801346E+03 -0.86080763082E+02 -0.33600556779E+03  0.39477309155E+03  0.12508898381E+03 0.  0.
         23    2    1    2    0    0  0.14102801346E+03  0.86080763082E+02 -0.49028710560E+03  0.52537449720E+03  0.91313296027E+02 0.  0.
          5    1    3    3  502    0 -0.31702580551E+02  0.15226520665E+02 -0.10820885105E+02  0.37033289073E+02  0.41800000000E+01 0. -1.
         -5    1    3    3    0  502 -0.10932543291E+03 -0.10130728375E+03 -0.32518468269E+03  0.35773980248E+03  0.41800000000E+01 0. -1.
        -11    1    4    4    0    0  0.86559387991E+02  0.14573246539E+02 -0.15378009083E+03  0.17706841474E+03  0.00000000000E+00 0.  1.
         11    1    4    4    0    0  0.54468625471E+02  0.71507516543E+02 -0.33650701478E+03  0.34830608246E+03  0.00000000000E+00 0. -1.
</event>
<event>
 8    1  0.6901948E-009  0.1190875E+03  0.7561462E-02  0.1244610E+00
         -1   -1    0    0    0  501 -0.00000000000E+00  0.00000000000E+00  0.37510229383E+02  0.37510229383E+02  0.00000000000E+00 0.  1.
          1   -1    0    0  501    0  0.00000000000E+00 -0.00000000000E+00 -0.44613614279E+03  0.44613614279E+03  0.00000000000E+00 0. -1.
         25    2    1    2    0    0  0.65877472220E+02 -0.50020276711E+01 -0.26726470196E+03  0.30240385315E+03  0.12511118198E+03 0.  0.
         23    2    1    2    0    0 -0.65877472220E+02  0.50020276711E+01 -0.14136121145E+03  0.18124251903E+03  0.92200851265E+02 0.  0.
          5    1    3    3  502    0  0.17683319556E+01  0.44249909784E+02 -0.35509698214E+02  0.56917418960E+02  0.41800000000E+01 0.  1.
         -5    1    3    3    0  502  0.64109140265E+02 -0.49251937455E+02 -0.23175500375E+03  0.24548643419E+03  0.41800000000E+01 0.  1.
        -11    1    4    4    0    0 -0.12829382488E+02 -0.40729301353E+02 -0.44085969769E+02  0.61376231346E+02  0.00000000000E+00 0. -1.
         11    1    4    4    0    0 -0.53048089732E+02  0.45731329024E+02 -0.97275241681E+02  0.11986628768E+03  0.00000000000E+00 0.  1.
</event>
<event>
 8    1  0.6901948E-009  0.1124772E+03  0.7561462E-02  0.1256050E+00
          2   -1    0    0  501    0  0.00000000000E+00  0.00000000000E+00  0.54458892004E+03  0.54458892004E+03  0.00000000000E+00 0. -1.
         -2   -1    0    0    0  501 -0.00000000000E+00 -0.00000000000E+00 -0.43442551296E+02  0.43442551296E+02  0.00000000000E+00 0.  1.
         25    2    1    2    0    0 -0.11216188610E+02  0.42700469499E+02  0.45749168508E+03  0.47633676120E+03  0.12509570405E+03 0.  0.
         23    2    1    2    0    0  0.11216188610E+02 -0.42700469499E+02  0.43654683662E+02  0.11169471013E+03  0.92848499630E+02 0.  0.
          5    1    3    3  502    0 -0.61840743768E+02 -0.36862977855E+01  0.17855335691E+03  0.18904137125E+03  0.41800000000E+01 0. -1.
         -5    1    3    3    0  502  0.50624555158E+02  0.46386767284E+02  0.27893832817E+03  0.28729538995E+03  0.41800000000E+01 0. -1.
        -11    1    4    4    0    0 -0.10216880538E+02 -0.63434671853E+02  0.72871832251E+01  0.64664095759E+02  0.00000000000E+00 0.  1.
         11    1    4    4    0    0  0.21433069148E+02  0.20734202354E+02  0.36367500437E+02  0.47030614374E+02  0.00000000000E+00 0. -1.
</event>
<event>
 8    1  0.6901948E-009  0.1120931E+03  0.7561462E-02  0.1256742E+00
          1   -1    0    0  501    0  0.00000000000E+00  0.00000000000E+00  0.76661957128E+02  0.76661957128E+02  0.00000000000E+00 0. -1.
         -1   -1    0    0    0  501 -0.00000000000E+00 -0.00000000000E+00 -0.27677981022E+03  0.27677981022E+03  0.00000000000E+00 0.  1.
         25    2    1    2    0    0  0.23119775001E+01  0.84844180368E+02 -0.16889734019E+03  0.22666220835E+03  0.12508223290E+03 0.  0.
         23    2    1    2    0    0 -0.23119775001E+01 -0.84844180368E+02 -0.31220512897E+02  0.12677955900E+03  0.88850751101E+02 0.  0.
          5    1    3    3  502    0  0.12859312140E+02 -0.21322349492E+02 -0.91154233112E+02  0.94586315663E+02  0.41800000000E+01 0. -1.
         -5    1    3    3    0  502 -0.10547334640E+02  0.10616652986E+03 -0.77743107080E+02  0.13207589269E+03  0.41800000000E+01 0. -1.
        -11    1    4    4    0    0 -0.17794803687E+02 -0.27388280590E+02 -0.53961872903E+02  0.63076593751E+02  0.00000000000E+00 0.  1.
         11    1    4    4    0    0  0.15482826187E+02 -0.57455899778E+02  0.22741360007E+02  0.63702965244E+02  0.00000000000E+00 0. -1.
</event>
<event>
 8    1  0.6901948E-009  0.8292679E+02  0.7561462E-02  0.1320945E+00
         -2   -1    0    0    0  501 -0.00000000000E+00  0.00000000000E+00  0.26438701783E+02  0.26438701783E+02  0.00000000000E+00 0.  1.
          2   -1    0    0  501    0  0.00000000000E+00 -0.00000000000E+00 -0.63246635839E+03  0.63246635839E+03  0.00000000000E+00 0. -1.
         25    2    1    2    0    0  0.25963692248E+02  0.61386588226E+02 -0.27966420290E+03  0.31353173055E+03  0.12509057979E+03 0.  0.
         23    2    1    2    0    0 -0.25963692248E+02 -0.61386588226E+02 -0.32636345371E+03  0.34537332962E+03  0.91253527971E+02 0.  0.
          5    1    3    3  502    0 -0.95812878093E+01  0.31011409024E+02 -0.26095419532E+03  0.26299823768E+03  0.41800000000E+01 0. -1.
         -5    1    3    3    0  502  0.35544980057E+02  0.30375179202E+02 -0.18710007579E+02  0.50533492878E+02  0.41800000000E+01 0. -1.
        -11    1    4    4    0    0 -0.19718743204E+02 -0.71571666982E+02 -0.32497377192E+03  0.33334559362E+03  0.00000000000E+00 0. -1.
         11    1    4    4    0    0 -0.62449490439E+01  0.10185078756E+02 -0.13896817862E+01  0.12027736000E+02  0.00000000000E+00 0.  1.
</event>
<event>
 8    1  0.6901948E-009  0.5974233E+02  0.7561462E-02  0.1398916E+00
          1   -1    0    0  501    0  0.00000000000E+00  0.00000000000E+00  0.88922458030E+02  0.88922458030E+02  0.00000000000E+00 0. -1.
         -1   -1    0    0    0  501 -0.00000000000E+00 -0.00000000000E+00 -0.13742800710E+03  0.13742800710E+03  0.00000000000E+00 0.  1.
         25    2    1    2    0    0 -0.11856667267E+02 -0.43213801893E+01 -0.14225162309E+02  0.12652863872E+03  0.12509151166E+03 0.  0.
         23    2    1    2    0    0  0.11856667267E+02  0.43213801893E+01 -0.34280386765E+02  0.99821826415E+02  0.92897778373E+02 0.  0.
          5    1    3    3  502    0 -0.18412666026E+02 -0.39053396557E+01  0.54269524132E+02  0.57592808558E+02  0.41800000000E+01 0.  1.
         -5    1    3    3    0  502  0.65559987585E+01 -0.41604053362E+00 -0.68494686442E+02  0.68935830162E+02  0.41800000000E+01 0.  1.
        -11    1    4    4    0    0  0.51599158004E+02 -0.42066757125E+01 -0.27473776905E+02  0.58608682332E+02  0.00000000000E+00 0.  1.
         11    1    4    4    0    0 -0.39742490737E+02  0.85280559018E+01 -0.68066098601E+01  0.41213144083E+02  0.00000000000E+00 0. -1.
</event>
<event>
 8    1  0.6901948E-009  0.8278268E+02  0.7561462E-02  0.1321335E+00
          2   -1    0    0  501    0  0.00000000000E+00  0.00000000000E+00  0.28766557890E+03  0.28766557890E+03  0.00000000000E+00 0. -1.
         -2   -1    0    0    0  501 -0.00000000000E+00 -0.00000000000E+00 -0.44553599539E+02  0.44553599539E+02  0.00000000000E+00 0.  1.
         25    2    1    2    0    0  0.24758771538E+02  0.32135521319E+02  0.15083926671E+03  0.20009679214E+03  0.12506219790E+03 0.  0.
         23    2    1    2    0    0 -0.24758771538E+02 -0.32135521319E+02  0.92272712644E+02  0.13212238629E+03  0.85418867719E+02 0.  0.
          5    1    3    3  502    0 -0.11565897173E+02  0.57963930503E+02  0.21178177595E+02  0.62925152547E+02  0.41800000000E+01 0.  1.
         -5    1    3    3    0  502  0.36324668711E+02 -0.25828409184E+02  0.12966108912E+03  0.13717163960E+03  0.41800000000E+01 0.  1.
        -11    1    4    4    0    0 -0.19497110945E+02 -0.44240013794E+02  0.10385880613E+03  0.11455988725E+03  0.00000000000E+00 0. -1.
         11    1    4    4    0    0 -0.52616605928E+01  0.12104492475E+02 -0.11586093488E+02  0.17562499042E+02  0.00000000000E+00 0.  1.
</event>
<event>
 7    1  0.6901948E-009  0.2512091E+03  0.7561462E-02  0.1112543E+00
          2   -1    0    0  501    0  0.00000000000E+00  0.00000000000E+00  0.12095117532E+04  0.12095117532E+04  0.00000000000E+00 0. -1.
         -2   -1    0    0    0  501 -0.00000000000E+00 -0.00000000000E+00 -0.82115337517E+02  0.82115337517E+02  0.00000000000E+00 0.  1.
         25    2    1    2    0    0  0.16130788921E+03  0.14087329568E+03  0.72580425691E+03  0.76701156517E+03  0.12509756671E+03 0.  0.
          5    1    3    3  502    0  0.30996574374E+02  0.79972788924E+02  0.42462344999E+03  0.43321932237E+03  0.41800000000E+01 0.  1.
         -5    1    3    3    0  502  0.13031131484E+03  0.60900506753E+02  0.30118080692E+03  0.33379224280E+03  0.41800000000E+01 0.  1.
        -11    1    1    2    0    0 -0.16449535967E+02 -0.12595158467E+03  0.37438580928E+02  0.13242369975E+03  0.00000000000E+00 0.  1.
         11    1    1    2    0    0 -0.14485835324E+03 -0.14921711010E+02  0.36415357783E+03  0.39219182578E+03  0.00000000000E+00 0. -1.
</event>
<event>
 8    1  0.6901948E-009  0.1606120E+03  0.7561462E-02  0.1188008E+00
         -4   -1    0    0    0  501 -0.00000000000E+00  0.00000000000E+00  0.99203250402E+03  0.99203250402E+03  0.00000000000E+00 0.  1.
          4   -1    0    0  501    0  0.00000000000E+00 -0.00000000000E+00 -0.28619731383E+02  0.28619731383E+02  0.00000000000E+00 0. -1.
         25    2    1    2    0    0  0.11554016642E+03 -0.47796870353E+02  0.42932929074E+03  0.46433331776E+03  0.12509084390E+03 0.  0.
         23    2    1    2    0    0 -0.11554016642E+03  0.47796870353E+02  0.53408348190E+03  0.55631891764E+03  0.92798176784E+02 0.  0.
          5    1    3    3  502    0  0.13809544345E+03 -0.19951632211E+02  0.36131902739E+03  0.38734652584E+03  0.41800000000E+01 0.  1.
         -5    1    3    3    0  502 -0.22555277030E+02 -0.27845238142E+02  0.68010263350E+02  0.76986791920E+02  0.41800000000E+01 0.  1.
        -11    1    4    4    0    0 -0.11969971056E+03  0.59111577350E+02  0.52357473246E+03  0.54032647516E+03  0.00000000000E+00 0.  1.
         11    1    4    4    0    0  0.41595441383E+01 -0.11314706996E+02  0.10508749443E+02  0.15992442487E+02  0.00000000000E+00 0. -1.
</event>
<event>
 8    1  0.6901948E-009  0.9859259E+02  0.7561462E-02  0.1283284E+00
         -1   -1    0    0    0  501 -0.00000000000E+00  0.00000000000E+00  0.45025925518E+02  0.45025925518E+02  0.00000000000E+00 0.  1.
          1   -1    0    0  501    0  0.00000000000E+00 -0.00000000000E+00 -0.38552498872E+03  0.38552498872E+03  0.00000000000E+00 0. -1.
         25    2    1    2    0    0 -0.21120726227E+02 -0.34121753645E+02 -0.31387083364E+03  0.34026176346E+03  0.12511110386E+03 0.  0.
         23    2    1    2    0    0  0.21120726227E+02  0.34121753645E+02 -0.26628229555E+02  0.90289150779E+02  0.76372043255E+02 0.  0.
          5    1    3    3  502    0  0.47318037597E+02  0.11692195463E+02 -0.11535123090E+03  0.12529598153E+03  0.41800000000E+01 0.  1.
         -5    1    3    3    0  502 -0.68438763824E+02 -0.45813949108E+02 -0.19851960274E+03  0.21496578193E+03  0.41800000000E+01 0.  1.
        -11    1    4    4    0    0  0.38330677364E+02  0.28254292665E+02  0.10665909022E+02  0.48798642363E+02  0.00000000000E+00 0.  1.
         11    1    4    4    0    0 -0.17209951137E+02  0.58674609799E+01 -0.37294138577E+02  0.41490508416E+02  0.00000000000E+00 0. -1.
</event>
<event>
 8    1  0.6901948E-009  0.1946971E+03  0.7561462E-02  0.1154292E+00
         -1   -1    0    0    0  501 -0.00000000000E+00  0.00000000000E+00  0.21299522038E+03  0.21299522038E+03  0.00000000000E+00 0.  1.
          1   -1    0    0  501    0  0.00000000000E+00 -0.00000000000E+00 -0.22739201093E+03  0.22739201093E+03  0.00000000000E+00 0. -1.
         25    2    1    2    0    0 -0.38593497134E+02 -0.18612761281E+03 -0.45220615827E+01  0.22759942719E+03  0.12509238165E+03 0.  0.
         23    2    1    2    0    0  0.38593497134E+02  0.18612761281E+03 -0.98747289685E+01  0.21278780412E+03  0.95121990293E+02 0.  0.
          5    1    3    3  502    0 -0.31743573354E+02 -0.17240455370E+03 -0.47586409326E+02  0.18169458808E+03  0.41800000000E+01 0.  1.
         -5    1    3    3    0  502 -0.68499237799E+01 -0.13723059108E+02  0.43064347744E+02  0.45904839109E+02  0.41800000000E+01 0.  1.
        -11    1    4    4    0    0  0.50743129478E+02  0.17286344455E+03  0.16447621779E+02  0.18090649494E+03  0.00000000000E+00 0.  1.
         11    1    4    4    0    0 -0.12149632344E+02  0.13264168262E+02 -0.26322350748E+02  0.31881309174E+02  0.00000000000E+00 0. -1.
</event>
<event>
 8    1  0.6901948E-009  0.1919557E+03  0.7561462E-02  0.1156709E+00
          2   -1    0    0  501    0  0.00000000000E+00  0.00000000000E+00  0.11736012579E+04  0.11736012579E+04  0.00000000000E+00 0. -1.
         -2   -1    0    0    0  501 -0.00000000000E+00 -0.00000000000E+00 -0.33481826059E+02  0.33481826059E+02  0.00000000000E+00 0.  1.
         25    2    1    2    0    0  0.64709673678E+02 -0.15042437318E+03  0.67218488401E+03  0.70306077428E+03  0.12508836924E+03 0.  0.
         23    2    1    2    0    0 -0.64709673678E+02  0.15042437318E+03  0.46793454787E+03  0.50402230972E+03  0.90889568675E+02 0.  0.
          5    1    3    3  502    0 -0.17808997645E+01 -0.13132042095E+03  0.51066676446E+03  0.52730090203E+03  0.41800000000E+01 0. -1.
         -5    1    3    3    0  502  0.66490573442E+02 -0.19103952231E+02  0.16151811955E+03  0.17575987225E+03  0.41800000000E+01 0. -1.
        -11    1    4    4    0    0  0.16188202099E+02  0.58756349513E+02  0.20846939716E+03  0.21719543284E+03  0.00000000000E+00 0.  1.
         11    1    4    4    0    0 -0.80897875777E+02  0.91668023667E+02  0.25946515071E+03  0.28682687688E+03  0.00000000000E+00 0. -1.
</event>
<event>
 8    1  0.6901948E-009  0.9891377E+02  0.7561462E-02  0.1282597E+00
          1   -1    0    0  501    0  0.00000000000E+00  0.00000000000E+00  0.72121651992E+02  0.72121651992E+02  0.00000000000E+00 0. -1.
         -1   -1    0    0    0  501 -0.00000000000E+00 -0.00000000000E+00 -0.19363460579E+03  0.19363460579E+03  0.00000000000E+00 0.  1.
         25    2    1    2    0    0  0.38847557874E+02  0.27117953101E+02 -0.58050649567E+02  0.14581379159E+03  0.12508903936E+03 0.  0.
         23    2    1    2    0    0 -0.38847557874E+02 -0.27117953101E+02 -0.63462304230E+02  0.11994246620E+03  0.90078937637E+02 0.  0.
          5    1    3    3  502    0  0.64907498573E+02  0.24596612613E+02 -0.83773193829E+02  0.10887330769E+03  0.41800000000E+01 0. -1.
         -5    1    3    3    0  502 -0.26059940700E+02  0.25213404887E+01  0.25722544262E+02  0.36940483896E+02  0.41800000000E+01 0. -1.
        -11    1    4    4    0    0  0.23009619532E+02  0.14523099160E+02 -0.17190287384E+02  0.32184918526E+02  0.00000000000E+00 0. -1.
         11    1    4    4    0    0 -0.61857177406E+02 -0.41641052261E+02 -0.46272016846E+02  0.87757547670E+02  0.00000000000E+00 0.  1.
</event>
<event>
 8    1  0.6901948E-009  0.8436669E+02  0.7561462E-02  0.1317097E+00
         -4   -1    0    0    0  501 -0.00000000000E+00  0.00000000000E+00  0.20217807016E+03  0.20217807016E+03  0.00000000000E+00 0.  1.
          4   -1    0    0  501    0  0.00000000000E+00 -0.00000000000E+00 -0.77106057962E+02  0.77106057962E+02  0.00000000000E+00 0. -1.
         25    2    1    2    0    0  0.31476580227E+02  0.37794053453E+02  0.11175749656E+03  0.17480394308E+03  0.12509002719E+03 0.  0.
         23    2    1    2    0    0 -0.31476580227E+02 -0.37794053453E+02  0.13314515645E+02  0.10448018504E+03  0.91212209491E+02 0.  0.
          5    1    3    3  502    0 -0.31247181969E+02  0.14215347594E+02  0.10106566239E+03  0.10681855177E+03  0.41800000000E+01 0. -1.
         -5    1    3    3    0  502  0.62723762195E+02  0.23578705859E+02  0.10691834164E+02  0.67985391311E+02  0.41800000000E+01 0. -1.
        -11    1    4    4    0    0  0.11929075165E+02 -0.79024057103E+01 -0.31949815568E+02  0.35007735790E+02  0.00000000000E+00 0. -1.
         11    1    4    4    0    0 -0.43405655392E+02 -0.29891647743E+02  0.45264331213E+02  0.69472449251E+02  0.00000000000E+00 0.  1.
</event>
<event>
 8    1  0.6901948E-009  0.1243224E+03  0.7561462E-02  0.1236132E+00
          1   -1    0    0  501    0  0.00000000000E+00  0.00000000000E+00  0.45448550189E+03  0.45448550189E+03  0.00000000000E+00 0. -1.
         -1   -1    0    0    0  501 -0.00000000000E+00 -0.00000000000E+00 -0.49014321167E+02  0.49014321167E+02  0.00000000000E+00 0.  1.
         25    2    1    2    0    0  0.19296691736E+02 -0.90853370011E+02  0.29761498241E+03  0.33593005604E+03  0.12509047784E+03 0.  0.
         23    2    1    2    0    0 -0.19296691736E+02  0.90853370011E+02  0.10785619831E+03  0.16756976701E+03  0.88430595085E+02 0.  0.
          5    1    3    3  502    0 -0.21224559415E+02 -0.98981237195E+02  0.13925498760E+03  0.17221263372E+03  0.41800000000E+01 0.  1.
         -5    1    3    3    0  502  0.40521251151E+02  0.81278671837E+01  0.15835999480E+03  0.16371742233E+03  0.41800000000E+01 0.  1.
        -11    1    4    4    0    0 -0.24204673721E+01  0.88747933535E+02  0.11807510361E+03  0.14772875300E+03  0.00000000000E+00 0. -1.
         11    1    4    4    0    0 -0.16876224364E+02  0.21054364763E+01 -0.10218905300E+02  0.19841014013E+02  0.00000000000E+00 0.  1.
</event>
<event>
 8    1  0.6901948E-009  0.1009383E+03  0.7561462E-02  0.1278335E+00
          2   -1    0    0  501    0  0.00000000000E+00  0.00000000000E+00  0.14410332189E+04  0.14410332189E+04  0.00000000000E+00 0. -1.
         -2   -1    0    0    0  501 -0.00000000000E+00 -0.00000000000E+00 -0.21114421600E+02  0.21114421600E+02  0.00000000000E+00 0.  1.
         25    2    1    2    0    0  0.69524715051E+02  0.64813782809E+02  0.11638599843E+04  0.11744154879E+04  0.12508861929E+03 0.  0.
         23    2    1    2    0    0 -0.69524715051E+02 -0.64813782809E+02  0.25605881297E+03  0.28773215259E+03  0.90493996974E+02 0.  0.
          5    1    3    3  502    0  0.19515403578E+02  0.23243546228E+02  0.49921321595E+02  0.58572384004E+02  0.41800000000E+01 0.  1.
         -5    1    3    3    0  502  0.50009311473E+02  0.41570236581E+02  0.11139386627E+04  0.11158431039E+04  0.41800000000E+01 0.  1.
        -11    1    4    4    0    0 -0.52449638006E+02 -0.70685025581E+02  0.25486563765E+03  0.26963647865E+03  0.00000000000E+00 0. -1.
         11    1    4    4    0    0 -0.17075077046E+02  0.58712427718E+01  0.11931753252E+01  0.18095673935E+02  0.00000000000E+00 0.  1.
</event>
<event>
 8    1  0.6901948E-009  0.1446945E+03  0.7561462E-02  0.1207148E+00
         -1   -1    0    0    0  501 -0.00000000000E+00  0.00000000000E+00  0.13790285516E+04  0.13790285516E+04  0.00000000000E+00 0.  1.
          1   -1    0    0  501    0  0.00000000000E+00 -0.00000000000E+00 -0.19198824807E+02  0.19198824807E+02  0.00000000000E+00 0. -1.
         25    2    1    2    0    0  0.85051456282E+02  0.37304563206E+02  0.10290667560E+04  0.10407938352E+04  0.12509212030E+03 0.  0.
         23    2    1    2    0    0 -0.85051456282E+02 -0.37304563206E+02  0.33076297078E+03  0.35743354113E+03  0.98636772230E+02 0.  0.
          5    1    3    3  502    0  0.71164211062E+02  0.81662104072E+02  0.76368799356E+03  0.77134289916E+03  0.41800000000E+01 0.  1.
         -5    1    3    3    0  502  0.13887245220E+02 -0.44357540865E+02  0.26537876242E+03  0.26945093608E+03  0.41800000000E+01 0.  1.
        -11    1    4    4    0    0 -0.60950336060E+02  0.26240510504E+02  0.18675782768E+03  0.19819685683E+03  0.00000000000E+00 0.  1.
         11    1    4    4    0    0 -0.24101120222E+02 -0.63545073710E+02  0.14400514310E+03  0.15923668431E+03  0.00000000000E+00 0. -1.
</event>
<event>
 8    1  0.6901948E-009  0.1199939E+03  0.7561462E-02  0.1243107E+00
          2   -1    0    0  501    0  0.00000000000E+00  0.00000000000E+00  0.69712634806E+03  0.69712634806E+03  0.00000000000E+00 0. -1.
         -2   -1    0    0    0  501 -0.00000000000E+00 -0.00000000000E+00 -0.29504266337E+02  0.29504266337E+02  0.00000000000E+00 0.  1.
         25    2    1    2    0    0  0.57903433789E+02 -0.61839429611E+02  0.27276963523E+03  0.31181039424E+03  0.12508207447E+03 0.  0.
         23    2    1    2    0    0 -0.57903433789E+02  0.61839429611E+02  0.39485244650E+03  0.41482022016E+03  0.94817919449E+02 0.  0.
          5    1    3    3  502    0 -0.15687050983E+02  0.16935982724E+02  0.62415039182E+01  0.24276322838E+02  0.41800000000E+01 0. -1.
         -5    1    3    3    0  502  0.73590484772E+02 -0.78775412335E+02  0.26652813131E+03  0.28753407140E+03  0.41800000000E+01 0. -1.
        -11    1    4    4    0    0 -0.16939264729E+02  0.65370099407E+02  0.33787188123E+03  0.34455419996E+03  0.00000000000E+00 0. -1.
         11    1    4    4    0    0 -0.40964169060E+02 -0.35306697958E+01  0.56980565267E+02  0.70266020195E+02  0.00000000000E+00 0.  1.
</event>
<event>
 8    1  0.6901948E-009  0.5723444E+02  0.7561462E-02  0.1409818E+00
          2   -1    0    0  501    0  0.00000000000E+00  0.00000000000E+00  0.31338921071E+03  0.31338921071E+03  0.00000000000E+00 0. -1.
         -2   -1    0    0    0  501 -0.00000000000E+00 -0.00000000000E+00 -0.40760727756E+02  0.40760727756E+02  0.00000000000E+00 0.  1.
         25    2    1    2    0    0 -0.10947969371E+02  0.18066830598E+02  0.16663403734E+03  0.20943000545E+03  0.12509099240E+03 0.  0.
         23    2    1    2    0    0  0.10947969371E+02 -0.18066830598E+02  0.10599444561E+03  0.14471993301E+03  0.96243275664E+02 0.  0.
          5    1    3    3  502    0  0.16636121087E+02  0.24319657993E+02 -0.93064642702E+01  0.31181548501E+02  0.41800000000E+01 0. -1.
         -5    1    3    3    0  502 -0.27584090458E+02 -0.62528273953E+01  0.17594050161E+03  0.17824845695E+03  0.41800000000E+01 0. -1.
        -11    1    4    4    0    0 -0.20865813433E+02 -0.36218229090E+01 -0.10113550840E+02  0.23468781008E+02  0.00000000000E+00 0.  1.
         11    1    4    4    0    0  0.31813782803E+02 -0.14445007689E+02  0.11610799645E+03  0.12125115201E+03  0.00000000000E+00 0. -1.
</event>
<event>
 8    1  0.6901948E-009  0.6660556E+02  0.7561462E-02  0.1372032E+00
          1   -1    0    0  501    0  0.00000000000E+00  0.00000000000E+00  0.81330241682E+03  0.81330241682E+03  0.00000000000E+00 0. -1.
         -1   -1    0    0    0  501 -0.00000000000E+00 -0.00000000000E+00 -0.18281632388E+02  0.18281632388E+02  0.00000000000E+00 0.  1.
         25    2    1    2    0    0  0.49017947278E+02 -0.22854469844E+02  0.55848098658E+03  0.57486859026E+03  0.12509115774E+03 0.  0.
         23    2    1    2    0    0 -0.49017947278E+02  0.22854469844E+02  0.23653979785E+03  0.25671545895E+03  0.83825204742E+02 0.  0.
          5    1    3    3  502    0  0.35294258825E+02 -0.11845533223E+02  0.55523349969E+03  0.55649592356E+03  0.41800000000E+01 0. -1.
         -5    1    3    3    0  502  0.13723688453E+02 -0.11008936621E+02  0.32474868884E+01  0.18372666692E+02  0.41800000000E+01 0. -1.
        -11    1    4    4    0    0 -0.34971466542E+02 -0.14422841225E+02  0.35875141226E+02  0.52134897900E+02  0.00000000000E+00 0.  1.
         11    1    4    4    0    0 -0.14046480736E+02  0.37277311069E+02  0.20066465662E+03  0.20458056105E+03  0.00000000000E+00 0. -1.
</event>
<event>
 8    1  0.6901948E-009  0.1937593E+03  0.7561462E-02  0.1155114E+00
          2   -1    0    0  501    0  0.00000000000E+00  0.00000000000E+00  0.22516238610E+03  0.22516238610E+03  0.00000000000E+00 0. -1.
         -2   -1    0    0    0  501 -0.00000000000E+00 -0.00000000000E+00 -0.22029229190E+03  0.22029229190E+03  0.00000000000E+00 0.  1.
         25    2    1    2    0    0  0.19953612384E+02 -0.18974194684E+03  0.40740443350E+02  0.23172699417E+03  0.12504984232E+03 0.  0.
         23    2    1    2    0    0 -0.19953612384E+02  0.18974194684E+03 -0.35870349153E+02  0.21372768384E+03  0.89401833620E+02 0.  0.
          5    1    3    3  502    0  0.21322414558E+01 -0.16780931209E+03 -0.15558878675E+02  0.16859437353E+03  0.41800000000E+01 0. -1.
         -5    1    3    3    0  502  0.17821370928E+02 -0.21932634743E+02  0.56299322025E+02  0.63132620641E+02  0.41800000000E+01 0. -1.
        -11    1    4    4    0    0 -0.19170076581E+02  0.13768252749E+03 -0.65665476025E+02  0.15373979626E+03  0.00000000000E+00 0.  1.
         11    1    4    4    0    0 -0.78353580255E+00  0.52059419346E+02  0.29795126872E+02  0.59987887580E+02  0.00000000000E+00 0. -1.
</event>
<event>
 8    1  0.6901948E-009  0.1308433E+03  0.7561462E-02  0.1226210E+00
          1   -1    0    0  501    0  0.00000000000E+00  0.00000000000E+00  0.44993860398E+03  0.44993860398E+03  0.00000000000E+00 0. -1.
         -1   -1    0    0    0  501 -0.00000000000E+00 -0.00000000000E+00 -0.48618325623E+02  0.48618325623E+02  0.00000000000E+00 0.  1.
         25    2    1    2    0    0 -0.33314725278E+02 -0.89467634970E+02  0.16832728729E+03  0.23042771335E+03  0.12509407183E+03 0.  0.
         23    2    1    2    0    0  0.33314725278E+02  0.89467634970E+02  0.23299299106E+03  0.26812921625E+03  0.92158635480E+02 0.  0.
          5    1    3    3  502    0  0.29208018852E+02 -0.48050827849E+02  0.13862755821E+03  0.14965648238E+03  0.41800000000E+01 0.  1.
         -5    1    3    3    0  502 -0.62522744130E+02 -0.41416807121E+02  0.29699729079E+02  0.80771230974E+02  0.41800000000E+01 0.  1.
        -11    1    4    4    0    0  0.62160671824E+02  0.76471877382E+02  0.15173574006E+03  0.18092990898E+03  0.00000000000E+00 0.  1.
         11    1    4    4    0    0 -0.28845946546E+02  0.12995757588E+02  0.81257251004E+02  0.87199307269E+02  0.00000000000E+00 0. -1.
</event>
<event>
 8    1  0.6901948E-009  0.1309994E+03  0.7561462E-02  0.1225980E+00
         -2   -1    0    0    0  501 -0.00000000000E+00  0.00000000000E+00  0.13810306579E+02  0.13810306579E+02  0.00000000000E+00 0.  1.
          2   -1    0    0  501    0  0.00000000000E+00 -0.00000000000E+00 -0.14764007081E+04  0.14764007081E+04  0.00000000000E+00 0. -1.
         25    2    1    2    0    0 -0.20234079584E+02 -0.89295913537E+02 -0.85586493866E+03  0.86978993318E+03  0.12508619627E+03 0.  0.
         23    2    1    2    0    0  0.20234079584E+02  0.89295913537E+02 -0.60672546290E+03  0.62042108153E+03  0.91778826125E+02 0.  0.
          5    1    3    3  502    0 -0.53342347378E+02 -0.93963757973E+02 -0.46194761187E+03  0.47443404426E+03  0.41800000000E+01 0.  1.
         -5    1    3    3    0  502  0.33108267794E+02  0.46678444359E+01 -0.39391732678E+03  0.39535588893E+03  0.41800000000E+01 0.  1.
        -11    1    4    4    0    0  0.47140360054E+02  0.77683463088E+02 -0.53931139462E+03  0.54691289467E+03  0.00000000000E+00 0. -1.
         11    1    4    4    0    0 -0.26906280470E+02  0.11612450449E+02 -0.67414068274E+02  0.73508186860E+02  0.00000000000E+00 0.  1.
</event>
<event>
 8    1  0.6901948E-009  0.7656739E+02  0.7561462E-02  0.1339085E+00
          1   -1    0    0  501    0  0.00000000000E+00  0.00000000000E+00  0.26335952096E+03  0.26335952096E+03  0.00000000000E+00 0. -1.
         -1   -1    0    0    0  501 -0.00000000000E+00 -0.00000000000E+00 -0.46608397866E+02  0.46608397866E+02  0.00000000000E+00 0.  1.
         25    2    1    2    0    0 -0.19323453463E+00  0.20755117340E+02  0.13801915527E+03  0.18742318237E+03  0.12508936738E+03 0.  0.
         23    2    1    2    0    0  0.19323453463E+00 -0.20755117340E+02  0.78731967830E+02  0.12254473646E+03  0.91584264159E+02 0.  0.
          5    1    3    3  502    0 -0.13880276833E+02  0.57684397512E+02  0.19706526340E+02  0.62657572421E+02  0.41800000000E+01 0. -1.
         -5    1    3    3    0  502  0.13687042298E+02 -0.36929280173E+02  0.11831262893E+03  0.12476560994E+03  0.41800000000E+01 0. -1.
        -11    1    4    4    0    0 -0.19445341372E+02  0.64602736737E+01  0.85829339258E+02  0.88241327701E+02  0.00000000000E+00 0. -1.
         11    1    4    4    0    0  0.19638575907E+02 -0.27215391013E+02 -0.70973714279E+01  0.34303408764E+02  0.00000000000E+00 0.  1.
</event>
<event>
 8    1  0.6901948E-009  0.1138500E+03  0.7561462E-02  0.1253602E+00
          2   -1    0    0  501    0  0.00000000000E+00  0.00000000000E+00  0.26521417507E+03  0.26521417507E+03  0.00000000000E+00 0. -1.
         -2   -1    0    0    0  501 -0.00000000000E+00 -0.00000000000E+00 -0.86423523961E+02  0.86423523961E+02  0.00000000000E+00 0.  1.
         25    2    1    2    0    0 -0.10715841893E+02  0.40358859778E+02 -0.14912335449E+02  0.13271440312E+03  0.12508824172E+03 0.  0.
         23    2    1    2    0    0  0.10715841893E+02 -0.40358859778E+02  0.19370298656E+03  0.21892329592E+03  0.93074677881E+02 0.  0.
          5    1    3    3  502    0 -0.15948821810E+02  0.84639128645E+02 -0.16966775174E+02  0.87883393623E+02  0.41800000000E+01 0.  1.
         -5    1    3    3    0  502  0.52329799170E+01 -0.44280268866E+02  0.20544397255E+01  0.44831009494E+02  0.41800000000E+01 0.  1.
        -11    1    4    4    0    0 -0.27160637039E+02  0.13902979580E+02  0.97467744907E+02  0.10213204366E+03  0.00000000000E+00 0. -1.
         11    1    4    4    0    0  0.37876478932E+02 -0.54261839358E+02  0.96235241652E+02  0.11679125225E+03  0.00000000000E+00 0.  1.
</event>
<event>
 8    1  0.6901948E-009  0.1213178E+03  0.7561462E-02  0.1240939E+00
          1   -1    0    0  501    0  0.00000000000E+00  0.00000000000E+00  0.13954259649E+03  0.13954259649E+03  0.00000000000E+00 0. -1.
         -1   -1    0    0    0  501 -0.00000000000E+00 -0.00000000000E+00 -0.14347464140E+03  0.14347464140E+03  0.00000000000E+00 0.  1.
         25    2    1    2    0    0 -0.43737841861E+02  0.49143533066E+02  0.51685386361E+02  0.15048923366E+03  0.12509014602E+03 0.  0.
         23    2    1    2    0    0  0.43737841861E+02 -0.49143533066E+02 -0.55617431276E+02  0.13252800423E+03  0.10070892508E+03 0.  0.
          5    1    3    3  502    0  0.27780631604E+02  0.58620989520E+02  0.42447115276E+02  0.77636421220E+02  0.41800000000E+01 0. -1.
         -5    1    3    3    0  502 -0.71518473465E+02 -0.94774564539E+01  0.92382710852E+01  0.72852812439E+02  0.41800000000E+01 0. -1.
        -11    1    4    4    0    0  0.67783564671E+02 -0.27973503086E+02 -0.61418650183E+01  0.73585671298E+02  0.00000000000E+00 0. -1.
         11    1    4    4    0    0 -0.24045722811E+02 -0.21170029980E+02 -0.49475566258E+02  0.58942332931E+02  0.00000000000E+00 0.  1.
</event>
<event>
 8    1  0.6901948E-009  0.1082863E+03  0.7561462E-02  0.1263777E+00
         -2   -1    0    0    0  501 -0.00000000000E+00  0.00000000000E+00  0.33577432760E+03  0.33577432760E+03  0.00000000000E+00 0. -1.
          2   -1    0    0  501    0  0.00000000000E+00 -0.00000000000E+00 -0.50482006981E+02  0.50482006981E+02  0.00000000000E+00 0.  1.
         25    2    1    2    0    0 -0.43059084134E+00  0.10878726840E+02  0.53261137702E+02  0.13634118105E+03  0.12503454224E+03 0.  0.
         23    2    1    2    0    0  0.43059084134E+00 -0.10878726840E+02  0.23203118292E+03  0.24991515354E+03  0.92198600935E+02 0.  0.
          5    1    3    3  502    0 -0.52795085488E+02 -0.28216439243E+02  0.24340431206E+02  0.64756601876E+02  0.41800000000E+01 0. -1.
         -5    1    3    3    0  502  0.52364494647E+02  0.39095166083E+02  0.28920706496E+02  0.71584579170E+02  0.41800000000E+01 0. -1.
        -11    1    4    4    0    0  0.34270272929E+02  0.24498511304E+02  0.83512735716E+02  0.93536119705E+02  0.00000000000E+00 0.  1.
         11    1    4    4    0    0 -0.33839682088E+02 -0.35377238144E+02  0.14851844720E+03  0.15637903383E+03  0.00000000000E+00 0. -1.
</event>
<event>
 8    1  0.6901948E-009  0.7643554E+02  0.7561462E-02  0.1339482E+00
          1   -1    0    0  501    0  0.00000000000E+00  0.00000000000E+00  0.33764542907E+03  0.33764542907E+03  0.00000000000E+00 0. -1.
         -1   -1    0    0    0  501 -0.00000000000E+00 -0.00000000000E+00 -0.50960611577E+02  0.50960611577E+02  0.00000000000E+00 0.  1.
         25    2    1    2    0    0  0.46506690525E+02  0.17408999576E+02  0.24004311624E+03  0.27519854859E+03  0.12509035918E+03 0.  0.
         23    2    1    2    0    0 -0.46506690525E+02 -0.17408999576E+02  0.46641701249E+02  0.11340749206E+03  0.90663473513E+02 0.  0.
          5    1    3    3  502    0  0.18979516364E+02  0.41002306331E+01 -0.10701762568E+02  0.22561783057E+02  0.41800000000E+01 0. -1.
         -5    1    3    3    0  502  0.27527174161E+02  0.13308768943E+02  0.25074487881E+03  0.25263676553E+03  0.41800000000E+01 0. -1.
        -11    1    4    4    0    0 -0.73316013631E+02 -0.17343514399E+02  0.41819380514E+02  0.86167835838E+02  0.00000000000E+00 0.  1.
         11    1    4    4    0    0  0.26809323106E+02 -0.65485177106E-01  0.48223207355E+01  0.27239656220E+02  0.00000000000E+00 0. -1.
</event>
<event>
 8    1  0.6901948E-009  0.1780019E+03  0.7561462E-02  0.1169751E+00
          2   -1    0    0  501    0  0.00000000000E+00  0.00000000000E+00  0.23207088266E+03  0.23207088266E+03  0.00000000000E+00 0.  1.
         -2   -1    0    0    0  501 -0.00000000000E+00 -0.00000000000E+00 -0.34994151811E+03  0.34994151811E+03  0.00000000000E+00 0. -1.
         25    2    1    2    0    0 -0.21683328342E+02  0.17026908971E+03  0.14334474783E+03  0.25623606322E+03  0.12508986258E+03 0.  0.
         23    2    1    2    0    0  0.21683328342E+02 -0.17026908971E+03 -0.26121538329E+03  0.32577633756E+03  0.91842343214E+02 0.  0.
          5    1    3    3  502    0 -0.63858941609E+01  0.76656059257E+01 -0.21549544986E+02  0.24112163892E+02  0.41800000000E+01 0. -1.
         -5    1    3    3    0  502 -0.15297434181E+02  0.16260348379E+03  0.16489429282E+03  0.23212389932E+03  0.41800000000E+01 0. -1.
        -11    1    4    4    0    0  0.34423005362E+01 -0.16156245688E+03 -0.17918033902E+03  0.24128794168E+03  0.00000000000E+00 0.  1.
         11    1    4    4    0    0  0.18241027805E+02 -0.87066328285E+01 -0.82035044266E+02  0.84488395880E+02  0.00000000000E+00 0. -1.
</event>
<event>
 8    1  0.6901948E-009  0.6583093E+02  0.7561462E-02  0.1374873E+00
         -1   -1    0    0    0  501 -0.00000000000E+00  0.00000000000E+00  0.66986817937E+02  0.66986817937E+02  0.00000000000E+00 0.  1.
          1   -1    0    0  501    0  0.00000000000E+00 -0.00000000000E+00 -0.36548501040E+03  0.36548501040E+03  0.00000000000E+00 0. -1.
         25    2    1    2    0    0 -0.12185130877E+02 -0.10517266303E+02 -0.63383332236E+01  0.12628243831E+03  0.12509192401E+03 0.  0.
         23    2    1    2    0    0  0.12185130877E+02  0.10517266303E+02 -0.29215985924E+03  0.30618939003E+03  0.90196834254E+02 0.  0.
          5    1    3    3  502    0 -0.26090638163E+01 -0.24278898931E+02 -0.62654823405E+02  0.67374857649E+02  0.41800000000E+01 0.  1.
         -5    1    3    3    0  502 -0.95760670607E+01  0.13761632628E+02  0.56316490182E+02  0.58907580661E+02  0.41800000000E+01 0.  1.
        -11    1    4    4    0    0 -0.14079720117E+02  0.44491593694E+02 -0.12000004822E+03  0.12875461934E+03  0.00000000000E+00 0.  1.
         11    1    4    4    0    0  0.26264850993E+02 -0.33974327391E+02 -0.17215981102E+03  0.17743477069E+03  0.00000000000E+00 0. -1.
</event>
<event>
 8    1  0.6901948E-009  0.1303947E+03  0.7561462E-02  0.1226871E+00
          3   -1    0    0  501    0  0.00000000000E+00  0.00000000000E+00  0.27447412636E+02  0.27447412636E+02  0.00000000000E+00 0. -1.
         -3   -1    0    0    0  501 -0.00000000000E+00 -0.00000000000E+00 -0.80722759306E+03  0.80722759306E+03  0.00000000000E+00 0.  1.
         25    2    1    2    0    0 -0.34992889869E+02 -0.91402335428E+02 -0.49649796622E+03  0.52128258874E+03  0.12508564105E+03 0.  0.
         23    2    1    2    0    0  0.34992889869E+02  0.91402335428E+02 -0.28328221420E+03  0.31339241696E+03  0.91581138120E+02 0.  0.
          5    1    3    3  502    0 -0.39342805472E+02 -0.39643616090E+01 -0.33658856027E+03  0.33892905424E+03  0.41800000000E+01 0. -1.
         -5    1    3    3    0  502  0.43499156022E+01 -0.87437973819E+02 -0.15990940595E+03  0.18235353450E+03  0.41800000000E+01 0. -1.
        -11    1    4    4    0    0 -0.26657210085E+02  0.56655300914E+02 -0.11760998078E+03  0.13323864886E+03  0.00000000000E+00 0.  1.
         11    1    4    4    0    0  0.61650099955E+02  0.34747034514E+02 -0.16567223342E+03  0.18015376809E+03  0.00000000000E+00 0. -1.
</event>
<event>
 8    1  0.6901948E-009  0.1353122E+03  0.7561462E-02  0.1219780E+00
          4   -1    0    0  501    0  0.00000000000E+00  0.00000000000E+00  0.13835101421E+03  0.13835101421E+03  0.00000000000E+00 0. -1.
         -4   -1    0    0    0  501 -0.00000000000E+00 -0.00000000000E+00 -0.17138196992E+03  0.17138196992E+03  0.00000000000E+00 0.  1.
         25    2    1    2    0    0  0.37586194137E+02 -0.79414233158E+02  0.47378764526E+02  0.16003899049E+03  0.12509351995E+03 0.  0.
         23    2    1    2    0    0 -0.37586194137E+02  0.79414233158E+02 -0.80409720239E+02  0.14969399364E+03  0.90682005961E+02 0.  0.
          5    1    3    3  502    0  0.58323652994E+02  0.11438878803E+02  0.18442595188E+02  0.62370651464E+02  0.41800000000E+01 0. -1.
         -5    1    3    3    0  502 -0.20737458857E+02 -0.90853111961E+02  0.28936169338E+02  0.97668339029E+02  0.41800000000E+01 0. -1.
        -11    1    4    4    0    0  0.18478110054E+02 -0.23427694076E+01  0.45066978119E+01  0.19163492501E+02  0.00000000000E+00 0. -1.
         11    1    4    4    0    0 -0.56064304191E+02  0.81757002566E+02 -0.84916418051E+02  0.13053050114E+03  0.00000000000E+00 0.  1.
</event>
<event>
 8    1  0.6901948E-009  0.7272749E+02  0.7561462E-02  0.1351056E+00
          1   -1    0    0  501    0  0.00000000000E+00  0.00000000000E+00  0.12963797535E+03  0.12963797535E+03  0.00000000000E+00 0. -1.
         -1   -1    0    0    0  501 -0.00000000000E+00 -0.00000000000E+00 -0.10008733433E+03  0.10008733433E+03  0.00000000000E+00 0.  1.
         25    2    1    2    0    0 -0.12658463782E+02  0.32132314818E+02  0.35814224187E+02  0.13461641668E+03  0.12508476575E+03 0.  0.
         23    2    1    2    0    0  0.12658463782E+02 -0.32132314818E+02 -0.62635831631E+01  0.95108893006E+02  0.88395399733E+02 0.  0.
          5    1    3    3  502    0 -0.13645768909E+02 -0.51179010228E+01  0.77255383420E+02  0.78729070790E+02  0.41800000000E+01 0. -1.
         -5    1    3    3    0  502  0.98730512669E+00  0.37250215841E+02 -0.41441159233E+02  0.55887345886E+02  0.41800000000E+01 0. -1.
        -11    1    4    4    0    0 -0.37048767517E+02 -0.17543706763E+02 -0.12680702395E+02  0.42909125309E+02  0.00000000000E+00 0.  1.
         11    1    4    4    0    0  0.49707231300E+02 -0.14588608055E+02  0.64171192323E+01  0.52199767698E+02  0.00000000000E+00 0. -1.
</event>
<event>
 8    1  0.6901948E-009  0.1286485E+03  0.7561462E-02  0.1229475E+00
          1   -1    0    0  501    0  0.00000000000E+00  0.00000000000E+00  0.40308024490E+03  0.40308024490E+03  0.00000000000E+00 0. -1.
         -1   -1    0    0    0  501 -0.00000000000E+00 -0.00000000000E+00 -0.53936498674E+02  0.53936498674E+02  0.00000000000E+00 0.  1.
         25    2    1    2    0    0  0.21715236014E+02 -0.98339831859E+02  0.17722492954E+03  0.23916229642E+03  0.12509058468E+03 0.  0.
         23    2    1    2    0    0 -0.21715236014E+02  0.98339831859E+02  0.17191881669E+03  0.21785444715E+03  0.88103385897E+02 0.  0.
          5    1    3    3  502    0  0.56599180379E+02 -0.52511548029E+02  0.33490205339E+02  0.84261474884E+02  0.41800000000E+01 0.  1.
         -5    1    3    3    0  502 -0.34883944365E+02 -0.45828283829E+02  0.14373472420E+03  0.15490082154E+03  0.41800000000E+01 0.  1.
        -11    1    4    4    0    0 -0.46023629400E+02  0.48980921575E+02  0.13724922001E+03  0.15282229397E+03  0.00000000000E+00 0. -1.
         11    1    4    4    0    0  0.24308393386E+02  0.49358910283E+02  0.34669596684E+02  0.65032153183E+02  0.00000000000E+00 0.  1.
</event>
<event>
 8    1  0.6901948E-009  0.1319149E+03  0.7561462E-02  0.1224642E+00
         -1   -1    0    0    0  501 -0.00000000000E+00  0.00000000000E+00  0.45518744017E+02  0.45518744017E+02  0.00000000000E+00 0.  1.
          1   -1    0    0  501    0  0.00000000000E+00 -0.00000000000E+00 -0.42262685761E+03  0.42262685761E+03  0.00000000000E+00 0. -1.
         25    2    1    2    0    0  0.86420190332E+02 -0.11853625591E+02 -0.22682560823E+03  0.27332453562E+03  0.12508991761E+03 0.  0.
         23    2    1    2    0    0 -0.86420190332E+02  0.11853625591E+02 -0.15028250537E+03  0.19482106601E+03  0.88099140768E+02 0.  0.
          5    1    3    3  502    0 -0.32317360658E+02 -0.19364520278E+00 -0.39715192660E+02  0.51373322127E+02  0.41800000000E+01 0. -1.
         -5    1    3    3    0  502  0.11873755099E+03 -0.11659980389E+02 -0.18711041557E+03  0.22195121349E+03  0.41800000000E+01 0. -1.
        -11    1    4    4    0    0 -0.18902750917E+02 -0.27756723678E+02 -0.89875131288E+02  0.95944196936E+02  0.00000000000E+00 0. -1.
         11    1    4    4    0    0 -0.67517439415E+02  0.39610349269E+02 -0.60407374081E+02  0.98876869073E+02  0.00000000000E+00 0.  1.
</event>
<event>
 8    1  0.6901948E-009  0.1016751E+03  0.7561462E-02  0.1276812E+00
         -2   -1    0    0    0  501 -0.00000000000E+00  0.00000000000E+00  0.46031595428E+02  0.46031595428E+02  0.00000000000E+00 0.  1.
          2   -1    0    0  501    0  0.00000000000E+00 -0.00000000000E+00 -0.27372020940E+03  0.27372020940E+03  0.00000000000E+00 0. -1.
         25    2    1    2    0    0  0.23238471135E+02  0.18815472565E+02 -0.12744321308E+03  0.18106073579E+03  0.12508864431E+03 0.  0.
         23    2    1    2    0    0 -0.23238471135E+02 -0.18815472565E+02 -0.10024540090E+03  0.13869106904E+03  0.91060549539E+02 0.  0.
          5    1    3    3  502    0  0.70985378026E+02  0.31928087336E+02 -0.88466371882E+02  0.11790715843E+03  0.41800000000E+01 0. -1.
         -5    1    3    3    0  502 -0.47746906892E+02 -0.13112614771E+02 -0.38976841196E+02  0.63153577361E+02  0.41800000000E+01 0. -1.
        -11    1    4    4    0    0 -0.44578094443E+02  0.36495270167E+01 -0.97881197994E+02  0.10761623703E+03  0.00000000000E+00 0. -1.
         11    1    4    4    0    0  0.21339623309E+02 -0.22464999581E+02 -0.23642029015E+01  0.31074832011E+02  0.00000000000E+00 0.  1.
</event>
<event>
 8    1  0.6901948E-009  0.9438643E+02  0.7561462E-02  0.1292564E+00
         -2   -1    0    0    0  501 -0.00000000000E+00  0.00000000000E+00  0.60591895311E+02  0.60591895311E+02  0.00000000000E+00 0.  1.
          2   -1    0    0  501    0  0.00000000000E+00 -0.00000000000E+00 -0.22986713885E+03  0.22986713885E+03  0.00000000000E+00 0. -1.
         25    2    1    2    0    0  0.55042042492E+01 -0.45719742405E+02 -0.10037359187E+03  0.16685999769E+03  0.12508720868E+03 0.  0.
         23    2    1    2    0    0 -0.55042042492E+01  0.45719742405E+02 -0.68901651677E+02  0.12359903647E+03  0.91698926399E+02 0.  0.
          5    1    3    3  502    0 -0.33143626629E+02 -0.31847607865E+02  0.11542170087E+02  0.47575878375E+02  0.41800000000E+01 0.  1.
         -5    1    3    3    0  502  0.38647830878E+02 -0.13872134540E+02 -0.11191576195E+03  0.11928411932E+03  0.41800000000E+01 0.  1.
        -11    1    4    4    0    0 -0.39101493102E+01  0.73457022257E+02 -0.40961384615E+02  0.84196546343E+02  0.00000000000E+00 0.  1.
         11    1    4    4    0    0 -0.15940549389E+01 -0.27737279853E+02 -0.27940267062E+02  0.39402490128E+02  0.00000000000E+00 0. -1.
</event>
<event>
 8    1  0.6901948E-009  0.1204795E+03  0.7561462E-02  0.1242308E+00
          2   -1    0    0  501    0  0.00000000000E+00  0.00000000000E+00  0.27856509257E+03  0.27856509257E+03  0.00000000000E+00 0. -1.
         -2   -1    0    0    0  501 -0.00000000000E+00 -0.00000000000E+00 -0.64748065368E+02  0.64748065368E+02  0.00000000000E+00 0.  1.
         25    2    1    2    0    0  0.15134687162E+01 -0.79281812739E+02  0.99661750830E+02  0.17851679642E+03  0.12509150893E+03 0.  0.
         23    2    1    2    0    0 -0.15134687162E+01  0.79281812739E+02  0.11415527638E+03  0.16479636152E+03  0.88535400984E+02 0.  0.
          5    1    3    3  502    0  0.12540893237E+02  0.24458185854E+02 -0.76080980666E+01  0.28824163729E+02  0.41800000000E+01 0. -1.
         -5    1    3    3    0  502 -0.11027424521E+02 -0.10373999859E+03  0.10726984890E+03  0.14969263269E+03  0.41800000000E+01 0. -1.
        -11    1    4    4    0    0  0.35923440916E+02  0.29638314681E+02  0.17259738057E+02  0.49667110467E+02  0.00000000000E+00 0.  1.
         11    1    4    4    0    0 -0.37436909632E+02  0.49643498058E+02  0.96895538318E+02  0.11512925105E+03  0.00000000000E+00 0. -1.
</event>
<event>
 8    1  0.6901948E-009  0.1178080E+03  0.7561462E-02  0.1246758E+00
         -2   -1    0    0    0  501 -0.00000000000E+00  0.00000000000E+00  0.56392120444E+03  0.56392120444E+03  0.00000000000E+00 0. -1.
          2   -1    0    0  501    0  0.00000000000E+00 -0.00000000000E+00 -0.36207992119E+02  0.36207992119E+02  0.00000000000E+00 0.  1.
         25    2    1    2    0    0 -0.81121668591E+02 -0.11346434278E+02  0.20228634358E+03  0.25154864441E+03  0.12508992373E+03 0.  0.
         23    2    1    2    0    0  0.81121668591E+02  0.11346434278E+02  0.32542686874E+03  0.34858055215E+03  0.94320134408E+02 0.  0.
          5    1    3    3  502    0 -0.11123443676E+03 -0.12273215835E+02  0.12155611190E+03  0.16527883255E+03  0.41800000000E+01 0. -1.
         -5    1    3    3    0  502  0.30112768170E+02  0.92678155715E+00  0.80730231681E+02  0.86269811859E+02  0.41800000000E+01 0. -1.
        -11    1    4    4    0    0  0.44301653478E+02 -0.16261726268E+02  0.47820492095E+02  0.67185412898E+02  0.00000000000E+00 0.  1.
         11    1    4    4    0    0  0.36820015113E+02  0.27608160545E+02  0.27760637665E+03  0.28139513925E+03  0.00000000000E+00 0. -1.
</event>
<event>
 8    1  0.6901948E-009  0.1402001E+03  0.7561462E-02  0.1213060E+00
          1   -1    0    0  501    0  0.00000000000E+00  0.00000000000E+00  0.28647120669E+03  0.28647120669E+03  0.00000000000E+00 0. -1.
         -1   -1    0    0    0  501 -0.00000000000E+00 -0.00000000000E+00 -0.97289357619E+02  0.97289357619E+02  0.00000000000E+00 0.  1.
         25    2    1    2    0    0 -0.12670599070E+03  0.10539765140E+02  0.10808640694E+03  0.20855476361E+03  0.12508766258E+03 0.  0.
         23    2    1    2    0    0  0.12670599070E+03 -0.10539765140E+02  0.81095442134E+02  0.17520580070E+03  0.89191407301E+02 0.  0.
          5    1    3    3  502    0 -0.95162457562E+02  0.11819166241E+02  0.13582868510E+03  0.16632044407E+03  0.41800000000E+01 0. -1.
         -5    1    3    3    0  502 -0.31543533138E+02 -0.12794011019E+01 -0.27742278155E+02  0.42234319543E+02  0.41800000000E+01 0. -1.
        -11    1    4    4    0    0  0.86868125648E+01  0.27287938684E+02  0.31759979977E+01  0.28812831750E+02  0.00000000000E+00 0.  1.
         11    1    4    4    0    0  0.11801917813E+03 -0.37827703824E+02  0.77919444136E+02  0.14639296895E+03  0.00000000000E+00 0. -1.
</event>
<event>
 8    1  0.6901948E-009  0.1573916E+03  0.7561462E-02  0.1191673E+00
         -2   -1    0    0    0  501 -0.00000000000E+00  0.00000000000E+00  0.24402203147E+02  0.24402203147E+02  0.00000000000E+00 0.  1.
          2   -1    0    0  501    0  0.00000000000E+00 -0.00000000000E+00 -0.15298528127E+04  0.15298528127E+04  0.00000000000E+00 0. -1.
         25    2    1    2    0    0  0.98368781663E+02 -0.11447695729E+03 -0.99785234457E+03  0.10169261963E+04  0.12509275022E+03 0.  0.
         23    2    1    2    0    0 -0.98368781663E+02  0.11447695729E+03 -0.50759826494E+03  0.53732881953E+03  0.91021265466E+02 0.  0.
          5    1    3    3  502    0  0.56584663498E+02 -0.90075316184E+02 -0.91277559652E+03  0.91896253935E+03  0.41800000000E+01 0. -1.
         -5    1    3    3    0  502  0.41784118165E+02 -0.24401641107E+02 -0.85076748043E+02  0.97963656920E+02  0.41800000000E+01 0. -1.
        -11    1    4    4    0    0 -0.60880850547E+02  0.10454242024E+03 -0.46146915601E+03  0.47706328463E+03  0.00000000000E+00 0.  1.
         11    1    4    4    0    0 -0.37487931116E+02  0.99345370542E+01 -0.46129108932E+02  0.60265534899E+02  0.00000000000E+00 0. -1.
</event>
<event>
 8    1  0.6901948E-009  0.9950460E+02  0.7561462E-02  0.1281341E+00
         -2   -1    0    0    0  501 -0.00000000000E+00  0.00000000000E+00  0.70669066832E+02  0.70669066832E+02  0.00000000000E+00 0. -1.
          2   -1    0    0  501    0  0.00000000000E+00 -0.00000000000E+00 -0.18277284752E+03  0.18277284752E+03  0.00000000000E+00 0.  1.
         25    2    1    2    0    0 -0.24373088068E+02 -0.14186788061E+02 -0.42019565358E+02  0.13493779160E+03  0.12508897374E+03 0.  0.
         23    2    1    2    0    0  0.24373088068E+02  0.14186788061E+02 -0.70084215325E+02  0.11850412275E+03  0.91302341118E+02 0.  0.
          5    1    3    3  502    0  0.39723366693E+02 -0.26735446867E+02 -0.49582640174E+02  0.69055344379E+02  0.41800000000E+01 0. -1.
         -5    1    3    3    0  502 -0.64096454762E+02  0.12548658806E+02  0.75630748160E+01  0.65882447218E+02  0.41800000000E+01 0. -1.
        -11    1    4    4    0    0 -0.27002950665E+02  0.20267822344E+02 -0.31537747488E+01  0.33910031884E+02  0.00000000000E+00 0. -1.
         11    1    4    4    0    0  0.51376038733E+02 -0.60810342833E+01 -0.66930440576E+02  0.84594090867E+02  0.00000000000E+00 0.  1.
</event>
<event>
 8    1  0.6901948E-009  0.1302496E+03  0.7561462E-02  0.1227086E+00
         -1   -1    0    0    0  501 -0.00000000000E+00  0.00000000000E+00  0.56979478147E+03  0.56979478147E+03  0.00000000000E+00 0.  1.
          1   -1    0    0  501    0  0.00000000000E+00 -0.00000000000E+00 -0.49131918830E+02  0.49131918830E+02  0.00000000000E+00 0. -1.
         25    2    1    2    0    0 -0.10211596486E+03 -0.31811171206E+02  0.14892122187E+03  0.22195767660E+03  0.12509220194E+03 0.  0.
         23    2    1    2    0    0  0.10211596486E+03  0.31811171206E+02  0.37174164077E+03  0.39696902370E+03  0.89179243103E+02 0.  0.
          5    1    3    3  502    0 -0.62790874349E+02 -0.66557329044E+02  0.37977590313E+02  0.99158165156E+02  0.41800000000E+01 0. -1.
         -5    1    3    3    0  502 -0.39325090512E+02  0.34746157838E+02  0.11094363156E+03  0.12279951145E+03  0.41800000000E+01 0. -1.
        -11    1    4    4    0    0  0.34368841145E+02  0.34179417537E+02  0.56142073263E+02  0.74171303177E+02  0.00000000000E+00 0. -1.
         11    1    4    4    0    0  0.67747123717E+02 -0.23682463314E+01  0.31559956751E+03  0.32279772052E+03  0.00000000000E+00 0.  1.
</event>
<event>
 8    1  0.6901948E-009  0.1453284E+03  0.7561462E-02  0.1206334E+00
         -3   -1    0    0    0  501 -0.00000000000E+00  0.00000000000E+00  0.90528354724E+02  0.90528354724E+02  0.00000000000E+00 0.  1.
          3   -1    0    0  501    0  0.00000000000E+00 -0.00000000000E+00 -0.31967968725E+03  0.31967968725E+03  0.00000000000E+00 0. -1.
         25    2    1    2    0    0 -0.93248398620E+02  0.75996248684E+02 -0.61927388665E+02  0.18426336050E+03  0.12508913181E+03 0.  0.
         23    2    1    2    0    0  0.93248398620E+02 -0.75996248684E+02 -0.16722394386E+03  0.22594468147E+03  0.92824878271E+02 0.  0.
          5    1    3    3  502    0 -0.11387949353E+03  0.29120456253E+02 -0.23116548712E+02  0.11986820780E+03  0.41800000000E+01 0.  1.
         -5    1    3    3    0  502  0.20631094906E+02  0.46875792431E+02 -0.38810839952E+02  0.64395152697E+02  0.41800000000E+01 0.  1.
        -11    1    4    4    0    0  0.17094382708E+02 -0.57138509296E+01 -0.10181765314E+03  0.10340067942E+03  0.00000000000E+00 0. -1.
         11    1    4    4    0    0  0.76154015912E+02 -0.70282397755E+02 -0.65406290714E+02  0.12254400205E+03  0.00000000000E+00 0.  1.
</event>
<event>
 8    1  0.6901948E-009  0.1211944E+03  0.7561462E-02  0.1241140E+00
         -1   -1    0    0    0  501 -0.00000000000E+00  0.00000000000E+00  0.29978576674E+02  0.29978576674E+02  0.00000000000E+00 0.  1.
          1   -1    0    0  501    0  0.00000000000E+00 -0.00000000000E+00 -0.61396180136E+03  0.61396180136E+03  0.00000000000E+00 0. -1.
         25    2    1    2    0    0 -0.46980745218E+02 -0.61008574726E+02 -0.38011081282E+03  0.40750573057E+03  0.12508978303E+03 0.  0.
         23    2    1    2    0    0  0.46980745218E+02  0.61008574726E+02 -0.20387241187E+03  0.23643464746E+03  0.91695940955E+02 0.  0.
          5    1    3    3  502    0 -0.46472929457E+02  0.13142800383E+02 -0.27234438964E+03  0.27662502660E+03  0.41800000000E+01 0. -1.
         -5    1    3    3    0  502 -0.50781576126E+00 -0.74151375109E+02 -0.10776642317E+03  0.13088070397E+03  0.41800000000E+01 0. -1.
        -11    1    4    4    0    0  0.68997942407E+02  0.17971876519E+02 -0.11679461638E+03  0.13683817749E+03  0.00000000000E+00 0.  1.
         11    1    4    4    0    0 -0.22017197189E+02  0.43036698206E+02 -0.87077795488E+02  0.99596469975E+02  0.00000000000E+00 0. -1.
</event>
<event>
 8    1  0.6901948E-009  0.1618832E+03  0.7561462E-02  0.1186587E+00
         -2   -1    0    0    0  501 -0.00000000000E+00  0.00000000000E+00  0.93578739782E+02  0.93578739782E+02  0.00000000000E+00 0.  1.
          2   -1    0    0  501    0  0.00000000000E+00 -0.00000000000E+00 -0.36647317244E+03  0.36647317244E+03  0.00000000000E+00 0. -1.
         25    2    1    2    0    0 -0.14339409588E+03  0.26292610349E+02 -0.10322940431E+03  0.21807587009E+03  0.12509039576E+03 0.  0.
         23    2    1    2    0    0  0.14339409588E+03 -0.26292610349E+02 -0.16966502835E+03  0.24197604213E+03  0.92266001469E+02 0.  0.
          5    1    3    3  502    0 -0.31429411919E+02  0.25673109039E+02  0.24956129100E+02  0.47824650976E+02  0.41800000000E+01 0. -1.
         -5    1    3    3    0  502 -0.11196468396E+03  0.61950131006E+00 -0.12818553341E+03  0.17025121912E+03  0.41800000000E+01 0. -1.
        -11    1    4    4    0    0  0.81804199101E+02 -0.59310608280E+02 -0.83824171397E+02  0.13128658330E+03  0.00000000000E+00 0. -1.
         11    1    4    4    0    0  0.61589896777E+02  0.33017997931E+02 -0.85840856953E+02  0.11068945882E+03  0.00000000000E+00 0.  1.
</event>
<event>
 8    1  0.6901948E-009  0.9813965E+02  0.7561462E-02  0.1284257E+00
         -2   -1    0    0    0  501 -0.00000000000E+00  0.00000000000E+00  0.16242855335E+03  0.16242855335E+03  0.00000000000E+00 0.  1.
          2   -1    0    0  501    0  0.00000000000E+00 -0.00000000000E+00 -0.13763015961E+03  0.13763015961E+03  0.00000000000E+00 0. -1.
         25    2    1    2    0    0  0.22816052410E+02  0.94433585764E+02 -0.22210923181E+02  0.15993476882E+03  0.12509009074E+03 0.  0.
         23    2    1    2    0    0 -0.22816052410E+02 -0.94433585764E+02  0.47009316922E+02  0.14012394414E+03  0.89367608655E+02 0.  0.
          5    1    3    3  502    0  0.15030982997E+02  0.51767768621E+02 -0.74385641488E+02  0.91959384390E+02  0.41800000000E+01 0.  1.
         -5    1    3    3    0  502  0.77850694133E+01  0.42665817142E+02  0.52174718307E+02  0.67975384432E+02  0.41800000000E+01 0.  1.
        -11    1    4    4    0    0  0.12782383146E+01 -0.27024825545E+02  0.61408900084E+02  0.67104605643E+02  0.00000000000E+00 0.  1.
         11    1    4    4    0    0 -0.24094290725E+02 -0.67408760218E+02 -0.14399583162E+02  0.73019338500E+02  0.00000000000E+00 0. -1.
</event>
<event>
 8    1  0.6901948E-009  0.1116967E+03  0.7561462E-02  0.1257460E+00
          2   -1    0    0  501    0  0.00000000000E+00  0.00000000000E+00  0.11131206863E+03  0.11131206863E+03  0.00000000000E+00 0.  1.
         -2   -1    0    0    0  501 -0.00000000000E+00 -0.00000000000E+00 -0.16778929930E+03  0.16778929930E+03  0.00000000000E+00 0. -1.
         25    2    1    2    0    0 -0.29823527149E+02  0.19695335495E+01  0.47390432460E+02  0.13706323975E+03  0.12508859568E+03 0.  0.
         23    2    1    2    0    0  0.29823527149E+02 -0.19695335495E+01 -0.10386766314E+03  0.14203812818E+03  0.92157563864E+02 0.  0.
          5    1    3    3  502    0 -0.22874296534E+02  0.62939190467E+02  0.25379979625E+02  0.71736956335E+02  0.41800000000E+01 0. -1.
         -5    1    3    3    0  502 -0.69492306147E+01 -0.60969656917E+02  0.22010452835E+02  0.65326283414E+02  0.41800000000E+01 0. -1.
        -11    1    4    4    0    0 -0.25581481030E+02  0.22643431086E+02 -0.23928860937E+02  0.41710041102E+02  0.00000000000E+00 0. -1.
         11    1    4    4    0    0  0.55405008178E+02 -0.24612964636E+02 -0.79938802200E+02  0.10032808708E+03  0.00000000000E+00 0.  1.
</event>
<event>
 8    1  0.6901948E-009  0.3694815E+03  0.7561462E-02  0.1054891E+00
         -1   -1    0    0    0  501 -0.00000000000E+00  0.00000000000E+00  0.82776822543E+03  0.82776822543E+03  0.00000000000E+00 0.  1.
          1   -1    0    0  501    0  0.00000000000E+00 -0.00000000000E+00 -0.18985955198E+03  0.18985955198E+03  0.00000000000E+00 0. -1.
         25    2    1    2    0    0 -0.33133084528E+03  0.12932348837E+03  0.49894092705E+03  0.62537418871E+03  0.12508450561E+03 0.  0.
         23    2    1    2    0    0  0.33133084528E+03 -0.12932348837E+03  0.13896774639E+03  0.39225358870E+03  0.89700332404E+02 0.  0.
          5    1    3    3  502    0 -0.16400202655E+03  0.12444193258E+03  0.31793316131E+03  0.37878942271E+03  0.41800000000E+01 0.  1.
         -5    1    3    3    0  502 -0.16732881873E+03  0.48815557823E+01  0.18100776574E+03  0.24658476600E+03  0.41800000000E+01 0.  1.
        -11    1    4    4    0    0  0.60497972989E+02 -0.61783768302E+02  0.46674223854E+02  0.98263533082E+02  0.00000000000E+00 0.  1.
         11    1    4    4    0    0  0.27083287229E+03 -0.67539720064E+02  0.92293522538E+02  0.29399005562E+03  0.00000000000E+00 0. -1.
</event>
<event>
 8    1  0.6901948E-009  0.9601148E+02  0.7561462E-02  0.1288914E+00
          1   -1    0    0  501    0  0.00000000000E+00  0.00000000000E+00  0.69037787870E+02  0.69037787870E+02  0.00000000000E+00 0. -1.
         -1   -1    0    0    0  501 -0.00000000000E+00 -0.00000000000E+00 -0.22741094358E+03  0.22741094358E+03  0.00000000000E+00 0.  1.
         25    2    1    2    0    0 -0.12852505683E+02 -0.62505038534E+02 -0.81897264104E+02  0.16255360249E+03  0.12507775609E+03 0.  0.
         23    2    1    2    0    0  0.12852505683E+02  0.62505038534E+02 -0.76475891611E+02  0.13389512897E+03  0.89483388509E+02 0.  0.
          5    1    3    3  502    0  0.47366158352E+02 -0.14143567545E+02 -0.67673714443E+02  0.83909460053E+02  0.41800000000E+01 0.  1.
         -5    1    3    3    0  502 -0.60218664035E+02 -0.48361470989E+02 -0.14223549661E+02  0.78644142435E+02  0.41800000000E+01 0.  1.
        -11    1    4    4    0    0  0.10686471030E+02  0.21548342850E+02  0.18563825387E+02  0.30383340100E+02  0.00000000000E+00 0. -1.
         11    1    4    4    0    0  0.21660346537E+01  0.40956695684E+02 -0.95039716998E+02  0.10351178887E+03  0.00000000000E+00 0.  1.
</event>
<event>
 8    1  0.6901948E-009  0.1033262E+03  0.7561462E-02  0.1273453E+00
          1   -1    0    0  501    0  0.00000000000E+00  0.00000000000E+00  0.30813319029E+03  0.30813319029E+03  0.00000000000E+00 0. -1.
         -1   -1    0    0    0  501 -0.00000000000E+00 -0.00000000000E+00 -0.53890349180E+02  0.53890349180E+02  0.00000000000E+00 0.  1.
         25    2    1    2    0    0 -0.60253870497E+02  0.38079444038E+01  0.18953264374E+03  0.23497828561E+03  0.12508853791E+03 0.  0.
         23    2    1    2    0    0  0.60253870497E+02 -0.38079444038E+01  0.64710197372E+02  0.12704525386E+03  0.91148546527E+02 0.  0.
          5    1    3    3  502    0 -0.83588677720E+02 -0.61576188425E+01  0.19160741489E+03  0.20917900744E+03  0.41800000000E+01 0. -1.
         -5    1    3    3    0  502  0.23334807223E+02  0.99655632463E+01 -0.20747711486E+01  0.25799278173E+02  0.41800000000E+01 0. -1.
        -11    1    4    4    0    0  0.44906235501E+02 -0.38456076158E+02  0.92004548990E+01  0.59833837840E+02  0.00000000000E+00 0.  1.
         11    1    4    4    0    0  0.15347634996E+02  0.34648131754E+02  0.55509742473E+02  0.67211416020E+02  0.00000000000E+00 0. -1.
</event>
<event>
 8    1  0.6901948E-009  0.1047537E+03  0.7561462E-02  0.1270606E+00
         -2   -1    0    0    0  501 -0.00000000000E+00  0.00000000000E+00  0.27499692258E+02  0.27499692258E+02  0.00000000000E+00 0.  1.
          2   -1    0    0  501    0  0.00000000000E+00 -0.00000000000E+00 -0.58361493512E+03  0.58361493512E+03  0.00000000000E+00 0. -1.
         25    2    1    2    0    0  0.13418607102E+02 -0.36036120559E+02 -0.18404949646E+03  0.22583144865E+03  0.12508782934E+03 0.  0.
         23    2    1    2    0    0 -0.13418607102E+02  0.36036120559E+02 -0.37206574640E+03  0.38528317873E+03  0.92366374643E+02 0.  0.
          5    1    3    3  502    0 -0.44478143198E+02 -0.22201729485E+02 -0.24682865542E+02  0.55659125629E+02  0.41800000000E+01 0. -1.
         -5    1    3    3    0  502  0.57896750300E+02 -0.13834391074E+02 -0.15936663092E+03  0.17017232302E+03  0.41800000000E+01 0. -1.
        -11    1    4    4    0    0 -0.45696707458E+02 -0.69177866053E+01 -0.16333659132E+03  0.16974948280E+03  0.00000000000E+00 0.  1.
         11    1    4    4    0    0  0.32278100356E+02  0.42953907165E+02 -0.20872915508E+03  0.21553369593E+03  0.00000000000E+00 0. -1.
</event>
<event>
 8    1  0.6901948E-009  0.1014957E+03  0.7561462E-02  0.1277182E+00
          2   -1    0    0  501    0  0.00000000000E+00  0.00000000000E+00  0.21038125438E+03  0.21038125438E+03  0.00000000000E+00 0. -1.
         -2   -1    0    0    0  501 -0.00000000000E+00 -0.00000000000E+00 -0.60933241465E+02  0.60933241465E+02  0.00000000000E+00 0.  1.
         25    2    1    2    0    0  0.96405426536E+01 -0.36257514487E+02  0.81255106134E+02  0.15381152961E+03  0.12509215383E+03 0.  0.
         23    2    1    2    0    0 -0.96405426536E+01  0.36257514487E+02  0.68192906783E+02  0.11750296624E+03  0.88029126539E+02 0.  0.
          5    1    3    3  502    0  0.47990935981E+02  0.25537806619E+02  0.51886046268E+02  0.75265820268E+02  0.41800000000E+01 0. -1.
         -5    1    3    3    0  502 -0.38350393327E+02 -0.61795321105E+02  0.29369059866E+02  0.78545709344E+02  0.41800000000E+01 0. -1.
        -11    1    4    4    0    0  0.28181795436E+02  0.19381887878E+02  0.67964716533E+02  0.76085963654E+02  0.00000000000E+00 0. -1.
         11    1    4    4    0    0 -0.37822338090E+02  0.16875626609E+02  0.22819025004E+00  0.41417002581E+02  0.00000000000E+00 0.  1.
</event>
<event>
 8    1  0.6901948E-009  0.1175494E+03  0.7561462E-02  0.1247195E+00
          1   -1    0    0  501    0  0.00000000000E+00  0.00000000000E+00  0.10200476400E+04  0.10200476400E+04  0.00000000000E+00 0. -1.
         -1   -1    0    0    0  501 -0.00000000000E+00 -0.00000000000E+00 -0.14178494320E+02  0.14178494320E+02  0.00000000000E+00 0.  1.
         25    2    1    2    0    0 -0.14795455697E+02  0.46919037718E+02  0.64308401522E+03  0.65697653294E+03  0.12506323440E+03 0.  0.
         23    2    1    2    0    0  0.14795455697E+02 -0.46919037718E+02  0.36278513044E+03  0.37724960136E+03  0.91015983458E+02 0.  0.
          5    1    3    3  502    0 -0.68672250196E+02  0.12339576019E+02  0.35854159889E+03  0.36529124492E+03  0.41800000000E+01 0. -1.
         -5    1    3    3    0  502  0.53876794499E+02  0.34579461699E+02  0.28454241633E+03  0.29168528802E+03  0.41800000000E+01 0. -1.
        -11    1    4    4    0    0  0.45589689249E+02 -0.80664078586E+00  0.12418988533E+03  0.13229587316E+03  0.00000000000E+00 0. -1.
         11    1    4    4    0    0 -0.30794233552E+02 -0.46112396932E+02  0.23859524511E+03  0.24495372820E+03  0.00000000000E+00 0.  1.
</event>
<event>
 8    1  0.6901948E-009  0.1127645E+03  0.7561462E-02  0.1255535E+00
          2   -1    0    0  501    0  0.00000000000E+00  0.00000000000E+00  0.94120449988E+02  0.94120449988E+02  0.00000000000E+00 0.  1.
         -2   -1    0    0    0  501 -0.00000000000E+00 -0.00000000000E+00 -0.23968057923E+03  0.23968057923E+03  0.00000000000E+00 0. -1.
         25    2    1    2    0    0 -0.30014882050E+02  0.29764357236E+02  0.21581894956E+02  0.13379085561E+03  0.12508958689E+03 0.  0.
         23    2    1    2    0    0  0.30014882050E+02 -0.29764357236E+02 -0.16714202419E+03  0.20001017360E+03  0.10139429564E+03 0.  0.
          5    1    3    3  502    0 -0.73703997927E+02  0.29534118084E+02 -0.94046192588E+01  0.80065365202E+02  0.41800000000E+01 0.  1.
         -5    1    3    3    0  502  0.43689115878E+02  0.23023915131E+00  0.30986514215E+02  0.53725490407E+02  0.41800000000E+01 0.  1.
        -11    1    4    4    0    0 -0.24336905986E+02 -0.39999583142E+02 -0.40842535996E+02  0.62131830740E+02  0.00000000000E+00 0.  1.
         11    1    4    4    0    0  0.54351788036E+02  0.10235225907E+02 -0.12629948820E+03  0.13787834286E+03  0.00000000000E+00 0. -1.
</event>
<event>
 8    1  0.6901948E-009  0.3470736E+03  0.7561462E-02  0.1063823E+00
         -3   -1    0    0    0  501 -0.00000000000E+00  0.00000000000E+00  0.31707982141E+03  0.31707982141E+03  0.00000000000E+00 0.  1.
          3   -1    0    0  501    0  0.00000000000E+00 -0.00000000000E+00 -0.41513228400E+03  0.41513228400E+03  0.00000000000E+00 0. -1.
         25    2    1    2    0    0 -0.33938099184E+03 -0.55219475807E+02 -0.94014176581E+01  0.36601088932E+03  0.12508771448E+03 0.  0.
         23    2    1    2    0    0  0.33938099184E+03  0.55219475807E+02 -0.88651044925E+02  0.36620121609E+03  0.89530300809E+02 0.  0.
          5    1    3    3  502    0 -0.30623063939E+03 -0.30054241928E+02  0.29173194619E+02  0.30911002837E+03  0.41800000000E+01 0.  1.
         -5    1    3    3    0  502 -0.33150352458E+02 -0.25165233878E+02 -0.38574612278E+02  0.56900860948E+02  0.41800000000E+01 0.  1.
        -11    1    4    4    0    0  0.16530043447E+03  0.38355147840E+02  0.93931114078E+00  0.16969452940E+03  0.00000000000E+00 0. -1.
         11    1    4    4    0    0  0.17408055738E+03  0.16864327967E+02 -0.89590356066E+02  0.19650668669E+03  0.00000000000E+00 0.  1.
</event>
<event>
 8    1  0.6901948E-009  0.1249826E+03  0.7561462E-02  0.1235097E+00
         -1   -1    0    0    0  501 -0.00000000000E+00  0.00000000000E+00  0.14614469853E+03  0.14614469853E+03  0.00000000000E+00 0.  1.
          1   -1    0    0  501    0  0.00000000000E+00 -0.00000000000E+00 -0.12394824574E+03  0.12394824574E+03  0.00000000000E+00 0. -1.
         25    2    1    2    0    0  0.20851437446E+02 -0.77631809465E+02  0.13467761839E+02  0.14929638589E+03  0.12508617008E+03 0.  0.
         23    2    1    2    0    0 -0.20851437446E+02  0.77631809465E+02  0.87286909519E+01  0.12079655838E+03  0.89744850474E+02 0.  0.
          5    1    3    3  502    0 -0.49865924887E+02 -0.21141744878E+02  0.21303887079E+02  0.58351622480E+02  0.41800000000E+01 0. -1.
         -5    1    3    3    0  502  0.70717362333E+02 -0.56490064586E+02 -0.78361252406E+01  0.90944763407E+02  0.41800000000E+01 0. -1.
        -11    1    4    4    0    0 -0.26201192415E+02 -0.10010771848E+01 -0.23915597870E+02  0.35488877990E+02  0.00000000000E+00 0. -1.
         11    1    4    4    0    0  0.53497549695E+01  0.78632886649E+02  0.32644288821E+02  0.85307680391E+02  0.00000000000E+00 0.  1.
</event>
<event>
 8    1  0.6901948E-009  0.1067491E+03  0.7561462E-02  0.1266711E+00
          2   -1    0    0  501    0  0.00000000000E+00  0.00000000000E+00  0.10870510838E+03  0.10870510838E+03  0.00000000000E+00 0. -1.
         -2   -1    0    0    0  501 -0.00000000000E+00 -0.00000000000E+00 -0.15892511918E+03  0.15892511918E+03  0.00000000000E+00 0.  1.
         25    2    1    2    0    0  0.18133139879E+02 -0.50972873007E+02  0.23603442230E+02  0.13831646069E+03  0.12508907334E+03 0.  0.
         23    2    1    2    0    0 -0.18133139879E+02  0.50972873007E+02 -0.73823453036E+02  0.12931376687E+03  0.91351538243E+02 0.  0.
          5    1    3    3  502    0  0.21408640439E+02  0.39785408614E+02  0.75589746476E+01  0.45998033890E+02  0.41800000000E+01 0.  1.
         -5    1    3    3    0  502 -0.32755005607E+01 -0.90758281621E+02  0.16044467582E+02  0.92318426800E+02  0.41800000000E+01 0.  1.
        -11    1    4    4    0    0  0.73315998686E+01  0.51223939049E+02 -0.86554294700E+02  0.10084289871E+03  0.00000000000E+00 0.  1.
         11    1    4    4    0    0 -0.25464739747E+02 -0.25106604205E+00  0.12730841664E+02  0.28470868164E+02  0.00000000000E+00 0. -1.
</event>
<event>
 8    1  0.6901948E-009  0.9823421E+02  0.7561462E-02  0.1284054E+00
         -2   -1    0    0    0  501 -0.00000000000E+00  0.00000000000E+00  0.97494629768E+02  0.97494629768E+02  0.00000000000E+00 0.  1.
          2   -1    0    0  501    0  0.00000000000E+00 -0.00000000000E+00 -0.21503500890E+03  0.21503500890E+03  0.00000000000E+00 0. -1.
         25    2    1    2    0    0 -0.42638572406E+01  0.36301774864E+02  0.30223845761E+02  0.13377909986E+03  0.12508943748E+03 0.  0.
         23    2    1    2    0    0  0.42638572406E+01 -0.36301774864E+02 -0.14776422489E+03  0.17875053881E+03  0.93709602657E+02 0.  0.
          5    1    3    3  502    0 -0.46997529157E+02  0.15799046547E+02 -0.29168796201E+02  0.57677280540E+02  0.41800000000E+01 0. -1.
         -5    1    3    3    0  502  0.42733671916E+02  0.20502728317E+02  0.59392641963E+02  0.76101819316E+02  0.41800000000E+01 0. -1.
        -11    1    4    4    0    0 -0.30397543459E+02  0.17539976183E+02 -0.67448743905E+02  0.76032851237E+02  0.00000000000E+00 0.  1.
         11    1    4    4    0    0  0.34661400700E+02 -0.53841751047E+02 -0.80315480983E+02  0.10271768757E+03  0.00000000000E+00 0. -1.
</event>
<event>
 8    1  0.6901948E-009  0.2283385E+03  0.7561462E-02  0.1127815E+00
         -2   -1    0    0    0  501 -0.00000000000E+00  0.00000000000E+00  0.85669256966E+02  0.85669256966E+02  0.00000000000E+00 0.  1.
          2   -1    0    0  501    0  0.00000000000E+00 -0.00000000000E+00 -0.63733349781E+03  0.63733349781E+03  0.00000000000E+00 0. -1.
         25    2    1    2    0    0 -0.94156899323E+02 -0.17964855307E+03 -0.34387719570E+03  0.41837545690E+03  0.12508945959E+03 0.  0.
         23    2    1    2    0    0  0.94156899323E+02  0.17964855307E+03 -0.20778704514E+03  0.30462729788E+03  0.92104343943E+02 0.  0.
          5    1    3    3  502    0 -0.50013888476E+02 -0.11516468830E+00 -0.47913447462E+02  0.69387125255E+02  0.41800000000E+01 0. -1.
         -5    1    3    3    0  502 -0.44143010847E+02 -0.17953338838E+03 -0.29596374824E+03  0.34898833165E+03  0.41800000000E+01 0. -1.
        -11    1    4    4    0    0  0.71196325669E+01  0.10961491177E+03 -0.87238499751E+02  0.14027356803E+03  0.00000000000E+00 0.  1.
         11    1    4    4    0    0  0.87037266756E+02  0.70033641305E+02 -0.12054854539E+03  0.16435372985E+03  0.00000000000E+00 0. -1.
</event>
<event>
 8    1  0.6901948E-009  0.9070896E+02  0.7561462E-02  0.1301144E+00
          1   -1    0    0  501    0  0.00000000000E+00  0.00000000000E+00  0.75974463177E+02  0.75974463177E+02  0.00000000000E+00 0. -1.
         -1   -1    0    0    0  501 -0.00000000000E+00 -0.00000000000E+00 -0.17080186458E+03  0.17080186458E+03  0.00000000000E+00 0.  1.
         25    2    1    2    0    0  0.32578291853E+02  0.11224682318E+02 -0.70160689353E+02  0.14750230044E+03  0.12508823970E+03 0.  0.
         23    2    1    2    0    0 -0.32578291853E+02 -0.11224682318E+02 -0.24666712052E+02  0.99274027318E+02  0.89774981054E+02 0.  0.
          5    1    3    3  502    0  0.60013841735E+02  0.48929254028E+02 -0.22613477069E+02  0.80774840418E+02  0.41800000000E+01 0.  1.
         -5    1    3    3    0  502 -0.27435549882E+02 -0.37704571710E+02 -0.47547212284E+02  0.66727460023E+02  0.41800000000E+01 0.  1.
        -11    1    4    4    0    0 -0.23852129505E+02  0.15831291468E+02 -0.52303784951E+02  0.59625831580E+02  0.00000000000E+00 0.  1.
         11    1    4    4    0    0 -0.87261623482E+01 -0.27055973786E+02  0.27637072898E+02  0.39648195738E+02  0.00000000000E+00 0. -1.
</event>
<event>
 8    1  0.6901948E-009  0.8311291E+02  0.7561462E-02  0.1320443E+00
         -1   -1    0    0    0  501 -0.00000000000E+00  0.00000000000E+00  0.38834669725E+02  0.38834669725E+02  0.00000000000E+00 0.  1.
          1   -1    0    0  501    0  0.00000000000E+00 -0.00000000000E+00 -0.34421033832E+03  0.34421033832E+03  0.00000000000E+00 0. -1.
         25    2    1    2    0    0  0.47845690743E+01 -0.17108071164E+02 -0.19528679614E+03  0.23259103460E+03  0.12508428530E+03 0.  0.
         23    2    1    2    0    0 -0.47845690743E+01  0.17108071164E+02 -0.11008887246E+03  0.15045397345E+03  0.10100128755E+03 0.  0.
          5    1    3    3  502    0 -0.27608902848E+02 -0.50255291405E+02 -0.17036113494E+03  0.17980054096E+03  0.41800000000E+01 0. -1.
         -5    1    3    3    0  502  0.32393471922E+02  0.33147220241E+02 -0.24925661199E+02  0.52790493643E+02  0.41800000000E+01 0. -1.
        -11    1    4    4    0    0  0.13667917510E+02  0.34334377856E+02  0.56299632605E+00  0.36959145508E+02  0.00000000000E+00 0.  1.
         11    1    4    4    0    0 -0.18452486584E+02 -0.17226306692E+02 -0.11065186879E+03  0.11349482794E+03  0.00000000000E+00 0. -1.
</event>
<event>
 8    1  0.6901948E-009  0.1609126E+03  0.7561462E-02  0.1187670E+00
         -2   -1    0    0    0  501 -0.00000000000E+00  0.00000000000E+00  0.56382610592E+02  0.56382610592E+02  0.00000000000E+00 0.  1.
          2   -1    0    0  501    0  0.00000000000E+00 -0.00000000000E+00 -0.84187498179E+03  0.84187498179E+03  0.00000000000E+00 0. -1.
         25    2    1    2    0    0 -0.53934316001E+02  0.12801113490E+03 -0.66812764166E+03  0.69378292361E+03  0.12507772962E+03 0.  0.
         23    2    1    2    0    0  0.53934316001E+02 -0.12801113490E+03 -0.11736472954E+03  0.20447466877E+03  0.93486091631E+02 0.  0.
          5    1    3    3  502    0  0.11744304909E+02  0.89479139387E+02 -0.51333033716E+03  0.52121967781E+03  0.41800000000E+01 0. -1.
         -5    1    3    3    0  502 -0.65678620910E+02  0.38531995511E+02 -0.15479730449E+03  0.17256324580E+03  0.41800000000E+01 0. -1.
        -11    1    4    4    0    0  0.18892396765E+02  0.34184562061E+01  0.67373472195E+01  0.20346998450E+02  0.00000000000E+00 0.  1.
         11    1    4    4    0    0  0.35041919236E+02 -0.13142959110E+03 -0.12410207676E+03  0.18412767032E+03  0.00000000000E+00 0. -1.
</event>
<event>
 8    1  0.6901948E-009  0.8612517E+02  0.7561462E-02  0.1312516E+00
         -2   -1    0    0    0  501 -0.00000000000E+00  0.00000000000E+00  0.80643911066E+02  0.80643911066E+02  0.00000000000E+00 0. -1.
          2   -1    0    0  501    0  0.00000000000E+00 -0.00000000000E+00 -0.18458614666E+03  0.18458614666E+03  0.00000000000E+00 0.  1.
         25    2    1    2    0    0 -0.84908166382E+01  0.26441118449E+02 -0.11354813642E+03  0.17120655306E+03  0.12508907951E+03 0.  0.
         23    2    1    2    0    0  0.84908166382E+01 -0.26441118449E+02  0.96059008298E+01  0.94023504665E+02  0.89313601353E+02 0.  0.
          5    1    3    3  502    0  0.12416761705E+02  0.50975289900E+02  0.48200822227E+00  0.52634217802E+02  0.41800000000E+01 0.  1.
         -5    1    3    3    0  502 -0.20907578344E+02 -0.24534171451E+02 -0.11403014464E+03  0.11857233526E+03  0.41800000000E+01 0.  1.
        -11    1    4    4    0    0 -0.25405425907E+02  0.18062498307E+02 -0.12884332369E+02  0.33729742530E+02  0.00000000000E+00 0. -1.
         11    1    4    4    0    0  0.33896242545E+02 -0.44503616755E+02  0.22490233198E+02  0.60293762134E+02  0.00000000000E+00 0.  1.
</event>
<event>
 8    1  0.6901948E-009  0.9508902E+02  0.7561462E-02  0.1290976E+00
          1   -1    0    0  501    0  0.00000000000E+00  0.00000000000E+00  0.30142528842E+03  0.30142528842E+03  0.00000000000E+00 0. -1.
         -1   -1    0    0    0  501 -0.00000000000E+00 -0.00000000000E+00 -0.62715921860E+02  0.62715921860E+02  0.00000000000E+00 0.  1.
         25    2    1    2    0    0 -0.36536498171E+02  0.61857647679E+02  0.70972973765E+02  0.16076801155E+03  0.12509159148E+03 0.  0.
         23    2    1    2    0    0  0.36536498171E+02 -0.61857647679E+02  0.16773639280E+03  0.20337319873E+03  0.89799088067E+02 0.  0.
          5    1    3    3  502    0  0.63463634839E+01  0.58378424314E+02  0.94662841888E+02  0.11147574978E+03  0.41800000000E+01 0. -1.
         -5    1    3    3    0  502 -0.42882861655E+02  0.34792233650E+01 -0.23689868123E+02  0.49292261772E+02  0.41800000000E+01 0. -1.
        -11    1    4    4    0    0  0.17640918739E+02  0.52163485180E+01 -0.32965835953E+01  0.18689028044E+02  0.00000000000E+00 0.  1.
         11    1    4    4    0    0  0.18895579431E+02 -0.67073996197E+02  0.17103297639E+03  0.18468417068E+03  0.00000000000E+00 0. -1.
</event>
<event>
 8    1  0.6901948E-009  0.1241718E+03  0.7561462E-02  0.1236369E+00
          4   -1    0    0  501    0  0.00000000000E+00  0.00000000000E+00  0.29596152343E+03  0.29596152343E+03  0.00000000000E+00 0. -1.
         -4   -1    0    0    0  501 -0.00000000000E+00 -0.00000000000E+00 -0.58979733757E+02  0.58979733757E+02  0.00000000000E+00 0.  1.
         25    2    1    2    0    0 -0.80508312239E+01  0.74474958030E+02  0.11809129916E+03  0.18762855195E+03  0.12509030063E+03 0.  0.
         23    2    1    2    0    0  0.80508312239E+01 -0.74474958030E+02  0.11889049051E+03  0.16731270524E+03  0.90814411542E+02 0.  0.
          5    1    3    3  502    0 -0.54474989537E+02  0.67724452345E+02  0.38512489662E+02  0.95156766394E+02  0.41800000000E+01 0.  1.
         -5    1    3    3    0  502  0.46424158314E+02  0.67505056854E+01  0.79578809502E+02  0.92471785556E+02  0.41800000000E+01 0.  1.
        -11    1    4    4    0    0 -0.22500711940E+01  0.19531768784E+02  0.71393812281E+01  0.20917064243E+02  0.00000000000E+00 0. -1.
         11    1    4    4    0    0  0.10300902418E+02 -0.94006726815E+02  0.11175110929E+03  0.14639564100E+03  0.00000000000E+00 0.  1.
</event>
<event>
 8    1  0.6901948E-009  0.1473470E+03  0.7561462E-02  0.1203771E+00
         -1   -1    0    0    0  501 -0.00000000000E+00  0.00000000000E+00  0.30600528810E+02  0.30600528810E+02  0.00000000000E+00 0.  1.
          1   -1    0    0  501    0  0.00000000000E+00 -0.00000000000E+00 -0.84352941531E+03  0.84352941531E+03  0.00000000000E+00 0. -1.
         25    2    1    2    0    0  0.74315039462E+02 -0.90492553754E+02 -0.48056315909E+03  0.51019458895E+03  0.12508373733E+03 0.  0.
         23    2    1    2    0    0 -0.74315039462E+02  0.90492553754E+02 -0.33236572741E+03  0.36393535517E+03  0.90941402070E+02 0.  0.
          5    1    3    3  502    0 -0.17684922950E+02  0.43713996873E+01 -0.19056150386E+03  0.19147591177E+03  0.41800000000E+01 0. -1.
         -5    1    3    3    0  502  0.91999962412E+02 -0.94863953442E+02 -0.29000165523E+03  0.31871867718E+03  0.41800000000E+01 0. -1.
        -11    1    4    4    0    0  0.18709948046E+02  0.15786400808E+02 -0.28996062287E+02  0.37947914759E+02  0.00000000000E+00 0. -1.
         11    1    4    4    0    0 -0.93024987508E+02  0.74706152947E+02 -0.30336966512E+03  0.32598744041E+03  0.00000000000E+00 0.  1.
</event>
<event>
 8    1  0.6901948E-009  0.1092609E+03  0.7561462E-02  0.1261945E+00
          3   -1    0    0  501    0  0.00000000000E+00  0.00000000000E+00  0.30820925269E+03  0.30820925269E+03  0.00000000000E+00 0. -1.
         -3   -1    0    0    0  501 -0.00000000000E+00 -0.00000000000E+00 -0.79723721941E+02  0.79723721941E+02  0.00000000000E+00 0.  1.
         25    2    1    2    0    0  0.14993942166E+02  0.86117856660E+02  0.42718701206E+02  0.15847017637E+03  0.12508719290E+03 0.  0.
         23    2    1    2    0    0 -0.14993942166E+02 -0.86117856660E+02  0.18576682955E+03  0.22946279827E+03  0.10248296099E+03 0.  0.
          5    1    3    3  502    0 -0.20662031914E+02  0.20004665518E+02  0.72075372030E+02  0.77713820254E+02  0.41800000000E+01 0.  1.
         -5    1    3    3    0  502  0.35655974080E+02  0.66113191142E+02 -0.29356670824E+02  0.80756356112E+02  0.41800000000E+01 0.  1.
        -11    1    4    4    0    0  0.26443195854E+02 -0.59142243901E+02  0.41447706438E+02  0.76908777064E+02  0.00000000000E+00 0.  1.
         11    1    4    4    0    0 -0.41437138019E+02 -0.26975612759E+02  0.14431912311E+03  0.15255402120E+03  0.00000000000E+00 0. -1.
</event>
<event>
 8    1  0.6901948E-009  0.8042492E+02  0.7561462E-02  0.1327850E+00
          1   -1    0    0  501    0  0.00000000000E+00  0.00000000000E+00  0.69026771123E+03  0.69026771123E+03  0.00000000000E+00 0. -1.
         -1   -1    0    0    0  501 -0.00000000000E+00 -0.00000000000E+00 -0.21025735867E+02  0.21025735867E+02  0.00000000000E+00 0.  1.
         25    2    1    2    0    0 -0.20062930799E+02  0.50453418134E+02  0.35209578560E+03  0.37758136953E+03  0.12509268479E+03 0.  0.
         23    2    1    2    0    0  0.20062930799E+02 -0.50453418134E+02  0.31714618977E+03  0.33371207757E+03  0.88509753346E+02 0.  0.
          5    1    3    3  502    0  0.32441130403E+01  0.18910564337E+02  0.33332141620E+03  0.33389934503E+03  0.41800000000E+01 0.  1.
         -5    1    3    3    0  502 -0.23307043839E+02  0.31542853797E+02  0.18774369393E+02  0.43682024498E+02  0.41800000000E+01 0.  1.
        -11    1    4    4    0    0 -0.34028571693E+02 -0.15685220410E+02  0.15039999683E+03  0.15499718990E+03  0.00000000000E+00 0. -1.
         11    1    4    4    0    0  0.54091502491E+02 -0.34768197724E+02  0.16674619294E+03  0.17871488766E+03  0.00000000000E+00 0.  1.
</event>
<event>
 8    1  0.6901948E-009  0.2743596E+03  0.7561462E-02  0.1098810E+00
         -2   -1    0    0    0  501 -0.00000000000E+00  0.00000000000E+00  0.31232756854E+02  0.31232756854E+02  0.00000000000E+00 0.  1.
          2   -1    0    0  501    0  0.00000000000E+00 -0.00000000000E+00 -0.27982661599E+04  0.27982661599E+04  0.00000000000E+00 0. -1.
         25    2    1    2    0    0 -0.26820902379E+03  0.21465998573E+02 -0.17114931654E+04  0.17370242740E+04  0.12509038230E+03 0.  0.
         23    2    1    2    0    0  0.26820902379E+03 -0.21465998573E+02 -0.10555402377E+04  0.10924746428E+04  0.83299353072E+02 0.  0.
          5    1    3    3  502    0 -0.14388399694E+03  0.14964153483E+02 -0.12724173571E+04  0.12806209172E+04  0.41800000000E+01 0. -1.
         -5    1    3    3    0  502 -0.12432502684E+03  0.65018450900E+01 -0.43907580825E+03  0.45640335678E+03  0.41800000000E+01 0. -1.
        -11    1    4    4    0    0  0.24692076823E+03  0.30828041241E+01 -0.88190556171E+03  0.91582574174E+03  0.00000000000E+00 0.  1.
         11    1    4    4    0    0  0.21288255558E+02 -0.24548802698E+02 -0.17363467599E+03  0.17664890105E+03  0.00000000000E+00 0. -1.
</event>
<event>
 8    1  0.6901948E-009  0.1020657E+03  0.7561462E-02  0.1276011E+00
         -1   -1    0    0    0  501 -0.00000000000E+00  0.00000000000E+00  0.43215930598E+02  0.43215930598E+02  0.00000000000E+00 0.  1.
          1   -1    0    0  501    0  0.00000000000E+00 -0.00000000000E+00 -0.30252017026E+03  0.30252017026E+03  0.00000000000E+00 0. -1.
         25    2    1    2    0    0  0.93986680810E+01 -0.31426878188E+02 -0.16595191283E+03  0.21038982354E+03  0.12509139396E+03 0.  0.
         23    2    1    2    0    0 -0.93986680810E+01  0.31426878188E+02 -0.93352326836E+02  0.13534627732E+03  0.92347031491E+02 0.  0.
          5    1    3    3  502    0 -0.23711492212E+02 -0.58604113005E+02 -0.15275492786E+03  0.16537296426E+03  0.41800000000E+01 0.  1.
         -5    1    3    3    0  502  0.33110160293E+02  0.27177234816E+02 -0.13196984973E+02  0.45016859278E+02  0.41800000000E+01 0.  1.
        -11    1    4    4    0    0  0.41151153843E+02  0.20681208442E+02 -0.39042395357E+02  0.60377466661E+02  0.00000000000E+00 0.  1.
         11    1    4    4    0    0 -0.50549821924E+02  0.10745669747E+02 -0.54309931479E+02  0.74968810662E+02  0.00000000000E+00 0. -1.
</event>
<event>
 8    1  0.6901948E-009  0.1109388E+03  0.7561462E-02  0.1258841E+00
          2   -1    0    0  501    0  0.00000000000E+00  0.00000000000E+00  0.35819040647E+03  0.35819040647E+03  0.00000000000E+00 0. -1.
         -2   -1    0    0    0  501 -0.00000000000E+00 -0.00000000000E+00 -0.57352310594E+02  0.57352310594E+02  0.00000000000E+00 0.  1.
         25    2    1    2    0    0  0.21725948724E+02  0.30306803833E+02  0.39982756051E+02  0.13651336974E+03  0.12508701024E+03 0.  0.
         23    2    1    2    0    0 -0.21725948724E+02 -0.30306803833E+02  0.26085533983E+03  0.27902934733E+03  0.91767909130E+02 0.  0.
          5    1    3    3  502    0  0.23712207474E+02  0.77128541445E+02  0.38341070627E+02  0.89434841005E+02  0.41800000000E+01 0. -1.
         -5    1    3    3    0  502 -0.19862587490E+01 -0.46821737612E+02  0.16416854233E+01  0.47078528735E+02  0.41800000000E+01 0. -1.
        -11    1    4    4    0    0  0.33212939240E+02 -0.51744400046E+01  0.13917170136E+03  0.14317344943E+03  0.00000000000E+00 0. -1.
         11    1    4    4    0    0 -0.54938887965E+02 -0.25132363829E+02  0.12168363847E+03  0.13585589790E+03  0.00000000000E+00 0.  1.
</event>
<event>
 8    1  0.6901948E-009  0.1212631E+03  0.7561462E-02  0.1241028E+00
          3   -1    0    0  501    0  0.00000000000E+00  0.00000000000E+00  0.18491327121E+03  0.18491327121E+03  0.00000000000E+00 0. -1.
         -3   -1    0    0    0  501 -0.00000000000E+00 -0.00000000000E+00 -0.11126353032E+03  0.11126353032E+03  0.00000000000E+00 0.  1.
         25    2    1    2    0    0 -0.26363623112E+02  0.57650186770E+02  0.11150305568E+03  0.17916131226E+03  0.12508900721E+03 0.  0.
         23    2    1    2    0    0  0.26363623112E+02 -0.57650186770E+02 -0.37853314797E+02  0.11701548928E+03  0.90780871509E+02 0.  0.
          5    1    3    3  502    0  0.19029883330E+02  0.84002661622E+02  0.56942528965E+02  0.10333686479E+03  0.41800000000E+01 0.  1.
         -5    1    3    3    0  502 -0.45393506442E+02 -0.26352474852E+02  0.54560526720E+02  0.75824447468E+02  0.41800000000E+01 0.  1.
        -11    1    4    4    0    0  0.54523042201E+02 -0.23487749131E+02 -0.94171336014E+00  0.59374433169E+02  0.00000000000E+00 0.  1.
         11    1    4    4    0    0 -0.28159419089E+02 -0.34162437639E+02 -0.36911601437E+02  0.57641056110E+02  0.00000000000E+00 0. -1.
</event>
<event>
 8    1  0.6901948E-009  0.1223447E+03  0.7561462E-02  0.1239278E+00
         -3   -1    0    0    0  501 -0.00000000000E+00  0.00000000000E+00  0.10203250241E+03  0.10203250241E+03  0.00000000000E+00 0.  1.
          3   -1    0    0  501    0  0.00000000000E+00 -0.00000000000E+00 -0.18267485668E+03  0.18267485668E+03  0.00000000000E+00 0. -1.
         25    2    1    2    0    0 -0.29255029622E+02 -0.74611716070E+02 -0.27737192026E+02  0.15112676184E+03  0.12508869409E+03 0.  0.
         23    2    1    2    0    0  0.29255029622E+02  0.74611716070E+02 -0.52905162237E+02  0.13358059725E+03  0.92855020532E+02 0.  0.
          5    1    3    3  502    0  0.32693191860E+02  0.34299663684E+01 -0.38526899612E+02  0.50817357832E+02  0.41800000000E+01 0.  1.
         -5    1    3    3    0  502 -0.61948221482E+02 -0.78041682438E+02  0.10789707586E+02  0.10030940401E+03  0.41800000000E+01 0.  1.
        -11    1    4    4    0    0 -0.22891331686E+02  0.48225411968E+02 -0.52878049569E+02  0.75138482498E+02  0.00000000000E+00 0. -1.
         11    1    4    4    0    0  0.52146361309E+02  0.26386304102E+02 -0.27112667538E-01  0.58442114755E+02  0.00000000000E+00 0.  1.
</event>
<event>
 8    1  0.6901948E-009  0.1251420E+03  0.7561462E-02  0.1234847E+00
         -2   -1    0    0    0  501 -0.00000000000E+00  0.00000000000E+00  0.41428288747E+02  0.41428288747E+02  0.00000000000E+00 0.  1.
          2   -1    0    0  501    0  0.00000000000E+00 -0.00000000000E+00 -0.68097267746E+03  0.68097267746E+03  0.00000000000E+00 0. -1.
         25    2    1    2    0    0 -0.18607984166E+02 -0.97489430381E+02 -0.51084147309E+03  0.53521677202E+03  0.12509011278E+03 0.  0.
         23    2    1    2    0    0  0.18607984166E+02  0.97489430381E+02 -0.12870291562E+03  0.18718419418E+03  0.92860303425E+02 0.  0.
          5    1    3    3  502    0 -0.44310344506E+02 -0.19891382294E+02 -0.36274852016E+03  0.36600961052E+03  0.41800000000E+01 0.  1.
         -5    1    3    3    0  502  0.25702360339E+02 -0.77598048087E+02 -0.14809295293E+03  0.16920716150E+03  0.41800000000E+01 0.  1.
        -11    1    4    4    0    0  0.40687280118E+02  0.35917886529E+02 -0.15501039224E+02  0.56443171005E+02  0.00000000000E+00 0.  1.
         11    1    4    4    0    0 -0.22079295951E+02  0.61571543852E+02 -0.11320187640E+03  0.13074102318E+03  0.00000000000E+00 0. -1.
</event>
<event>
 8    1  0.6901948E-009  0.1030848E+03  0.7561462E-02  0.1273940E+00
          2   -1    0    0  501    0  0.00000000000E+00  0.00000000000E+00  0.53238302658E+03  0.53238302658E+03  0.00000000000E+00 0. -1.
         -2   -1    0    0    0  501 -0.00000000000E+00 -0.00000000000E+00 -0.43891132318E+02  0.43891132318E+02  0.00000000000E+00 0.  1.
         25    2    1    2    0    0  0.94106995518E+02  0.33025669197E+02  0.32834875656E+03  0.36525327839E+03  0.12510087935E+03 0.  0.
         23    2    1    2    0    0 -0.94106995518E+02 -0.33025669197E+02  0.16014313771E+03  0.21102088051E+03  0.94536585635E+02 0.  0.
          5    1    3    3  502    0  0.23471403803E+02  0.32007767763E+01  0.26392672437E+03  0.26502064072E+03  0.41800000000E+01 0.  1.
         -5    1    3    3    0  502  0.70635591715E+02  0.29824892421E+02  0.64422032185E+02  0.10023263768E+03  0.41800000000E+01 0.  1.
        -11    1    4    4    0    0 -0.65259431054E+02 -0.38778306641E+02  0.16460771462E+03  0.18126844766E+03  0.00000000000E+00 0. -1.
         11    1    4    4    0    0 -0.28847564464E+02  0.57526374435E+01 -0.44645769090E+01  0.29752432842E+02  0.00000000000E+00 0.  1.
</event>
<event>
 8    1  0.6901948E-009  0.1905717E+03  0.7561462E-02  0.1157947E+00
         -1   -1    0    0    0  501 -0.00000000000E+00  0.00000000000E+00  0.91601339289E+02  0.91601339289E+02  0.00000000000E+00 0.  1.
          1   -1    0    0  501    0  0.00000000000E+00 -0.00000000000E+00 -0.49282815361E+03  0.49282815361E+03  0.00000000000E+00 0. -1.
         25    2    1    2    0    0 -0.76823244630E+02 -0.13780648541E+03 -0.33273626737E+03  0.38891201800E+03  0.12508675305E+03 0.  0.
         23    2    1    2    0    0  0.76823244630E+02  0.13780648541E+03 -0.68490546955E+02  0.19551747490E+03  0.92971445262E+02 0.  0.
          5    1    3    3  502    0  0.14015149694E+01  0.21324566177E+02 -0.57404196395E+02  0.61395566050E+02  0.41800000000E+01 0.  1.
         -5    1    3    3    0  502 -0.78224759599E+02 -0.15913105158E+03 -0.27533207097E+03  0.32751645195E+03  0.41800000000E+01 0.  1.
        -11    1    4    4    0    0 -0.40205965548E+01  0.85754098239E+02 -0.43149657589E+02  0.96082378777E+02  0.00000000000E+00 0. -1.
         11    1    4    4    0    0  0.80843841184E+02  0.52052387166E+02 -0.25340889366E+02  0.99435096123E+02  0.00000000000E+00 0.  1.
</event>
<event>
 8    1  0.6901948E-009  0.8462605E+02  0.7561462E-02  0.1316413E+00
         -2   -1    0    0    0  501 -0.00000000000E+00  0.00000000000E+00  0.66958741068E+03  0.66958741068E+03  0.00000000000E+00 0.  1.
          2   -1    0    0  501    0  0.00000000000E+00 -0.00000000000E+00 -0.24788032013E+02  0.24788032013E+02  0.00000000000E+00 0. -1.
         25    2    1    2    0    0 -0.16779456051E+02  0.71978066001E+02  0.38238750354E+03  0.40907257338E+03  0.12513103251E+03 0.  0.
         23    2    1    2    0    0  0.16779456051E+02 -0.71978066001E+02  0.26241187513E+03  0.28530286931E+03  0.84115057511E+02 0.  0.
          5    1    3    3  502    0 -0.27126111109E+02  0.66950985673E+01  0.30872226830E+03  0.31001219588E+03  0.41800000000E+01 0. -1.
         -5    1    3    3    0  502  0.10346655058E+02  0.65282967434E+02  0.73665235237E+02  0.99060377499E+02  0.41800000000E+01 0. -1.
        -11    1    4    4    0    0  0.15591333647E+02 -0.42507363261E+02  0.24868036731E+03  0.25276845274E+03  0.00000000000E+00 0.  1.
         11    1    4    4    0    0  0.11881224040E+01 -0.29470702740E+02  0.13731507822E+02  0.32534416576E+02  0.00000000000E+00 0. -1.
</event>
<event>
 8    1  0.6901948E-009  0.9433059E+02  0.7561462E-02  0.1292691E+00
          2   -1    0    0  501    0  0.00000000000E+00  0.00000000000E+00  0.90382601728E+03  0.90382601728E+03  0.00000000000E+00 0. -1.
         -2   -1    0    0    0  501 -0.00000000000E+00 -0.00000000000E+00 -0.17834434765E+02  0.17834434765E+02  0.00000000000E+00 0.  1.
         25    2    1    2    0    0  0.26121172944E+02  0.46064719257E+02  0.62959451245E+03  0.64408223340E+03  0.12509356191E+03 0.  0.
         23    2    1    2    0    0 -0.26121172944E+02 -0.46064719257E+02  0.25639707006E+03  0.27757821865E+03  0.92227630866E+02 0.  0.
          5    1    3    3  502    0 -0.32272481938E+00 -0.21745132726E+02  0.19083178707E+02  0.29233457855E+02  0.41800000000E+01 0.  1.
         -5    1    3    3    0  502  0.26443897764E+02  0.67809851983E+02  0.61051133374E+03  0.61484877554E+03  0.41800000000E+01 0.  1.
        -11    1    4    4    0    0 -0.53177162828E+02 -0.38069259070E+02  0.22936059859E+03  0.23850233399E+03  0.00000000000E+00 0. -1.
         11    1    4    4    0    0  0.27055989884E+02 -0.79954601866E+01  0.27036471469E+02  0.39075884657E+02  0.00000000000E+00 0.  1.
</event>
<event>
 8    1  0.6901948E-009  0.2515398E+03  0.7561462E-02  0.1112336E+00
          2   -1    0    0  501    0  0.00000000000E+00  0.00000000000E+00  0.15836647284E+04  0.15836647284E+04  0.00000000000E+00 0. -1.
         -2   -1    0    0    0  501 -0.00000000000E+00 -0.00000000000E+00 -0.42219547810E+02  0.42219547810E+02  0.00000000000E+00 0.  1.
         25    2    1    2    0    0  0.84184849218E+02 -0.21860128231E+03  0.78466585079E+03  0.82838429709E+03  0.12508571781E+03 0.  0.
         23    2    1    2    0    0 -0.84184849218E+02  0.21860128231E+03  0.75677932975E+03  0.79749997907E+03  0.91747769546E+02 0.  0.
          5    1    3    3  502    0  0.19841067057E+02 -0.18991455467E+03  0.63131813987E+03  0.65957658551E+03  0.41800000000E+01 0. -1.
         -5    1    3    3    0  502  0.64343782161E+02 -0.28686727641E+02  0.15334771092E+03  0.16880771158E+03  0.41800000000E+01 0. -1.
        -11    1    4    4    0    0 -0.88192797026E+02  0.15935957988E+03  0.65310342275E+03  0.67802472370E+03  0.00000000000E+00 0. -1.
         11    1    4    4    0    0  0.40079478076E+01  0.59241702436E+02  0.10367590700E+03  0.11947525537E+03  0.00000000000E+00 0.  1.
</event>
<event>
 8    1  0.6901948E-009  0.1563664E+03  0.7561462E-02  0.1192861E+00
          1   -1    0    0  501    0  0.00000000000E+00  0.00000000000E+00  0.20873659436E+04  0.20873659436E+04  0.00000000000E+00 0. -1.
         -1   -1    0    0    0  501 -0.00000000000E+00 -0.00000000000E+00 -0.14516863898E+02  0.14516863898E+02  0.00000000000E+00 0.  1.
         25    2    1    2    0    0  0.86931899067E+02 -0.77607511630E+02  0.15479615883E+04  0.15573734776E+04  0.12508792531E+03 0.  0.
         23    2    1    2    0    0 -0.86931899067E+02  0.77607511630E+02  0.52488749141E+03  0.54450932987E+03  0.86043307350E+02 0.  0.
          5    1    3    3  502    0 -0.29463127956E+02  0.20706702031E+01  0.26302416108E+03  0.26471030448E+03  0.41800000000E+01 0. -1.
         -5    1    3    3    0  502  0.11639502702E+03 -0.79678181833E+02  0.12849374272E+04  0.12926631732E+04  0.41800000000E+01 0. -1.
        -11    1    4    4    0    0 -0.26996134283E+02  0.77269113629E+02  0.24618146845E+03  0.25943134466E+03  0.00000000000E+00 0.  1.
         11    1    4    4    0    0 -0.59935764783E+02  0.33839800075E+00  0.27870602296E+03  0.28507798520E+03  0.00000000000E+00 0. -1.
</event>
<event>
 8    1  0.6901948E-009  0.1131408E+03  0.7561462E-02  0.1254862E+00
          1   -1    0    0  501    0  0.00000000000E+00  0.00000000000E+00  0.12971699205E+03  0.12971699205E+03  0.00000000000E+00 0. -1.
         -1   -1    0    0    0  501 -0.00000000000E+00 -0.00000000000E+00 -0.12279486604E+03  0.12279486604E+03  0.00000000000E+00 0.  1.
         25    2    1    2    0    0  0.54162458774E+02 -0.31792124204E+02  0.11894962828E+02  0.14048346827E+03  0.12509917511E+03 0.  0.
         23    2    1    2    0    0 -0.54162458774E+02  0.31792124204E+02 -0.49728368209E+01  0.11202838982E+03  0.92635413954E+02 0.  0.
          5    1    3    3  502    0 -0.31197144683E+02 -0.42379042577E+02 -0.38942700442E+01  0.52932814258E+02  0.41800000000E+01 0. -1.
         -5    1    3    3    0  502  0.85359603457E+02  0.10586918373E+02  0.15789232872E+02  0.87550654011E+02  0.41800000000E+01 0. -1.
        -11    1    4    4    0    0 -0.49298745004E+02 -0.56490779903E+01 -0.37496823007E+02  0.62195579238E+02  0.00000000000E+00 0.  1.
         11    1    4    4    0    0 -0.48637137696E+01  0.37441202194E+02  0.32523986186E+02  0.49832810585E+02  0.00000000000E+00 0. -1.
</event>
<event>
 8    1  0.6901948E-009  0.1155611E+03  0.7561462E-02  0.1250605E+00
          2   -1    0    0  501    0  0.00000000000E+00  0.00000000000E+00  0.39421221653E+03  0.39421221653E+03  0.00000000000E+00 0.  1.
         -2   -1    0    0    0  501 -0.00000000000E+00 -0.00000000000E+00 -0.56233948855E+02  0.56233948855E+02  0.00000000000E+00 0. -1.
         25    2    1    2    0    0 -0.53389461897E+02  0.42043122999E+02  0.68287889735E+02  0.15788791961E+03  0.12508916996E+03 0.  0.
         23    2    1    2    0    0  0.53389461897E+02 -0.42043122999E+02  0.26969037794E+03  0.29255824577E+03  0.90770966636E+02 0.  0.
          5    1    3    3  502    0 -0.86975377491E+02  0.33702838795E+02  0.15527956468E+02  0.94652984446E+02  0.41800000000E+01 0.  1.
         -5    1    3    3    0  502  0.33585915593E+02  0.83402842040E+01  0.52759933267E+02  0.63234935164E+02  0.41800000000E+01 0.  1.
        -11    1    4    4    0    0  0.68701039840E+02 -0.12797785645E+02  0.23276095245E+03  0.24302526037E+03  0.00000000000E+00 0.  1.
         11    1    4    4    0    0 -0.15311577942E+02 -0.29245337354E+02  0.36929425489E+02  0.49532985403E+02  0.00000000000E+00 0. -1.
</event>
<event>
 8    1  0.6901948E-009  0.8889652E+02  0.7561462E-02  0.1305546E+00
         -1   -1    0    0    0  501 -0.00000000000E+00  0.00000000000E+00  0.13373060434E+04  0.13373060434E+04  0.00000000000E+00 0.  1.
          1   -1    0    0  501    0  0.00000000000E+00 -0.00000000000E+00 -0.10496417849E+02  0.10496417849E+02  0.00000000000E+00 0. -1.
         25    2    1    2    0    0  0.24744442656E+02  0.43854762802E+01  0.97594033588E+03  0.98424510183E+03  0.12508941377E+03 0.  0.
         23    2    1    2    0    0 -0.24744442656E+02 -0.43854762802E+01  0.35086928965E+03  0.36355735940E+03  0.91832321694E+02 0.  0.
          5    1    3    3  502    0  0.35362759967E+02  0.36930018126E+02  0.17011500870E+03  0.17768213083E+03  0.41800000000E+01 0.  1.
         -5    1    3    3    0  502 -0.10618317310E+02 -0.32544541846E+02  0.80582532718E+03  0.80656297100E+03  0.41800000000E+01 0.  1.
        -11    1    4    4    0    0 -0.35709221095E+02 -0.40656783059E+02  0.25039412814E+03  0.25617443645E+03  0.00000000000E+00 0.  1.
         11    1    4    4    0    0  0.10964778439E+02  0.36271306779E+02  0.10047516151E+03  0.10738292295E+03  0.00000000000E+00 0. -1.
</event>
<event>
 8    1  0.6901948E-009  0.1163378E+03  0.7561462E-02  0.1249264E+00
         -2   -1    0    0    0  501 -0.00000000000E+00  0.00000000000E+00  0.40482960371E+03  0.40482960371E+03  0.00000000000E+00 0.  1.
          2   -1    0    0  501    0  0.00000000000E+00 -0.00000000000E+00 -0.43276619832E+02  0.43276619832E+02  0.00000000000E+00 0. -1.
         25    2    1    2    0    0  0.52737673305E+02  0.72912817235E+01  0.29104488041E+03  0.32123097805E+03  0.12509114228E+03 0.  0.
         23    2    1    2    0    0 -0.52737673305E+02 -0.72912817235E+01  0.70508103474E+02  0.12687524549E+03  0.91057730524E+02 0.  0.
          5    1    3    3  502    0 -0.40098491442E+02  0.13037989255E+02  0.10378145156E+03  0.11209790483E+03  0.41800000000E+01 0. -1.
         -5    1    3    3    0  502  0.92836164746E+02 -0.57467075316E+01  0.18726342885E+03  0.20913307323E+03  0.41800000000E+01 0. -1.
        -11    1    4    4    0    0 -0.46652430079E+01  0.33699153372E+02  0.49957051006E+02  0.60440916402E+02  0.00000000000E+00 0.  1.
         11    1    4    4    0    0 -0.48072430297E+02 -0.40990435096E+02  0.20551052468E+02  0.66434329089E+02  0.00000000000E+00 0. -1.
</event>
<event>
 8    1  0.6901948E-009  0.1984909E+03  0.7561462E-02  0.1151019E+00
          2   -1    0    0  501    0  0.00000000000E+00  0.00000000000E+00  0.87516264536E+03  0.87516264536E+03  0.00000000000E+00 0. -1.
         -2   -1    0    0    0  501 -0.00000000000E+00 -0.00000000000E+00 -0.45982011834E+02  0.45982011834E+02  0.00000000000E+00 0.  1.
         25    2    1    2    0    0 -0.16352877733E+03 -0.38334837331E+02  0.44044453573E+03  0.48769871751E+03  0.12508968477E+03 0.  0.
         23    2    1    2    0    0  0.16352877733E+03  0.38334837331E+02  0.38873609779E+03  0.43344593968E+03  0.92457601799E+02 0.  0.
          5    1    3    3  502    0 -0.16799420252E+03 -0.63559431847E+02  0.41034556086E+03  0.44795402127E+03  0.41800000000E+01 0. -1.
         -5    1    3    3    0  502  0.44654251879E+01  0.25224594515E+02  0.30098974871E+02  0.39744696236E+02  0.41800000000E+01 0. -1.
        -11    1    4    4    0    0  0.15248268243E+03  0.62497725010E+02  0.34350907345E+03  0.38099267396E+03  0.00000000000E+00 0.  1.
         11    1    4    4    0    0  0.11046094906E+02 -0.24162887678E+02  0.45227024346E+02  0.52453265721E+02  0.00000000000E+00 0. -1.
</event>
<event>
 8    1  0.6901948E-009  0.2061686E+03  0.7561462E-02  0.1144636E+00
         -1   -1    0    0    0  501 -0.00000000000E+00  0.00000000000E+00  0.10687208629E+04  0.10687208629E+04  0.00000000000E+00 0.  1.
          1   -1    0    0  501    0  0.00000000000E+00 -0.00000000000E+00 -0.52789901908E+02  0.52789901908E+02  0.00000000000E+00 0. -1.
         25    2    1    2    0    0  0.87362824629E+02 -0.16926868321E+03  0.74719883143E+03  0.78117716713E+03  0.12509005761E+03 0.  0.
         23    2    1    2    0    0 -0.87362824629E+02  0.16926868321E+03  0.26873212959E+03  0.34033359771E+03  0.85591179514E+02 0.  0.
          5    1    3    3  502    0 -0.23012609583E+02 -0.29448738086E+02  0.56549705904E+02  0.67912811843E+02  0.41800000000E+01 0.  1.
         -5    1    3    3    0  502  0.11037543421E+03 -0.13981994513E+03  0.69064912553E+03  0.71326435529E+03  0.41800000000E+01 0.  1.
        -11    1    4    4    0    0 -0.79413562395E+02  0.10429659756E+03  0.22870057750E+03  0.26360623723E+03  0.00000000000E+00 0. -1.
         11    1    4    4    0    0 -0.79492622333E+01  0.64972085648E+02  0.40031552088E+02  0.76727360479E+02  0.00000000000E+00 0.  1.
</event>
<event>
 8    1  0.6901948E-009  0.8017213E+02  0.7561462E-02  0.1328564E+00
         -1   -1    0    0    0  501 -0.00000000000E+00  0.00000000000E+00  0.24464959905E+02  0.24464959905E+02  0.00000000000E+00 0.  1.
          1   -1    0    0  501    0  0.00000000000E+00 -0.00000000000E+00 -0.63535450835E+03  0.63535450835E+03  0.00000000000E+00 0. -1.
         25    2    1    2    0    0 -0.21142959017E+02  0.15649481682E+02 -0.48770466859E+03  0.50417841371E+03  0.12509235829E+03 0.  0.
         23    2    1    2    0    0  0.21142959017E+02 -0.15649481682E+02 -0.12318487986E+03  0.15564105455E+03  0.91420414787E+02 0.  0.
          5    1    3    3  502    0 -0.18197378286E+02  0.60757800775E+02 -0.40387138406E+03  0.40884253961E+03  0.41800000000E+01 0. -1.
         -5    1    3    3    0  502 -0.29455807317E+01 -0.45108319093E+02 -0.83833284526E+02  0.95335874107E+02  0.41800000000E+01 0. -1.
        -11    1    4    4    0    0  0.12891517042E+02  0.14922052222E+02  0.75579113271E+01  0.21118259345E+02  0.00000000000E+00 0.  1.
         11    1    4    4    0    0  0.82514419760E+01 -0.30571533904E+02 -0.13074279119E+03  0.13452279520E+03  0.00000000000E+00 0. -1.
</event>
<event>
 8    1  0.6901948E-009  0.5835264E+02  0.7561462E-02  0.1404878E+00
          1   -1    0    0  501    0  0.00000000000E+00  0.00000000000E+00  0.14070251839E+03  0.14070251839E+03  0.00000000000E+00 0. -1.
         -1   -1    0    0    0  501 -0.00000000000E+00 -0.00000000000E+00 -0.85773713743E+02  0.85773713743E+02  0.00000000000E+00 0.  1.
         25    2    1    2    0    0  0.70592209262E-01  0.17023615645E+02  0.29501313834E+02  0.12964251616E+03  0.12508815294E+03 0.  0.
         23    2    1    2    0    0 -0.70592209262E-01 -0.17023615645E+02  0.25427490816E+02  0.96833715974E+02  0.91871664768E+02 0.  0.
          5    1    3    3  502    0 -0.27266613471E+02  0.51596948625E+01  0.72167440268E+02  0.77431921686E+02  0.41800000000E+01 0.  1.
         -5    1    3    3    0  502  0.27337205680E+02  0.11863920782E+02 -0.42666126434E+02  0.52210594477E+02  0.41800000000E+01 0.  1.
        -11    1    4    4    0    0 -0.19947330639E+02 -0.29108359307E+02 -0.23679269645E+02  0.42495886766E+02  0.00000000000E+00 0.  1.
         11    1    4    4    0    0  0.19876738430E+02  0.12084743662E+02  0.49106760461E+02  0.54337829207E+02  0.00000000000E+00 0. -1.
</event>
<event>
 8    1  0.6901948E-009  0.9865793E+02  0.7561462E-02  0.1283144E+00
          1   -1    0    0  501    0  0.00000000000E+00  0.00000000000E+00  0.48634482759E+03  0.48634482759E+03  0.00000000000E+00 0. -1.
         -1   -1    0    0    0  501 -0.00000000000E+00 -0.00000000000E+00 -0.33950804097E+02  0.33950804097E+02  0.00000000000E+00 0.  1.
         25    2    1    2    0    0 -0.68313080565E+02  0.74578134494E+01  0.24642730609E+03  0.28477424470E+03  0.12509059635E+03 0.  0.
         23    2    1    2    0    0  0.68313080565E+02 -0.74578134494E+01  0.20596671740E+03  0.23552138699E+03  0.91245488090E+02 0.  0.
          5    1    3    3  502    0  0.16901428987E+02 -0.30108318021E+02  0.13542643382E+03  0.13982117326E+03  0.41800000000E+01 0. -1.
         -5    1    3    3    0  502 -0.85214509552E+02  0.37566131470E+02  0.11100087228E+03  0.14495307143E+03  0.41800000000E+01 0. -1.
        -11    1    4    4    0    0  0.16128454744E+02  0.20917257323E+01 -0.57569787093E+01  0.17252396147E+02  0.00000000000E+00 0.  1.
         11    1    4    4    0    0  0.52184625821E+02 -0.95495391817E+01  0.21172369611E+03  0.21826899084E+03  0.00000000000E+00 0. -1.
</event>
<event>
 8    1  0.6901948E-009  0.1113718E+03  0.7561462E-02  0.1258050E+00
         -3   -1    0    0    0  501 -0.00000000000E+00  0.00000000000E+00  0.32495866094E+03  0.32495866094E+03  0.00000000000E+00 0.  1.
          3   -1    0    0  501    0  0.00000000000E+00 -0.00000000000E+00 -0.55239533852E+02  0.55239533852E+02  0.00000000000E+00 0. -1.
         25    2    1    2    0    0 -0.33977966052E+00 -0.25210451777E+02  0.48387288228E+02  0.13647402898E+03  0.12509256011E+03 0.  0.
         23    2    1    2    0    0  0.33977966052E+00  0.25210451777E+02  0.22133183886E+03  0.24372416581E+03  0.98883789261E+02 0.  0.
          5    1    3    3  502    0 -0.48616037981E+02 -0.47687996883E+02  0.63942323683E+01  0.68527533177E+02  0.41800000000E+01 0.  1.
         -5    1    3    3    0  502  0.48276258321E+02  0.22477545106E+02  0.41993055860E+02  0.67946495803E+02  0.41800000000E+01 0.  1.
        -11    1    4    4    0    0  0.45214848826E+01  0.62957984055E+02  0.15374605781E+03  0.16619868192E+03  0.00000000000E+00 0.  1.
         11    1    4    4    0    0 -0.41817052221E+01 -0.37747532278E+02  0.67585781054E+02  0.77525483890E+02  0.00000000000E+00 0. -1.
</event>
<event>
 8    1  0.6901948E-009  0.3917356E+03  0.7561462E-02  0.1046680E+00
          1   -1    0    0  501    0  0.00000000000E+00  0.00000000000E+00  0.33241943608E+03  0.33241943608E+03  0.00000000000E+00 0. -1.
         -1   -1    0    0    0  501 -0.00000000000E+00 -0.00000000000E+00 -0.49395998352E+03  0.49395998352E+03  0.00000000000E+00 0.  1.
         25    2    1    2    0    0  0.20842138269E+03  0.32830606026E+03 -0.47502999363E+02  0.41125308844E+03  0.12509286885E+03 0.  0.
         23    2    1    2    0    0 -0.20842138269E+03 -0.32830606026E+03 -0.11403754808E+03  0.41512633115E+03  0.90005369141E+02 0.  0.
          5    1    3    3  502    0  0.15729306343E+03  0.28710620134E+03  0.44379001918E+01  0.32742670327E+03  0.41800000000E+01 0.  1.
         -5    1    3    3    0  502  0.51128319265E+02  0.41199858917E+02 -0.51940899555E+02  0.83826385179E+02  0.41800000000E+01 0.  1.
        -11    1    4    4    0    0 -0.13061509039E+03 -0.23433103999E+03 -0.11795016819E+03  0.29305900484E+03  0.00000000000E+00 0.  1.
         11    1    4    4    0    0 -0.77806292300E+02 -0.93975020269E+02  0.39126201126E+01  0.12206732631E+03  0.00000000000E+00 0. -1.
</event>
<event>
 8    1  0.6901948E-009  0.1556259E+03  0.7561462E-02  0.1193726E+00
         -3   -1    0    0    0  501 -0.00000000000E+00  0.00000000000E+00  0.52996136510E+02  0.52996136510E+02  0.00000000000E+00 0.  1.
          3   -1    0    0  501    0  0.00000000000E+00 -0.00000000000E+00 -0.63537297344E+03  0.63537297344E+03  0.00000000000E+00 0. -1.
         25    2    1    2    0    0 -0.11107223472E+03  0.12146296755E+02 -0.47688727638E+03  0.50552354710E+03  0.12509199994E+03 0.  0.
         23    2    1    2    0    0  0.11107223472E+03 -0.12146296755E+02 -0.10548956055E+03  0.18284556285E+03  0.99095300686E+02 0.  0.
          5    1    3    3  502    0  0.25315575903E+02  0.17423082894E+02 -0.97105324362E+02  0.10193801362E+03  0.41800000000E+01 0. -1.
         -5    1    3    3    0  502 -0.13638781062E+03 -0.52767861391E+01 -0.37978195202E+03  0.40358553348E+03  0.41800000000E+01 0. -1.
        -11    1    4    4    0    0  0.11077317596E+03  0.19123612416E+02 -0.10125081366E+03  0.15128825575E+03  0.00000000000E+00 0. -1.
         11    1    4    4    0    0  0.29905876201E+00 -0.31269909171E+02 -0.42387468907E+01  0.31557307092E+02  0.00000000000E+00 0.  1.
</event>
<event>
 8    1  0.6901948E-009  0.1309748E+03  0.7561462E-02  0.1226016E+00
          2   -1    0    0  501    0  0.00000000000E+00  0.00000000000E+00  0.65165567759E+03  0.65165567759E+03  0.00000000000E+00 0. -1.
         -2   -1    0    0    0  501 -0.00000000000E+00 -0.00000000000E+00 -0.43874211185E+02  0.43874211185E+02  0.00000000000E+00 0.  1.
         25    2    1    2    0    0  0.78216259730E+02  0.95104419820E+02  0.24084000054E+03  0.29801577429E+03  0.12508741707E+03 0.  0.
         23    2    1    2    0    0 -0.78216259730E+02 -0.95104419820E+02  0.36694146587E+03  0.39751411449E+03  0.90602416568E+02 0.  0.
          5    1    3    3  502    0  0.27001308054E+01  0.15918324181E+02 -0.13272194036E+02  0.21314485348E+02  0.41800000000E+01 0.  1.
         -5    1    3    3    0  502  0.75516128925E+02  0.79186095638E+02  0.25411219457E+03  0.27670128894E+03  0.41800000000E+01 0.  1.
        -11    1    4    4    0    0 -0.17220244590E+02 -0.65956323992E+02  0.27543124139E+03  0.28374132979E+03  0.00000000000E+00 0. -1.
         11    1    4    4    0    0 -0.60996015140E+02 -0.29148095828E+02  0.91510224476E+02  0.11377278469E+03  0.00000000000E+00 0.  1.
</event>
<event>
 8    1  0.6901948E-009  0.3372359E+03  0.7561462E-02  0.1067979E+00
          1   -1    0    0  501    0  0.00000000000E+00  0.00000000000E+00  0.89414305934E+03  0.89414305934E+03  0.00000000000E+00 0. -1.
         -1   -1    0    0    0  501 -0.00000000000E+00 -0.00000000000E+00 -0.13518561599E+03  0.13518561599E+03  0.00000000000E+00 0.  1.
         25    2    1    2    0    0 -0.30393211369E+03 -0.12268142868E+03  0.32847375101E+03  0.48059206289E+03  0.12509301791E+03 0.  0.
         23    2    1    2    0    0  0.30393211369E+03  0.12268142868E+03  0.43048369235E+03  0.54873661244E+03  0.91488784971E+02 0.  0.
          5    1    3    3  502    0 -0.29113062567E+03 -0.14127857369E+03  0.28412536818E+03  0.43065226556E+03  0.41800000000E+01 0. -1.
         -5    1    3    3    0  502 -0.12801488018E+02  0.18597145001E+02  0.44348382825E+02  0.49939797325E+02  0.41800000000E+01 0. -1.
        -11    1    4    4    0    0  0.13196706236E+03  0.58136287369E+02  0.26408844567E+03  0.30089506575E+03  0.00000000000E+00 0. -1.
         11    1    4    4    0    0  0.17196505133E+03  0.64545141316E+02  0.16639524668E+03  0.24784154669E+03  0.00000000000E+00 0.  1.
</event>
<event>
 8    1  0.6901948E-009  0.7883177E+02  0.7561462E-02  0.1332400E+00
         -2   -1    0    0    0  501 -0.00000000000E+00  0.00000000000E+00  0.20352289761E+03  0.20352289761E+03  0.00000000000E+00 0.  1.
          2   -1    0    0  501    0  0.00000000000E+00 -0.00000000000E+00 -0.72325747050E+02  0.72325747050E+02  0.00000000000E+00 0. -1.
         25    2    1    2    0    0  0.10797294764E+02  0.57465464992E+01  0.11027995283E+02  0.12616908001E+03  0.12508963067E+03 0.  0.
         23    2    1    2    0    0 -0.10797294764E+02 -0.57465464992E+01  0.12016915528E+03  0.14967956465E+03  0.88395372178E+02 0.  0.
          5    1    3    3  502    0  0.34342056833E+02  0.27288941297E+02 -0.44095417458E+02  0.62337319684E+02  0.41800000000E+01 0. -1.
         -5    1    3    3    0  502 -0.23544762069E+02 -0.21542394797E+02  0.55123412741E+02  0.63831760329E+02  0.41800000000E+01 0. -1.
        -11    1    4    4    0    0 -0.56955835291E+01 -0.43221228283E+02  0.94209077764E+02  0.10380686191E+03  0.00000000000E+00 0.  1.
         11    1    4    4    0    0 -0.51017112349E+01  0.37474681784E+02  0.25960077516E+02  0.45872702743E+02  0.00000000000E+00 0. -1.
</event>
<event>
 8    1  0.6901948E-009  0.1335693E+03  0.7561462E-02  0.1222254E+00
         -1   -1    0    0    0  501 -0.00000000000E+00  0.00000000000E+00  0.11660193600E+03  0.11660193600E+03  0.00000000000E+00 0. -1.
          1   -1    0    0  501    0  0.00000000000E+00 -0.00000000000E+00 -0.16917939590E+03  0.16917939590E+03  0.00000000000E+00 0.  1.
         25    2    1    2    0    0  0.16016175240E+02  0.90687077120E+02 -0.33275655902E+02  0.15885576231E+03  0.12508884890E+03 0.  0.
         23    2    1    2    0    0 -0.16016175240E+02 -0.90687077120E+02 -0.19301803994E+02  0.12692556958E+03  0.85187303928E+02 0.  0.
          5    1    3    3  502    0 -0.46378322466E+02  0.36885368152E+02  0.17573222294E+02  0.61949735433E+02  0.41800000000E+01 0. -1.
         -5    1    3    3    0  502  0.62394497706E+02  0.53801708968E+02 -0.50848878196E+02  0.96906026880E+02  0.41800000000E+01 0. -1.
        -11    1    4    4    0    0  0.32009654909E+02 -0.14411201711E+02 -0.21316252653E+01  0.35168801067E+02  0.00000000000E+00 0. -1.
         11    1    4    4    0    0 -0.48025830150E+02 -0.76275875408E+02 -0.17170178728E+02  0.91756768515E+02  0.00000000000E+00 0.  1.
</event>
<event>
 8    1  0.6901948E-009  0.1820752E+03  0.7561462E-02  0.1165810E+00
         -1   -1    0    0    0  501 -0.00000000000E+00  0.00000000000E+00  0.60613810868E+02  0.60613810868E+02  0.00000000000E+00 0.  1.
          1   -1    0    0  501    0  0.00000000000E+00 -0.00000000000E+00 -0.68887554287E+03  0.68887554287E+03  0.00000000000E+00 0. -1.
         25    2    1    2    0    0 -0.49878870470E+02  0.16262191183E+03 -0.38350283004E+03  0.43778927650E+03  0.12510492411E+03 0.  0.
         23    2    1    2    0    0  0.49878870470E+02 -0.16262191183E+03 -0.24475890196E+03  0.31170007725E+03  0.91193366760E+02 0.  0.
          5    1    3    3  502    0 -0.70369077357E+02  0.15246719356E+03 -0.24317998911E+03  0.29555377119E+03  0.41800000000E+01 0.  1.
         -5    1    3    3    0  502  0.20490206887E+02  0.10154718261E+02 -0.14032284094E+03  0.14223550531E+03  0.41800000000E+01 0.  1.
        -11    1    4    4    0    0  0.32907950640E+01 -0.61529373032E+02 -0.27271237181E+02  0.67382590150E+02  0.00000000000E+00 0.  1.
         11    1    4    4    0    0  0.46588075406E+02 -0.10109253879E+03 -0.21748766478E+03  0.24431748710E+03  0.00000000000E+00 0. -1.
</event>
<event>
 8    1  0.6901948E-009  0.7758566E+02  0.7561462E-02  0.1336046E+00
         -3   -1    0    0    0  501 -0.00000000000E+00  0.00000000000E+00  0.33736038904E+03  0.33736038904E+03  0.00000000000E+00 0. -1.
          3   -1    0    0  501    0  0.00000000000E+00 -0.00000000000E+00 -0.38579213014E+02  0.38579213014E+02  0.00000000000E+00 0.  1.
         25    2    1    2    0    0 -0.28679740898E+01  0.14268223036E+02  0.11979002422E+03  0.17380541931E+03  0.12508743507E+03 0.  0.
         23    2    1    2    0    0  0.28679740898E+01 -0.14268223036E+02  0.17899115180E+03  0.20213418275E+03  0.92782476508E+02 0.  0.
          5    1    3    3  502    0  0.34490515059E+02  0.42092887666E+02  0.11401786436E+02  0.55757330954E+02  0.41800000000E+01 0. -1.
         -5    1    3    3    0  502 -0.37358489149E+02 -0.27824664630E+02  0.10838823779E+03  0.11804808835E+03  0.41800000000E+01 0. -1.
        -11    1    4    4    0    0 -0.23959302355E+02 -0.12182882764E+01  0.36417607203E+01  0.24265094618E+02  0.00000000000E+00 0.  1.
         11    1    4    4    0    0  0.26827276445E+02 -0.13049934759E+02  0.17534939108E+03  0.17786908813E+03  0.00000000000E+00 0. -1.
</event>
<event>
 8    1  0.6901948E-009  0.1120457E+03  0.7561462E-02  0.1256828E+00
         -2   -1    0    0    0  501 -0.00000000000E+00  0.00000000000E+00  0.10193811003E+03  0.10193811003E+03  0.00000000000E+00 0. -1.
          2   -1    0    0  501    0  0.00000000000E+00 -0.00000000000E+00 -0.18844372567E+03  0.18844372567E+03  0.00000000000E+00 0.  1.
         25    2    1    2    0    0  0.58809534762E+01 -0.83286778798E+02 -0.73690416326E+02  0.16746392508E+03  0.12507044259E+03 0.  0.
         23    2    1    2    0    0 -0.58809534762E+01  0.83286778798E+02 -0.12815199307E+02  0.12291791062E+03  0.89293394383E+02 0.  0.
          5    1    3    3  502    0  0.59482852920E+00 -0.10164043913E+03 -0.11623115405E+02  0.10238995019E+03  0.41800000000E+01 0.  1.
         -5    1    3    3    0  502  0.52861249470E+01  0.18353660336E+02 -0.62067300921E+02  0.65073974893E+02  0.41800000000E+01 0.  1.
        -11    1    4    4    0    0 -0.19552007255E+02  0.11942061013E+01 -0.31993245166E+02  0.37513662207E+02  0.00000000000E+00 0.  1.
         11    1    4    4    0    0  0.13671053778E+02  0.82092572696E+02  0.19178045859E+02  0.85404248409E+02  0.00000000000E+00 0. -1.
</event>
<event>
 8    1  0.6901948E-009  0.1246456E+03  0.7561462E-02  0.1235624E+00
          1   -1    0    0  501    0  0.00000000000E+00  0.00000000000E+00  0.22561588106E+03  0.22561588106E+03  0.00000000000E+00 0. -1.
         -1   -1    0    0    0  501 -0.00000000000E+00 -0.00000000000E+00 -0.92879781331E+02  0.92879781331E+02  0.00000000000E+00 0.  1.
         25    2    1    2    0    0 -0.42521729520E+02  0.77772644327E+02  0.37005303436E+02  0.15771249632E+03  0.12508859790E+03 0.  0.
         23    2    1    2    0    0  0.42521729520E+02 -0.77772644327E+02  0.95730796297E+02  0.16078316608E+03  0.93968928099E+02 0.  0.
          5    1    3    3  502    0  0.55564443164E+01  0.75851693807E+02 -0.24038430099E+02  0.79872849257E+02  0.41800000000E+01 0. -1.
         -5    1    3    3    0  502 -0.48078173836E+02  0.19209505198E+01  0.61043733536E+02  0.77839647059E+02  0.41800000000E+01 0. -1.
        -11    1    4    4    0    0 -0.37643775219E+01  0.18033674749E+02  0.31518036300E+02  0.36507130472E+02  0.00000000000E+00 0. -1.
         11    1    4    4    0    0  0.46286107042E+02 -0.95806319076E+02  0.64212759997E+02  0.12427603561E+03  0.00000000000E+00 0.  1.
</event>
<event>
 8    1  0.6901948E-009  0.1005665E+03  0.7561462E-02  0.1279109E+00
          2   -1    0    0  501    0  0.00000000000E+00  0.00000000000E+00  0.10864620590E+03  0.10864620590E+03  0.00000000000E+00 0. -1.
         -2   -1    0    0    0  501 -0.00000000000E+00 -0.00000000000E+00 -0.13664277169E+03  0.13664277169E+03  0.00000000000E+00 0.  1.
         25    2    1    2    0    0  0.48192384769E+02 -0.10464110436E+02  0.94765407621E+00  0.13446302582E+03  0.12508958273E+03 0.  0.
         23    2    1    2    0    0 -0.48192384769E+02  0.10464110436E+02 -0.28944219867E+02  0.11082595178E+03  0.94934820626E+02 0.  0.
          5    1    3    3  502    0  0.58985502839E+02 -0.55548647926E+02 -0.19782332025E+02  0.83509010843E+02  0.41800000000E+01 0.  1.
         -5    1    3    3    0  502 -0.10793118071E+02  0.45084537490E+02  0.20729986102E+02  0.50954014976E+02  0.41800000000E+01 0.  1.
        -11    1    4    4    0    0 -0.48866932603E+02  0.27722425730E+02  0.19440357334E+02  0.59451135259E+02  0.00000000000E+00 0. -1.
         11    1    4    4    0    0  0.67454783398E+00 -0.17258315293E+02 -0.48384577201E+02  0.51374816520E+02  0.00000000000E+00 0.  1.
</event>
<event>
 8    1  0.6901948E-009  0.1573874E+03  0.7561462E-02  0.1191678E+00
         -2   -1    0    0    0  501 -0.00000000000E+00  0.00000000000E+00  0.48917753638E+03  0.48917753638E+03  0.00000000000E+00 0.  1.
          2   -1    0    0  501    0  0.00000000000E+00 -0.00000000000E+00 -0.12401146819E+03  0.12401146819E+03  0.00000000000E+00 0. -1.
         25    2    1    2    0    0 -0.11379961633E+03  0.40069819767E+02 -0.41531498151E+02  0.17868430719E+03  0.12508906093E+03 0.  0.
         23    2    1    2    0    0  0.11379961633E+03 -0.40069819767E+02  0.40669756634E+03  0.43450469738E+03  0.93997225754E+02 0.  0.
          5    1    3    3  502    0 -0.79584997451E+02  0.78540133244E+02  0.80946656397E+00  0.11189482555E+03  0.41800000000E+01 0.  1.
         -5    1    3    3    0  502 -0.34214618876E+02 -0.38470313477E+02 -0.42340964715E+02  0.66789481634E+02  0.41800000000E+01 0.  1.
        -11    1    4    4    0    0  0.68718306780E+02  0.24087092596E+02  0.22839732179E+03  0.23972427978E+03  0.00000000000E+00 0.  1.
         11    1    4    4    0    0  0.45081309547E+02 -0.64156912362E+02  0.17830024455E+03  0.19478041760E+03  0.00000000000E+00 0. -1.
</event>
<event>
 8    1  0.6901948E-009  0.1060679E+03  0.7561462E-02  0.1268030E+00
          2   -1    0    0  501    0  0.00000000000E+00  0.00000000000E+00  0.38472924123E+02  0.38472924123E+02  0.00000000000E+00 0. -1.
         -2   -1    0    0    0  501 -0.00000000000E+00 -0.00000000000E+00 -0.37846795425E+03  0.37846795425E+03  0.00000000000E+00 0.  1.
         25    2    1    2    0    0 -0.26567086599E+02  0.46998177142E+02 -0.19002497546E+03  0.23382495629E+03  0.12509988065E+03 0.  0.
         23    2    1    2    0    0  0.26567086599E+02 -0.46998177142E+02 -0.14997005466E+03  0.18311592208E+03  0.90143135508E+02 0.  0.
          5    1    3    3  502    0 -0.37591876802E+02 -0.34893195163E+02 -0.93225391118E+02  0.10648535213E+03  0.41800000000E+01 0.  1.
         -5    1    3    3    0  502  0.11024790203E+02  0.81891372305E+02 -0.96799584343E+02  0.12733960415E+03  0.41800000000E+01 0.  1.
        -11    1    4    4    0    0  0.53799966883E+01 -0.55021830547E+02 -0.33888596566E+02  0.64844299505E+02  0.00000000000E+00 0. -1.
         11    1    4    4    0    0  0.21187089911E+02  0.80236534049E+01 -0.11608145810E+03  0.11827162258E+03  0.00000000000E+00 0.  1.
</event>
<event>
 8    1  0.6901948E-009  0.1105531E+03  0.7561462E-02  0.1259549E+00
          2   -1    0    0  501    0  0.00000000000E+00  0.00000000000E+00  0.12078887179E+04  0.12078887179E+04  0.00000000000E+00 0. -1.
         -2   -1    0    0    0  501 -0.00000000000E+00 -0.00000000000E+00 -0.27563368274E+02  0.27563368274E+02  0.00000000000E+00 0.  1.
         25    2    1    2    0    0  0.87095621526E+02  0.86759712688E+01  0.96189562162E+03  0.97393583464E+03  0.12508758263E+03 0.  0.
         23    2    1    2    0    0 -0.87095621526E+02 -0.86759712688E+01  0.21842972805E+03  0.26151625158E+03  0.11409769489E+03 0.  0.
          5    1    3    3  502    0  0.55316877779E+02  0.76406491811E+01  0.13157022650E+03  0.14299137523E+03  0.41800000000E+01 0.  1.
         -5    1    3    3    0  502  0.31778743747E+02  0.10353220878E+01  0.83032539512E+03  0.83094445941E+03  0.41800000000E+01 0.  1.
        -11    1    4    4    0    0 -0.94487926573E+02 -0.38708881344E+02  0.11609886374E+03  0.15461336270E+03  0.00000000000E+00 0.  1.
         11    1    4    4    0    0  0.73923050466E+01  0.30032910076E+02  0.10233086431E+03  0.10690288889E+03  0.00000000000E+00 0. -1.
</event>
<event>
 8    1  0.6901948E-009  0.1203940E+03  0.7561462E-02  0.1242448E+00
         -2   -1    0    0    0  501 -0.00000000000E+00  0.00000000000E+00  0.38216800734E+02  0.38216800734E+02  0.00000000000E+00 0.  1.
          2   -1    0    0  501    0  0.00000000000E+00 -0.00000000000E+00 -0.47382762736E+03  0.47382762736E+03  0.00000000000E+00 0. -1.
         25    2    1    2    0    0 -0.45705561059E+02  0.51654858533E+02 -0.31466910261E+03  0.34557559534E+03  0.12509446524E+03 0.  0.
         23    2    1    2    0    0  0.45705561059E+02 -0.51654858533E+02 -0.12094172401E+03  0.16646883275E+03  0.91256500859E+02 0.  0.
          5    1    3    3  502    0 -0.67683625244E+01  0.78532242487E+02 -0.10952579984E+03  0.13500554460E+03  0.41800000000E+01 0.  1.
         -5    1    3    3    0  502 -0.38937198535E+02 -0.26877383954E+02 -0.20514330277E+03  0.21057005074E+03  0.41800000000E+01 0.  1.
        -11    1    4    4    0    0  0.68905601806E+02 -0.58260796389E+02 -0.97033579957E+02  0.13250591683E+03  0.00000000000E+00 0. -1.
         11    1    4    4    0    0 -0.23200040747E+02  0.66059378556E+01 -0.23908144054E+02  0.33962915919E+02  0.00000000000E+00 0.  1.
</event>
<event>
 8    1  0.6901948E-009  0.9467498E+02  0.7561462E-02  0.1291910E+00
         -2   -1    0    0    0  501 -0.00000000000E+00  0.00000000000E+00  0.13864205473E+03  0.13864205473E+03  0.00000000000E+00 0.  1.
          2   -1    0    0  501    0  0.00000000000E+00 -0.00000000000E+00 -0.94539623116E+02  0.94539623116E+02  0.00000000000E+00 0. -1.
         25    2    1    2    0    0 -0.28750031374E+02  0.22591149074E+02  0.33524117276E+02  0.13456713119E+03  0.12509005571E+03 0.  0.
         23    2    1    2    0    0  0.28750031374E+02 -0.22591149074E+02  0.10578314333E+02  0.98614546654E+02  0.90972543974E+02 0.  0.
          5    1    3    3  502    0 -0.75664295626E+02  0.31009737955E+02  0.27338484165E+02  0.86322387577E+02  0.41800000000E+01 0. -1.
         -5    1    3    3    0  502  0.46914264251E+02 -0.84185888811E+01  0.61856331113E+01  0.48244743610E+02  0.41800000000E+01 0. -1.
        -11    1    4    4    0    0  0.19069272815E+02  0.12777847141E+02 -0.33917876325E+02  0.40955254579E+02  0.00000000000E+00 0. -1.
         11    1    4    4    0    0  0.96807585589E+01 -0.35368996215E+02  0.44496190657E+02  0.57659292075E+02  0.00000000000E+00 0.  1.
</event>
<event>
 8    1  0.6901948E-009  0.1136511E+03  0.7561462E-02  0.1253954E+00
          2   -1    0    0  501    0  0.00000000000E+00  0.00000000000E+00  0.37333724566E+03  0.37333724566E+03  0.00000000000E+00 0. -1.
         -2   -1    0    0    0  501 -0.00000000000E+00 -0.00000000000E+00 -0.50057364196E+02  0.50057364196E+02  0.00000000000E+00 0.  1.
         25    2    1    2    0    0  0.46606512304E+02 -0.66566754240E+02  0.15802275900E+03  0.21730490009E+03  0.12508767918E+03 0.  0.
         23    2    1    2    0    0 -0.46606512304E+02  0.66566754240E+02  0.16525712247E+03  0.20608970977E+03  0.92518928803E+02 0.  0.
          5    1    3    3  502    0  0.35571786880E+01 -0.93796618174E+02  0.12531243150E+03  0.15662419031E+03  0.41800000000E+01 0.  1.
         -5    1    3    3    0  502  0.43049333616E+02  0.27229863934E+02  0.32710327499E+02  0.60680709783E+02  0.41800000000E+01 0.  1.
        -11    1    4    4    0    0 -0.17523403605E+02  0.36031314832E+02  0.15837265587E+03  0.16336224610E+03  0.00000000000E+00 0. -1.
         11    1    4    4    0    0 -0.29083108699E+02  0.30535439408E+02  0.68844665973E+01  0.42727463671E+02  0.00000000000E+00 0.  1.
</event>
<event>
 8    1  0.6901948E-009  0.1156461E+03  0.7561462E-02  0.1250457E+00
         -1   -1    0    0    0  501 -0.00000000000E+00  0.00000000000E+00  0.28237441138E+03  0.28237441138E+03  0.00000000000E+00 0.  1.
          1   -1    0    0  501    0  0.00000000000E+00 -0.00000000000E+00 -0.57793246874E+02  0.57793246874E+02  0.00000000000E+00 0. -1.
         25    2    1    2    0    0 -0.28811810180E+01  0.49183182894E+02  0.18657062167E+03  0.22996281245E+03  0.12508801524E+03 0.  0.
         23    2    1    2    0    0  0.28811810180E+01 -0.49183182894E+02  0.38010542841E+02  0.11020484581E+03  0.90956143215E+02 0.  0.
          5    1    3    3  502    0  0.10434344034E+02 -0.41343622912E+02  0.59479849243E+02  0.73304130558E+02  0.41800000000E+01 0.  1.
         -5    1    3    3    0  502 -0.13315525052E+02  0.90526805806E+02  0.12709077242E+03  0.15665868189E+03  0.41800000000E+01 0.  1.
        -11    1    4    4    0    0 -0.27754685656E+02  0.10572588114E+02  0.30603897365E+02  0.42646227608E+02  0.00000000000E+00 0.  1.
         11    1    4    4    0    0  0.30635866674E+02 -0.59755771008E+02  0.74066454760E+01  0.67558618198E+02  0.00000000000E+00 0. -1.
</event>
<event>
 8    1  0.6901948E-009  0.1016256E+03  0.7561462E-02  0.1276914E+00
         -1   -1    0    0    0  501 -0.00000000000E+00  0.00000000000E+00  0.15599683339E+02  0.15599683339E+02  0.00000000000E+00 0.  1.
          1   -1    0    0  501    0  0.00000000000E+00 -0.00000000000E+00 -0.95643225177E+03  0.95643225177E+03  0.00000000000E+00 0. -1.
         25    2    1    2    0    0  0.50686107181E+02 -0.10566665284E+02 -0.57065162785E+03  0.58649103478E+03  0.12509083752E+03 0.  0.
         23    2    1    2    0    0 -0.50686107181E+02  0.10566665284E+02 -0.37018094059E+03  0.38554090034E+03  0.94483443956E+02 0.  0.
          5    1    3    3  502    0  0.49926412224E+00 -0.38794585044E+02 -0.54000282554E+02  0.66624109820E+02  0.41800000000E+01 0.  1.
         -5    1    3    3    0  502  0.50186843059E+02  0.28227919760E+02 -0.51665134530E+03  0.51986692496E+03  0.41800000000E+01 0.  1.
        -11    1    4    4    0    0  0.13887027810E+02  0.34845011750E+02 -0.15956412432E+03  0.16391380100E+03  0.00000000000E+00 0.  1.
         11    1    4    4    0    0 -0.64573134991E+02 -0.24278346466E+02 -0.21061681626E+03  0.22162709934E+03  0.00000000000E+00 0. -1.
</event>
<event>
 8    1  0.6901948E-009  0.1465463E+03  0.7561462E-02  0.1204782E+00
          2   -1    0    0  501    0  0.00000000000E+00  0.00000000000E+00  0.22594256692E+04  0.22594256692E+04  0.00000000000E+00 0. -1.
         -2   -1    0    0    0  501 -0.00000000000E+00 -0.00000000000E+00 -0.36087262251E+02  0.36087262251E+02  0.00000000000E+00 0.  1.
         25    2    1    2    0    0  0.94183431528E+02  0.43827887612E+02  0.21058312693E+04  0.21120989121E+04  0.12508028277E+03 0.  0.
         23    2    1    2    0    0 -0.94183431528E+02 -0.43827887612E+02  0.11750713760E+03  0.18341401932E+03  0.95086132482E+02 0.  0.
          5    1    3    3  502    0  0.37234407414E+02  0.83606354849E+02  0.13305301044E+04  0.13336807169E+04  0.41800000000E+01 0. -1.
         -5    1    3    3    0  502  0.56949024114E+02 -0.39778467237E+02  0.77530116495E+03  0.77841819517E+03  0.41800000000E+01 0. -1.
        -11    1    4    4    0    0  0.10521718493E+02 -0.22766685861E+02  0.62996132486E+00  0.25088351808E+02  0.00000000000E+00 0.  1.
         11    1    4    4    0    0 -0.10470515002E+03 -0.21061201751E+02  0.11687717628E+03  0.15832566752E+03  0.00000000000E+00 0. -1.
</event>
<event>
 8    1  0.6901948E-009  0.1601488E+03  0.7561462E-02  0.1188529E+00
          3   -1    0    0  501    0  0.00000000000E+00  0.00000000000E+00  0.10549623359E+04  0.10549623359E+04  0.00000000000E+00 0. -1.
         -3   -1    0    0    0  501 -0.00000000000E+00 -0.00000000000E+00 -0.25070615779E+02  0.25070615779E+02  0.00000000000E+00 0.  1.
         25    2    1    2    0    0 -0.84446296120E+02  0.86045310468E+02  0.54602598662E+03  0.57299817864E+03  0.12509021655E+03 0.  0.
         23    2    1    2    0    0  0.84446296120E+02 -0.86045310468E+02  0.48386573349E+03  0.50703477303E+03  0.91778214365E+02 0.  0.
          5    1    3    3  502    0  0.30122806933E+02  0.29070524019E+02  0.19145923871E+03  0.19602701690E+03  0.41800000000E+01 0. -1.
         -5    1    3    3    0  502 -0.11456910305E+03  0.56974786449E+02  0.35456674790E+03  0.37697116174E+03  0.41800000000E+01 0. -1.
        -11    1    4    4    0    0  0.95731416286E+02 -0.41653358714E+02  0.30394749445E+03  0.32137763727E+03  0.00000000000E+00 0. -1.
         11    1    4    4    0    0 -0.11285120167E+02 -0.44391951754E+02  0.17991823904E+03  0.18565713576E+03  0.00000000000E+00 0.  1.
</event>
<event>
 8    1  0.6901948E-009  0.1361810E+03  0.7561462E-02  0.1218562E+00
         -1   -1    0    0    0  501 -0.00000000000E+00  0.00000000000E+00  0.11554707465E+03  0.11554707465E+03  0.00000000000E+00 0.  1.
          1   -1    0    0  501    0  0.00000000000E+00 -0.00000000000E+00 -0.22519499867E+03  0.22519499867E+03  0.00000000000E+00 0. -1.
         25    2    1    2    0    0 -0.10883700820E+03 -0.13325946306E+02 -0.10123251204E+03  0.19472665533E+03  0.12508946240E+03 0.  0.
         23    2    1    2    0    0  0.10883700820E+03  0.13325946306E+02 -0.84154119767E+01  0.14601541799E+03  0.96055233773E+02 0.  0.
          5    1    3    3  502    0 -0.13132481879E+03  0.60377082295E+01 -0.62143578824E+02  0.14547150491E+03  0.41800000000E+01 0.  1.
         -5    1    3    3    0  502  0.22487810599E+02 -0.19363654535E+02 -0.39088933217E+02  0.49255150416E+02  0.41800000000E+01 0.  1.
        -11    1    4    4    0    0  0.87616783624E+02  0.40674122530E+01 -0.48127352827E+02  0.10004742228E+03  0.00000000000E+00 0. -1.
         11    1    4    4    0    0  0.21220224572E+02  0.92585340527E+01  0.39711940850E+02  0.45967995712E+02  0.00000000000E+00 0.  1.
</event>
<event>
 8    1  0.6901948E-009  0.1668575E+03  0.7561462E-02  0.1181165E+00
          2   -1    0    0  501    0  0.00000000000E+00  0.00000000000E+00  0.84074859409E+03  0.84074859409E+03  0.00000000000E+00 0. -1.
         -2   -1    0    0    0  501 -0.00000000000E+00 -0.00000000000E+00 -0.87297591661E+02  0.87297591661E+02  0.00000000000E+00 0.  1.
         25    2    1    2    0    0  0.26076274539E+01 -0.15607408772E+03  0.56258796634E+02  0.20780028663E+03  0.12509990546E+03 0.  0.
         23    2    1    2    0    0 -0.26076274539E+01  0.15607408772E+03  0.69719220580E+03  0.72024589912E+03  0.91166127481E+02 0.  0.
          5    1    3    3  502    0  0.20034006669E+02 -0.10646976140E+03 -0.24681258606E+02  0.11119266362E+03  0.41800000000E+01 0. -1.
         -5    1    3    3    0  502 -0.17426379216E+02 -0.49604326318E+02  0.80940055241E+02  0.96607623014E+02  0.41800000000E+01 0. -1.
        -11    1    4    4    0    0 -0.30201716700E+02  0.26832827681E+02  0.87224664986E+02  0.96126409040E+02  0.00000000000E+00 0.  1.
         11    1    4    4    0    0  0.27594089246E+02  0.12924126004E+03  0.60996754081E+03  0.62411949008E+03  0.00000000000E+00 0. -1.
</event>
<event>
 8    1  0.6901948E-009  0.1004746E+03  0.7561462E-02  0.1279301E+00
          1   -1    0    0  501    0  0.00000000000E+00  0.00000000000E+00  0.39184049070E+03  0.39184049070E+03  0.00000000000E+00 0. -1.
         -1   -1    0    0    0  501 -0.00000000000E+00 -0.00000000000E+00 -0.78552112879E+02  0.78552112879E+02  0.00000000000E+00 0.  1.
         25    2    1    2    0    0 -0.68468279304E+01  0.17652112293E+02  0.34921993105E+03  0.37142663852E+03  0.12507882091E+03 0.  0.
         23    2    1    2    0    0  0.68468279304E+01 -0.17652112293E+02 -0.35931553230E+02  0.98965965057E+02  0.90248044860E+02 0.  0.
          5    1    3    3  502    0  0.54326553153E+02  0.31916648411E+02  0.16005515292E+03  0.17206153318E+03  0.41800000000E+01 0. -1.
         -5    1    3    3    0  502 -0.61173381084E+02 -0.14264536118E+02  0.18916477813E+03  0.19936510534E+03  0.41800000000E+01 0. -1.
        -11    1    4    4    0    0  0.17963909991E+02  0.24992746088E+02  0.12736157257E+02  0.33309895239E+02  0.00000000000E+00 0. -1.
         11    1    4    4    0    0 -0.11117082061E+02 -0.42644858381E+02 -0.48667710487E+02  0.65656069817E+02  0.00000000000E+00 0.  1.
</event>
<event>
 8    1  0.6901948E-009  0.1112772E+03  0.7561462E-02  0.1258223E+00
          4   -1    0    0  501    0  0.00000000000E+00  0.00000000000E+00  0.51578672484E+03  0.51578672484E+03  0.00000000000E+00 0. -1.
         -4   -1    0    0    0  501 -0.00000000000E+00 -0.00000000000E+00 -0.64096477385E+02  0.64096477385E+02  0.00000000000E+00 0.  1.
         25    2    1    2    0    0 -0.22008139274E+02  0.55393782696E+02  0.29756341162E+02  0.14172451444E+03  0.12509024262E+03 0.  0.
         23    2    1    2    0    0  0.22008139274E+02 -0.55393782696E+02  0.42193390629E+03  0.43815868778E+03  0.10199012229E+03 0.  0.
          5    1    3    3  502    0  0.23927297183E+02 -0.95100663469E+01 -0.31764271120E+02  0.41102289866E+02  0.41800000000E+01 0.  1.
         -5    1    3    3    0  502 -0.45935436458E+02  0.64903849043E+02  0.61520612282E+02  0.10062222458E+03  0.41800000000E+01 0.  1.
        -11    1    4    4    0    0  0.53749092558E+02 -0.87127489541E+00  0.22661363275E+03  0.23290225980E+03  0.00000000000E+00 0.  1.
         11    1    4    4    0    0 -0.31740953283E+02 -0.54522507800E+02  0.19532027354E+03  0.20525642798E+03  0.00000000000E+00 0. -1.
</event>
<event>
 8    1  0.6901948E-009  0.1397509E+03  0.7561462E-02  0.1213664E+00
         -2   -1    0    0    0  501 -0.00000000000E+00  0.00000000000E+00  0.34985850332E+02  0.34985850332E+02  0.00000000000E+00 0.  1.
          2   -1    0    0  501    0  0.00000000000E+00 -0.00000000000E+00 -0.69122149129E+03  0.69122149129E+03  0.00000000000E+00 0. -1.
         25    2    1    2    0    0  0.82268726750E+02 -0.51302494302E+02 -0.47865363359E+03  0.50414041393E+03  0.12509263240E+03 0.  0.
         23    2    1    2    0    0 -0.82268726750E+02  0.51302494302E+02 -0.17758200737E+03  0.22206692770E+03  0.91532844999E+02 0.  0.
          5    1    3    3  502    0  0.11536412410E+03 -0.44342000098E+02 -0.35741048395E+03  0.37819944545E+03  0.41800000000E+01 0. -1.
         -5    1    3    3    0  502 -0.33095397352E+02 -0.69604942043E+01 -0.12124314964E+03  0.12594096848E+03  0.41800000000E+01 0. -1.
        -11    1    4    4    0    0 -0.15931249637E+02  0.53061188491E+02 -0.37032010663E+02  0.66638309198E+02  0.00000000000E+00 0.  1.
         11    1    4    4    0    0 -0.66337477113E+02 -0.17586941888E+01 -0.14054999670E+03  0.15542861850E+03  0.00000000000E+00 0. -1.
</event>
<event>
 8    1  0.6901948E-009  0.2416660E+03  0.7561462E-02  0.1118688E+00
         -4   -1    0    0    0  501 -0.00000000000E+00  0.00000000000E+00  0.74720651628E+03  0.74720651628E+03  0.00000000000E+00 0. -1.
          4   -1    0    0  501    0  0.00000000000E+00 -0.00000000000E+00 -0.98031913111E+02  0.98031913111E+02  0.00000000000E+00 0.  1.
         25    2    1    2    0    0  0.22889680663E+03  0.61810784929E+02  0.22089743180E+03  0.34735646089E+03  0.12508602770E+03 0.  0.
         23    2    1    2    0    0 -0.22889680663E+03 -0.61810784929E+02  0.42827717138E+03  0.49788196851E+03  0.90833902397E+02 0.  0.
          5    1    3    3  502    0  0.22244344513E+03  0.46413583664E+02  0.14512796890E+03  0.26965701694E+03  0.41800000000E+01 0. -1.
         -5    1    3    3    0  502  0.64533615005E+01  0.15397201265E+02  0.75769462900E+02  0.77699443946E+02  0.41800000000E+01 0. -1.
        -11    1    4    4    0    0 -0.48186822594E+02 -0.25534065382E+02  0.38598445983E+02  0.66811663644E+02  0.00000000000E+00 0.  1.
         11    1    4    4    0    0 -0.18070998403E+03 -0.36276719548E+02  0.38967872540E+03  0.43107030487E+03  0.00000000000E+00 0. -1.
</event>
<event>
 8    1  0.6901948E-009  0.1402939E+03  0.7561462E-02  0.1212934E+00
          3   -1    0    0  501    0  0.00000000000E+00  0.00000000000E+00  0.13223006191E+03  0.13223006191E+03  0.00000000000E+00 0. -1.
         -3   -1    0    0    0  501 -0.00000000000E+00 -0.00000000000E+00 -0.20339658468E+03  0.20339658468E+03  0.00000000000E+00 0.  1.
         25    2    1    2    0    0 -0.11234504397E+03  0.30924661094E+02  0.67214285385E-01  0.17095260144E+03  0.12508814434E+03 0.  0.
         23    2    1    2    0    0  0.11234504397E+03 -0.30924661094E+02 -0.71233737053E+02  0.16467404515E+03  0.92008435931E+02 0.  0.
          5    1    3    3  502    0 -0.14586730285E+02  0.54039555867E+02 -0.33002428293E+02  0.65112817263E+02  0.41800000000E+01 0.  1.
         -5    1    3    3    0  502 -0.97758313681E+02 -0.23114894773E+02  0.33069642579E+02  0.10583978418E+03  0.41800000000E+01 0.  1.
        -11    1    4    4    0    0  0.99943488206E+02 -0.11133358799E+02 -0.89813081070E+02  0.13482967791E+03  0.00000000000E+00 0.  1.
         11    1    4    4    0    0  0.12401555760E+02 -0.19791302295E+02  0.18579344017E+02  0.29844367239E+02  0.00000000000E+00 0. -1.
</event>
<event>
 8    1  0.6901948E-009  0.1099124E+03  0.7561462E-02  0.1260732E+00
          1   -1    0    0  501    0  0.00000000000E+00  0.00000000000E+00  0.36396938330E+02  0.36396938330E+02  0.00000000000E+00 0. -1.
         -1   -1    0    0    0  501 -0.00000000000E+00 -0.00000000000E+00 -0.61724480962E+03  0.61724480962E+03  0.00000000000E+00 0.  1.
         25    2    1    2    0    0 -0.20566605415E+02 -0.70899315786E+02 -0.47254191738E+03  0.49436122507E+03  0.12508980349E+03 0.  0.
         23    2    1    2    0    0  0.20566605415E+02  0.70899315786E+02 -0.10830595391E+03  0.15928052288E+03  0.90500867836E+02 0.  0.
          5    1    3    3  502    0  0.31773777133E+02  0.21068417173E+02 -0.10157723202E+03  0.10857650565E+03  0.41800000000E+01 0.  1.
         -5    1    3    3    0  502 -0.52340382547E+02 -0.91967732959E+02 -0.37096468536E+03  0.38578471942E+03  0.41800000000E+01 0.  1.
        -11    1    4    4    0    0  0.19593411687E+01  0.35720709566E+02 -0.11363091402E+03  0.11912931096E+03  0.00000000000E+00 0.  1.
         11    1    4    4    0    0  0.18607264246E+02  0.35178606220E+02  0.53249601077E+01  0.40151211917E+02  0.00000000000E+00 0. -1.
</event>
<event>
 8    1  0.6901948E-009  0.1444734E+03  0.7561462E-02  0.1207433E+00
         -1   -1    0    0    0  501 -0.00000000000E+00  0.00000000000E+00  0.41608239812E+03  0.41608239812E+03  0.00000000000E+00 0.  1.
          1   -1    0    0  501    0  0.00000000000E+00 -0.00000000000E+00 -0.55159946807E+02  0.55159946807E+02  0.00000000000E+00 0. -1.
         25    2    1    2    0    0  0.76716103966E+02 -0.57487521802E+02  0.12905102422E+03  0.20369456586E+03  0.12508850282E+03 0.  0.
         23    2    1    2    0    0 -0.76716103966E+02  0.57487521802E+02  0.23187142709E+03  0.26754777907E+03  0.92883150311E+02 0.  0.
          5    1    3    3  502    0  0.22862798882E+02 -0.90782845512E+02  0.69456575778E+02  0.11664442092E+03  0.41800000000E+01 0.  1.
         -5    1    3    3    0  502  0.53853305084E+02  0.33295323710E+02  0.59594448442E+02  0.87050144943E+02  0.41800000000E+01 0.  1.
        -11    1    4    4    0    0  0.34344648107E+01  0.51277915446E+02  0.11183459193E+03  0.12307800824E+03  0.00000000000E+00 0.  1.
         11    1    4    4    0    0 -0.80150568776E+02  0.62096063557E+01  0.12003683517E+03  0.14446977083E+03  0.00000000000E+00 0. -1.
</event>
<event>
 8    1  0.6901948E-009  0.9737967E+02  0.7561462E-02  0.1285905E+00
          1   -1    0    0  501    0  0.00000000000E+00  0.00000000000E+00  0.22004901238E+03  0.22004901238E+03  0.00000000000E+00 0. -1.
         -1   -1    0    0    0  501 -0.00000000000E+00 -0.00000000000E+00 -0.55236134773E+02  0.55236134773E+02  0.00000000000E+00 0.  1.
         25    2    1    2    0    0 -0.71530886856E+01 -0.21571794096E+02  0.10089043417E+03  0.16231088043E+03  0.12509769471E+03 0.  0.
         23    2    1    2    0    0  0.71530886856E+01  0.21571794096E+02  0.63922443441E+02  0.11297426672E+03  0.90336023756E+02 0.  0.
          5    1    3    3  502    0 -0.13740903619E+02 -0.65508451760E+02  0.96438988582E+02  0.11746540173E+03  0.41800000000E+01 0.  1.
         -5    1    3    3    0  502  0.65878149332E+01  0.43936657664E+02  0.44514455852E+01  0.44845478703E+02  0.41800000000E+01 0.  1.
        -11    1    4    4    0    0  0.28134275757E+02 -0.21335008259E+02  0.28223532994E+01  0.35421543274E+02  0.00000000000E+00 0.  1.
         11    1    4    4    0    0 -0.20981187071E+02  0.42906802355E+02  0.61100090141E+02  0.77552723450E+02  0.00000000000E+00 0. -1.
</event>
<event>
 8    1  0.6901948E-009  0.1047859E+03  0.7561462E-02  0.1270542E+00
         -2   -1    0    0    0  501 -0.00000000000E+00  0.00000000000E+00  0.22597233853E+02  0.22597233853E+02  0.00000000000E+00 0.  1.
          2   -1    0    0  501    0  0.00000000000E+00 -0.00000000000E+00 -0.59521807590E+03  0.59521807590E+03  0.00000000000E+00 0. -1.
         25    2    1    2    0    0  0.12526402090E+02  0.18479506768E+02 -0.26540192465E+03  0.29424920328E+03  0.12508400817E+03 0.  0.
         23    2    1    2    0    0 -0.12526402090E+02 -0.18479506768E+02 -0.30721891739E+03  0.32356610647E+03  0.99061390746E+02 0.  0.
          5    1    3    3  502    0  0.39156019419E+02  0.51902398202E+02 -0.22858429376E+03  0.23768740932E+03  0.41800000000E+01 0.  1.
         -5    1    3    3    0  502 -0.26629617328E+02 -0.33422891434E+02 -0.36817630895E+02  0.56561793957E+02  0.41800000000E+01 0.  1.
        -11    1    4    4    0    0  0.88841244080E+01  0.39076762206E+02 -0.11581260433E+03  0.12254990956E+03  0.00000000000E+00 0. -1.
         11    1    4    4    0    0 -0.21410526498E+02 -0.57556268974E+02 -0.19140631306E+03  0.20101619691E+03  0.00000000000E+00 0.  1.
</event>
<event>
 8    1  0.6901948E-009  0.1364211E+03  0.7561462E-02  0.1218227E+00
         -3   -1    0    0    0  501 -0.00000000000E+00  0.00000000000E+00  0.74609077893E+02  0.74609077893E+02  0.00000000000E+00 0.  1.
          3   -1    0    0  501    0  0.00000000000E+00 -0.00000000000E+00 -0.30176324265E+03  0.30176324265E+03  0.00000000000E+00 0. -1.
         25    2    1    2    0    0  0.10107545097E+03 -0.11531633021E+02 -0.10260878848E+03  0.19111145195E+03  0.12508316531E+03 0.  0.
         23    2    1    2    0    0 -0.10107545097E+03  0.11531633021E+02 -0.12454537627E+03  0.18526086859E+03  0.91982679526E+02 0.  0.
          5    1    3    3  502    0  0.11061180862E+03  0.12221757973E+02 -0.11693748114E+03  0.16148123875E+03  0.41800000000E+01 0.  1.
         -5    1    3    3    0  502 -0.95363576520E+01 -0.23753390994E+02  0.14328692653E+02  0.29630213197E+02  0.41800000000E+01 0.  1.
        -11    1    4    4    0    0  0.10335538377E+02 -0.17578953105E+02 -0.29969634397E+02  0.36249440433E+02  0.00000000000E+00 0. -1.
         11    1    4    4    0    0 -0.11141098934E+03  0.29110586126E+02 -0.94575741874E+02  0.14901142816E+03  0.00000000000E+00 0.  1.
</event>
<event>
 8    1  0.6901948E-009  0.1832321E+03  0.7561462E-02  0.1164711E+00
          2   -1    0    0  501    0  0.00000000000E+00  0.00000000000E+00  0.16648424742E+03  0.16648424742E+03  0.00000000000E+00 0. -1.
         -2   -1    0    0    0  501 -0.00000000000E+00 -0.00000000000E+00 -0.21957115645E+03  0.21957115645E+03  0.00000000000E+00 0.  1.
         25    2    1    2    0    0  0.14408677343E+03 -0.34428162128E+02 -0.77861084738E+02  0.20894111546E+03  0.12509094527E+03 0.  0.
         23    2    1    2    0    0 -0.14408677343E+03  0.34428162128E+02  0.24774175713E+02  0.17711428841E+03  0.93858482570E+02 0.  0.
          5    1    3    3  502    0  0.12365673135E+03  0.28793443057E+02 -0.56444467762E+02  0.13900899220E+03  0.41800000000E+01 0.  1.
         -5    1    3    3    0  502  0.20430042085E+02 -0.63221605185E+02 -0.21416616976E+02  0.69932123266E+02  0.41800000000E+01 0.  1.
        -11    1    4    4    0    0 -0.14869225654E+03  0.11128411455E+02  0.31563863650E+02  0.15241229014E+03  0.00000000000E+00 0. -1.
         11    1    4    4    0    0  0.46054831100E+01  0.23299750673E+02 -0.67896879376E+01  0.24701998268E+02  0.00000000000E+00 0.  1.
</event>
<event>
 8    1  0.6901948E-009  0.1072168E+03  0.7561462E-02  0.1265813E+00
          1   -1    0    0  501    0  0.00000000000E+00  0.00000000000E+00  0.90033235498E+03  0.90033235498E+03  0.00000000000E+00 0. -1.
         -1   -1    0    0    0  501 -0.00000000000E+00 -0.00000000000E+00 -0.23391566719E+02  0.23391566719E+02  0.00000000000E+00 0.  1.
         25    2    1    2    0    0  0.11351360235E+02 -0.53186119050E+01  0.78406977343E+03  0.79408371590E+03  0.12508555967E+03 0.  0.
         23    2    1    2    0    0 -0.11351360235E+02  0.53186119050E+01  0.92871014832E+02  0.12964020580E+03  0.89579107791E+02 0.  0.
          5    1    3    3  502    0  0.27521265823E+02  0.55130140864E+02  0.33348026787E+03  0.33915087198E+03  0.41800000000E+01 0.  1.
         -5    1    3    3    0  502 -0.16169905588E+02 -0.60448752769E+02  0.45058950556E+03  0.45493284392E+03  0.41800000000E+01 0.  1.
        -11    1    4    4    0    0  0.38670629551E+02 -0.46683683867E+01  0.33591992937E+02  0.51435719522E+02  0.00000000000E+00 0.  1.
         11    1    4    4    0    0 -0.50021989786E+02  0.99869802918E+01  0.59279021896E+02  0.78204486280E+02  0.00000000000E+00 0. -1.
</event>
<event>
 8    1  0.6901948E-009  0.2019817E+03  0.7561462E-02  0.1148078E+00
         -3   -1    0    0    0  501 -0.00000000000E+00  0.00000000000E+00  0.15339136404E+03  0.15339136404E+03  0.00000000000E+00 0.  1.
          3   -1    0    0  501    0  0.00000000000E+00 -0.00000000000E+00 -0.34652700258E+03  0.34652700258E+03  0.00000000000E+00 0. -1.
         25    2    1    2    0    0 -0.18539555455E+03 -0.22926239207E+02 -0.18633170094E+02  0.22559136905E+03  0.12508855533E+03 0.  0.
         23    2    1    2    0    0  0.18539555455E+03  0.22926239207E+02 -0.17450246845E+03  0.27432699757E+03  0.99534245404E+02 0.  0.
          5    1    3    3  502    0 -0.19120973072E+03 -0.30159966934E+02 -0.43741535120E+02  0.19849830987E+03  0.41800000000E+01 0. -1.
         -5    1    3    3    0  502  0.58141761750E+01  0.72337277268E+01  0.25108365026E+02  0.27093059180E+02  0.41800000000E+01 0. -1.
        -11    1    4    4    0    0  0.84333413480E+02 -0.25494706297E+02 -0.33594846339E+02  0.94290605995E+02  0.00000000000E+00 0.  1.
         11    1    4    4    0    0  0.10106214107E+03  0.48420945504E+02 -0.14090762211E+03  0.18003639157E+03  0.00000000000E+00 0. -1.
</event>
<event>
 8    1  0.6901948E-009  0.1210574E+03  0.7561462E-02  0.1241363E+00
         -1   -1    0    0    0  501 -0.00000000000E+00  0.00000000000E+00  0.29163492052E+02  0.29163492052E+02  0.00000000000E+00 0.  1.
          1   -1    0    0  501    0  0.00000000000E+00 -0.00000000000E+00 -0.61290449406E+03  0.61290449406E+03  0.00000000000E+00 0. -1.
         25    2    1    2    0    0  0.22852182303E+01  0.74434333151E+02 -0.27055083381E+03  0.30723156863E+03  0.12509113044E+03 0.  0.
         23    2    1    2    0    0 -0.22852182303E+01 -0.74434333151E+02 -0.31319016820E+03  0.33483641748E+03  0.92095889383E+02 0.  0.
          5    1    3    3  502    0 -0.58645389026E+02  0.18636991926E+02 -0.96579050627E+02  0.11459321333E+03  0.41800000000E+01 0. -1.
         -5    1    3    3    0  502  0.60930607256E+02  0.55797341224E+02 -0.17397178318E+03  0.19263835530E+03  0.41800000000E+01 0. -1.
        -11    1    4    4    0    0  0.29295694118E+02 -0.22535773664E+02 -0.37962575183E+02  0.52983543700E+02  0.00000000000E+00 0.  1.
         11    1    4    4    0    0 -0.31580912348E+02 -0.51898559487E+02 -0.27522759302E+03  0.28185287378E+03  0.00000000000E+00 0. -1.
</event>
<event>
 8    1  0.6901948E-009  0.2213345E+03  0.7561462E-02  0.1132892E+00
          1   -1    0    0  501    0  0.00000000000E+00  0.00000000000E+00  0.24252371274E+03  0.24252371274E+03  0.00000000000E+00 0. -1.
         -1   -1    0    0    0  501 -0.00000000000E+00 -0.00000000000E+00 -0.35680883921E+03  0.35680883921E+03  0.00000000000E+00 0.  1.
         25    2    1    2    0    0  0.16517578941E+03 -0.12055824053E+03  0.13150499227E+03  0.27342002173E+03  0.12509042541E+03 0.  0.
         23    2    1    2    0    0 -0.16517578941E+03  0.12055824053E+03 -0.24579011874E+03  0.32591253021E+03  0.63157454921E+02 0.  0.
          5    1    3    3  502    0  0.78325837913E+02  0.19065729971E+01  0.78113343863E+01  0.78848343358E+02  0.41800000000E+01 0. -1.
         -5    1    3    3    0  502  0.86849951494E+02 -0.12246481352E+03  0.12369365788E+03  0.19457167838E+03  0.41800000000E+01 0. -1.
        -11    1    4    4    0    0 -0.62401599402E+02  0.84616723928E+02 -0.11929758632E+03  0.15901529385E+03  0.00000000000E+00 0.  1.
         11    1    4    4    0    0 -0.10277419000E+03  0.35941516599E+02 -0.12649253242E+03  0.16689723636E+03  0.00000000000E+00 0. -1.
</event>
<event>
 8    1  0.6901948E-009  0.1262940E+03  0.7561462E-02  0.1233061E+00
         -2   -1    0    0    0  501 -0.00000000000E+00  0.00000000000E+00  0.62855197453E+02  0.62855197453E+02  0.00000000000E+00 0.  1.
          2   -1    0    0  501    0  0.00000000000E+00 -0.00000000000E+00 -0.27380555762E+03  0.27380555762E+03  0.00000000000E+00 0. -1.
         25    2    1    2    0    0 -0.19705599146E+02 -0.66436395737E+02 -0.84607769901E+02  0.16616850675E+03  0.12510552582E+03 0.  0.
         23    2    1    2    0    0  0.19705599146E+02  0.66436395737E+02 -0.12634259027E+03  0.17049224833E+03  0.91121080488E+02 0.  0.
          5    1    3    3  502    0 -0.68773692918E+02 -0.21507420748E+02 -0.63801699481E+02  0.96335451633E+02  0.41800000000E+01 0. -1.
         -5    1    3    3    0  502  0.49068093771E+02 -0.44928974989E+02 -0.20806070420E+02  0.69833055112E+02  0.41800000000E+01 0. -1.
        -11    1    4    4    0    0  0.38284056753E+02  0.81359743653E+02 -0.10725920407E+03  0.13996290132E+03  0.00000000000E+00 0. -1.
         11    1    4    4    0    0 -0.18578457607E+02 -0.14923347916E+02 -0.19083386204E+02  0.30529347014E+02  0.00000000000E+00 0.  1.
</event>
<event>
 8    1  0.6901948E-009  0.8712131E+02  0.7561462E-02  0.1309976E+00
         -3   -1    0    0    0  501 -0.00000000000E+00  0.00000000000E+00  0.89283520647E+02  0.89283520647E+02  0.00000000000E+00 0.  1.
          3   -1    0    0  501    0  0.00000000000E+00 -0.00000000000E+00 -0.20679684505E+03  0.20679684505E+03  0.00000000000E+00 0. -1.
         25    2    1    2    0    0 -0.33614685085E+01 -0.48674534427E+02  0.67667300330E+01  0.13446215718E+03  0.12511504029E+03 0.  0.
         23    2    1    2    0    0  0.33614685085E+01  0.48674534427E+02 -0.12428005444E+03  0.16161820852E+03  0.91073616497E+02 0.  0.
          5    1    3    3  502    0  0.36183856026E+02 -0.49848227722E+02  0.47219007921E+02  0.77725313463E+02  0.41800000000E+01 0.  1.
         -5    1    3    3    0  502 -0.39545324534E+02  0.11736932957E+01 -0.40452277888E+02  0.56736843715E+02  0.41800000000E+01 0.  1.
        -11    1    4    4    0    0 -0.23569954703E+02  0.35821485356E+02 -0.12460326679E+03  0.13177517093E+03  0.00000000000E+00 0. -1.
         11    1    4    4    0    0  0.26931423212E+02  0.12853049070E+02  0.32321235195E+00  0.29843037594E+02  0.00000000000E+00 0.  1.
</event>
<event>
 8    1  0.6901948E-009  0.9662315E+02  0.7561462E-02  0.1287562E+00
         -2   -1    0    0    0  501 -0.00000000000E+00  0.00000000000E+00  0.14773279434E+03  0.14773279434E+03  0.00000000000E+00 0.  1.
          2   -1    0    0  501    0  0.00000000000E+00 -0.00000000000E+00 -0.11218408613E+03  0.11218408613E+03  0.00000000000E+00 0. -1.
         25    2    1    2    0    0 -0.56652200913E+02 -0.39412064398E+02  0.13734871344E+02  0.14352426413E+03  0.12509110685E+03 0.  0.
         23    2    1    2    0    0  0.56652200913E+02  0.39412064398E+02  0.21813836871E+02  0.11639261635E+03  0.91151604337E+02 0.  0.
          5    1    3    3  502    0 -0.27144887121E+02 -0.41611331273E+02 -0.51555489780E+02  0.71720211332E+02  0.41800000000E+01 0.  1.
         -5    1    3    3    0  502 -0.29507313791E+02  0.21992668748E+01  0.65290361124E+02  0.71804052794E+02  0.41800000000E+01 0.  1.
        -11    1    4    4    0    0  0.33202964576E+02 -0.27177593744E+02  0.15140697044E+01  0.42934262139E+02  0.00000000000E+00 0.  1.
         11    1    4    4    0    0  0.23449236337E+02  0.66589658142E+02  0.20299767166E+02  0.73458354210E+02  0.00000000000E+00 0. -1.
</event>
<event>
 8    1  0.6901948E-009  0.1208994E+03  0.7561462E-02  0.1241621E+00
         -1   -1    0    0    0  501 -0.00000000000E+00  0.00000000000E+00  0.17693871528E+03  0.17693871528E+03  0.00000000000E+00 0.  1.
          1   -1    0    0  501    0  0.00000000000E+00 -0.00000000000E+00 -0.90319283380E+02  0.90319283380E+02  0.00000000000E+00 0. -1.
         25    2    1    2    0    0 -0.67267637748E+02 -0.40011539265E+02  0.53742975471E+02  0.15703947398E+03  0.12508889084E+03 0.  0.
         23    2    1    2    0    0  0.67267637748E+02  0.40011539265E+02  0.32876456434E+02  0.11021852469E+03  0.70295116715E+02 0.  0.
          5    1    3    3  502    0 -0.24859912264E+02 -0.76728323336E+02  0.59760329707E+02  0.10046900142E+03  0.41800000000E+01 0.  1.
         -5    1    3    3    0  502 -0.42407725484E+02  0.36716784071E+02 -0.60173542358E+01  0.56570472556E+02  0.41800000000E+01 0.  1.
        -11    1    4    4    0    0  0.50874934021E+02  0.60175370546E+02  0.20427741327E+02  0.81404095399E+02  0.00000000000E+00 0. -1.
         11    1    4    4    0    0  0.16392703727E+02 -0.20163831281E+02  0.12448715107E+02  0.28814429289E+02  0.00000000000E+00 0.  1.
</event>
<event>
 8    1  0.6901948E-009  0.7820996E+02  0.7561462E-02  0.1334209E+00
         -1   -1    0    0    0  501 -0.00000000000E+00  0.00000000000E+00  0.38515318844E+02  0.38515318844E+02  0.00000000000E+00 0.  1.
          1   -1    0    0  501    0  0.00000000000E+00 -0.00000000000E+00 -0.30709881832E+03  0.30709881832E+03  0.00000000000E+00 0. -1.
         25    2    1    2    0    0 -0.11849183174E+02 -0.69899747426E+01 -0.13629392553E+03  0.18550843195E+03  0.12509229112E+03 0.  0.
         23    2    1    2    0    0  0.11849183174E+02  0.69899747426E+01 -0.13228957395E+03  0.16010570522E+03  0.89129358684E+02 0.  0.
          5    1    3    3  502    0  0.23520883825E+02  0.11095389074E+02 -0.14264958142E+03  0.14506107374E+03  0.41800000000E+01 0. -1.
         -5    1    3    3    0  502 -0.35370066999E+02 -0.18085363817E+02  0.63556558954E+01  0.40447358205E+02  0.41800000000E+01 0. -1.
        -11    1    4    4    0    0 -0.61539592908E+01 -0.39658322890E+02 -0.56258145049E+02  0.69105952521E+02  0.00000000000E+00 0.  1.
         11    1    4    4    0    0  0.18003142465E+02  0.46648297633E+02 -0.76031428900E+02  0.90999752699E+02  0.00000000000E+00 0. -1.
</event>
<event>
 7    1  0.6901948E-009  0.7213716E+02  0.7561462E-02  0.1352973E+00
         -2   -1    0    0    0  501 -0.00000000000E+00  0.00000000000E+00  0.32773598374E+02  0.32773598374E+02  0.00000000000E+00 0.  1.
          2   -1    0    0  501    0  0.00000000000E+00 -0.00000000000E+00 -0.45222422391E+03  0.45222422391E+03  0.00000000000E+00 0. -1.
         23    2    1    2    0    0 -0.54516318706E+02 -0.13687844263E+02 -0.18409022524E+03  0.21265005542E+03  0.90396067162E+02 0.  0.
          5    1    1    2  502    0 -0.11423786320E+02  0.59159993613E+01 -0.19301078632E+03  0.19348420602E+03  0.41800000000E+01 0. -1.
         -5    1    1    2    0  502  0.65940105026E+02  0.77718449021E+01 -0.42349613973E+02  0.78863560836E+02  0.41800000000E+01 0. -1.
        -11    1    3    3    0    0 -0.44943554890E+02  0.29329187662E+01 -0.18779047690E+03  0.19311599714E+03  0.00000000000E+00 0. -1.
         11    1    3    3    0    0 -0.95727638162E+01 -0.16620763030E+02  0.37002516577E+01  0.19534058285E+02  0.00000000000E+00 0.  1.
</event>
<event>
 8    1  0.6901948E-009  0.1131658E+03  0.7561462E-02  0.1254817E+00
         -1   -1    0    0    0  501 -0.00000000000E+00  0.00000000000E+00  0.28421598835E+03  0.28421598835E+03  0.00000000000E+00 0.  1.
          1   -1    0    0  501    0  0.00000000000E+00 -0.00000000000E+00 -0.54231664823E+02  0.54231664823E+02  0.00000000000E+00 0. -1.
         25    2    1    2    0    0  0.51284537284E+02  0.21179812279E+02  0.16203468260E+03  0.21208971218E+03  0.12509244355E+03 0.  0.
         23    2    1    2    0    0 -0.51284537284E+02 -0.21179812279E+02  0.67949640934E+02  0.12635794100E+03  0.90942219779E+02 0.  0.
          5    1    3    3  502    0 -0.34916548174E+02  0.46386355735E+01  0.10624352829E+02  0.37027443193E+02  0.41800000000E+01 0.  1.
         -5    1    3    3    0  502  0.86201085458E+02  0.16541176706E+02  0.15141032977E+03  0.17506226898E+03  0.41800000000E+01 0.  1.
        -11    1    4    4    0    0 -0.59642213681E+02  0.18493697143E+02  0.24909992201E+02  0.67228849449E+02  0.00000000000E+00 0. -1.
         11    1    4    4    0    0  0.83576763973E+01 -0.39673509422E+02  0.43039648733E+02  0.59129091551E+02  0.00000000000E+00 0.  1.
</event>
<event>
 8    1  0.6901948E-009  0.1271289E+03  0.7561462E-02  0.1231779E+00
          1   -1    0    0  501    0  0.00000000000E+00  0.00000000000E+00  0.21943565947E+03  0.21943565947E+03  0.00000000000E+00 0. -1.
         -1   -1    0    0    0  501 -0.00000000000E+00 -0.00000000000E+00 -0.12150838360E+03  0.12150838360E+03  0.00000000000E+00 0.  1.
         25    2    1    2    0    0 -0.69216019282E+02  0.92407218412E+02  0.99811974590E+02  0.19732647301E+03  0.12508139486E+03 0.  0.
         23    2    1    2    0    0  0.69216019282E+02 -0.92407218412E+02 -0.18846987156E+01  0.14361757005E+03  0.85396153305E+02 0.  0.
          5    1    3    3  502    0 -0.42257525065E+02  0.40302212801E+02  0.12131638117E+03  0.13470376209E+03  0.41800000000E+01 0.  1.
         -5    1    3    3    0  502 -0.26958494217E+02  0.52105005611E+02 -0.21504406583E+02  0.62622710917E+02  0.41800000000E+01 0.  1.
        -11    1    4    4    0    0  0.49242352874E+02 -0.10309066119E+03 -0.18218908809E+02  0.11569106439E+03  0.00000000000E+00 0.  1.
         11    1    4    4    0    0  0.19973666407E+02  0.10683442778E+02  0.16334210093E+02  0.27926505666E+02  0.00000000000E+00 0. -1.
</event>
<event>
 8    1  0.6901948E-009  0.1598476E+03  0.7561462E-02  0.1188869E+00
          2   -1    0    0  501    0  0.00000000000E+00  0.00000000000E+00  0.58451285488E+02  0.58451285488E+02  0.00000000000E+00 0. -1.
         -2   -1    0    0    0  501 -0.00000000000E+00 -0.00000000000E+00 -0.55527926535E+03  0.55527926535E+03  0.00000000000E+00 0.  1.
         25    2    1    2    0    0  0.11688674700E+03  0.84410183250E+02 -0.26639087429E+03  0.32771537188E+03  0.12508267826E+03 0.  0.
         23    2    1    2    0    0 -0.11688674700E+03 -0.84410183250E+02 -0.23043710557E+03  0.28601517896E+03  0.88970963296E+02 0.  0.
          5    1    3    3  502    0  0.13421649990E+03  0.82322219381E+02 -0.17869864670E+03  0.23820515398E+03  0.41800000000E+01 0. -1.
         -5    1    3    3    0  502 -0.17329752902E+02  0.20879638693E+01 -0.87692227587E+02  0.89510217897E+02  0.41800000000E+01 0. -1.
        -11    1    4    4    0    0 -0.48807524370E+02 -0.37795266605E+02 -0.28736981154E+02  0.68091634572E+02  0.00000000000E+00 0. -1.
         11    1    4    4    0    0 -0.68079222631E+02 -0.46614916646E+02 -0.20170012442E+03  0.21792354439E+03  0.00000000000E+00 0.  1.
</event>
<event>
 8    1  0.6901948E-009  0.1090838E+03  0.7561462E-02  0.1262276E+00
          1   -1    0    0  501    0  0.00000000000E+00  0.00000000000E+00  0.81957820165E+02  0.81957820165E+02  0.00000000000E+00 0. -1.
         -1   -1    0    0    0  501 -0.00000000000E+00 -0.00000000000E+00 -0.19827630722E+03  0.19827630722E+03  0.00000000000E+00 0.  1.
         25    2    1    2    0    0  0.48058687567E+02  0.45292300348E+02 -0.75197311250E+02  0.16019859651E+03  0.12509166552E+03 0.  0.
         23    2    1    2    0    0 -0.48058687567E+02 -0.45292300348E+02 -0.41121175803E+02  0.12003553087E+03  0.91414154545E+02 0.  0.
          5    1    3    3  502    0  0.86993530325E+02  0.21659031639E+02 -0.26923011316E+02  0.93697966404E+02  0.41800000000E+01 0. -1.
         -5    1    3    3    0  502 -0.38934842758E+02  0.23633268708E+02 -0.48274299934E+02  0.66500630106E+02  0.41800000000E+01 0. -1.
        -11    1    4    4    0    0 -0.23052673090E+02 -0.51925293693E+02  0.14550604792E+02  0.58646244223E+02  0.00000000000E+00 0. -1.
         11    1    4    4    0    0 -0.25006014477E+02  0.66329933451E+01 -0.55671780595E+02  0.61389286650E+02  0.00000000000E+00 0.  1.
</event>
<event>
 8    1  0.6901948E-009  0.1086762E+03  0.7561462E-02  0.1263041E+00
         -2   -1    0    0    0  501 -0.00000000000E+00  0.00000000000E+00  0.36532167033E+02  0.36532167033E+02  0.00000000000E+00 0.  1.
          2   -1    0    0  501    0  0.00000000000E+00 -0.00000000000E+00 -0.55390028203E+03  0.55390028203E+03  0.00000000000E+00 0. -1.
         25    2    1    2    0    0  0.45581983991E+02  0.76061732908E+02 -0.33961810772E+03  0.37262690382E+03  0.12508895187E+03 0.  0.
         23    2    1    2    0    0 -0.45581983991E+02 -0.76061732908E+02 -0.17775000728E+03  0.21780554525E+03  0.89336923921E+02 0.  0.
          5    1    3    3  502    0  0.64242430059E+02  0.85663113343E+02 -0.16526145324E+03  0.19696212614E+03  0.41800000000E+01 0. -1.
         -5    1    3    3    0  502 -0.18660446068E+02 -0.96013804342E+01 -0.17435665448E+03  0.17566477767E+03  0.41800000000E+01 0. -1.
        -11    1    4    4    0    0 -0.11797700936E+02 -0.23844366212E+02 -0.14518489043E+03  0.14760214076E+03  0.00000000000E+00 0. -1.
         11    1    4    4    0    0 -0.33784283056E+02 -0.52217366696E+02 -0.32565116846E+02  0.70203404486E+02  0.00000000000E+00 0.  1.
</event>
<event>
 8    1  0.6901948E-009  0.2390228E+03  0.7561462E-02  0.1120446E+00
         -2   -1    0    0    0  501 -0.00000000000E+00  0.00000000000E+00  0.39085495003E+02  0.39085495003E+02  0.00000000000E+00 0.  1.
          2   -1    0    0  501    0  0.00000000000E+00 -0.00000000000E+00 -0.16498418513E+04  0.16498418513E+04  0.00000000000E+00 0. -1.
         25    2    1    2    0    0  0.12917113120E+02  0.21409499503E+03 -0.10676799317E+04  0.10961711069E+04  0.12508852994E+03 0.  0.
         23    2    1    2    0    0 -0.12917113120E+02 -0.21409499503E+03 -0.54307642456E+03  0.59275623938E+03  0.10210013564E+03 0.  0.
          5    1    3    3  502    0 -0.45105770892E+02  0.29543428357E+02 -0.26923486373E+03  0.27461287110E+03  0.41800000000E+01 0. -1.
         -5    1    3    3    0  502  0.58022884012E+02  0.18455156667E+03 -0.79844506800E+03  0.82155823582E+03  0.41800000000E+01 0. -1.
        -11    1    4    4    0    0  0.34682433911E+02 -0.61392238368E+02 -0.10579473226E+03  0.12713930756E+03  0.00000000000E+00 0.  1.
         11    1    4    4    0    0 -0.47599547031E+02 -0.15270275666E+03 -0.43728169231E+03  0.46561693182E+03  0.00000000000E+00 0. -1.
</event>
<event>
 8    1  0.6901948E-009  0.1662253E+03  0.7561462E-02  0.1181842E+00
          2   -1    0    0  501    0  0.00000000000E+00  0.00000000000E+00  0.71266215505E+03  0.71266215505E+03  0.00000000000E+00 0. -1.
         -2   -1    0    0    0  501 -0.00000000000E+00 -0.00000000000E+00 -0.52542751964E+02  0.52542751964E+02  0.00000000000E+00 0.  1.
         25    2    1    2    0    0  0.14379447568E+03  0.80544407390E+02  0.35639739981E+03  0.41210539457E+03  0.12508995502E+03 0.  0.
         23    2    1    2    0    0 -0.14379447568E+03 -0.80544407390E+02  0.30372200328E+03  0.35309951244E+03  0.72580697250E+02 0.  0.
          5    1    3    3  502    0  0.15421595995E+02  0.18549916808E+02 -0.37304441471E+01  0.24765170101E+02  0.41800000000E+01 0.  1.
         -5    1    3    3    0  502  0.12837287969E+03  0.61994490582E+02  0.36012784395E+03  0.38734022447E+03  0.41800000000E+01 0.  1.
        -11    1    4    4    0    0 -0.59501918877E+02 -0.40866109421E+02  0.20509768143E+03  0.21742947403E+03  0.00000000000E+00 0. -1.
         11    1    4    4    0    0 -0.84292556805E+02 -0.39678297969E+02  0.98624321844E+02  0.13567003841E+03  0.00000000000E+00 0.  1.
</event>
<event>
 8    1  0.6901948E-009  0.1079348E+03  0.7561462E-02  0.1264443E+00
          2   -1    0    0  501    0  0.00000000000E+00  0.00000000000E+00  0.96800374952E+02  0.96800374952E+02  0.00000000000E+00 0. -1.
         -2   -1    0    0    0  501 -0.00000000000E+00 -0.00000000000E+00 -0.14137922599E+03  0.14137922599E+03  0.00000000000E+00 0.  1.
         25    2    1    2    0    0 -0.29854780101E+02  0.37863056573E+01  0.79782190665E+01  0.12890788856E+03  0.12509175732E+03 0.  0.
         23    2    1    2    0    0  0.29854780101E+02 -0.37863056573E+01 -0.52557070099E+02  0.10927171237E+03  0.90952831194E+02 0.  0.
          5    1    3    3  502    0  0.96803421834E+01 -0.54842276620E+02  0.14712002337E+02  0.57752054010E+02  0.41800000000E+01 0.  1.
         -5    1    3    3    0  502 -0.39535122285E+02  0.58628582277E+02 -0.67337832709E+01  0.71155834554E+02  0.41800000000E+01 0.  1.
        -11    1    4    4    0    0  0.58925070555E+02  0.40931913786E+01 -0.14651961208E+02  0.60857194503E+02  0.00000000000E+00 0.  1.
         11    1    4    4    0    0 -0.29070290453E+02 -0.78794970359E+01 -0.37905108891E+02  0.48414517870E+02  0.00000000000E+00 0. -1.
</event>
<event>
 8    1  0.6901948E-009  0.2457800E+03  0.7561462E-02  0.1116001E+00
          1   -1    0    0  501    0  0.00000000000E+00  0.00000000000E+00  0.16978016522E+04  0.16978016522E+04  0.00000000000E+00 0.  1.
         -1   -1    0    0    0  501 -0.00000000000E+00 -0.00000000000E+00 -0.37836256694E+02  0.37836256694E+02  0.00000000000E+00 0. -1.
         25    2    1    2    0    0  0.23510867455E+02 -0.22743827395E+03  0.81383292961E+03  0.85454969594E+03  0.12510082400E+03 0.  0.
         23    2    1    2    0    0 -0.23510867455E+02  0.22743827395E+03  0.84613246590E+03  0.88108821296E+03  0.89974217531E+02 0.  0.
          5    1    3    3  502    0 -0.45326387597E+02 -0.61987471187E+02  0.32244605908E+03  0.33149036398E+03  0.41800000000E+01 0. -1.
         -5    1    3    3    0  502  0.68837255053E+02 -0.16545080276E+03  0.49138687053E+03  0.52305933196E+03  0.41800000000E+01 0. -1.
        -11    1    4    4    0    0  0.17812043696E+02  0.95548640631E+02  0.23090844705E+03  0.25053048227E+03  0.00000000000E+00 0. -1.
         11    1    4    4    0    0 -0.41322911151E+02  0.13188963332E+03  0.61522401885E+03  0.63055773069E+03  0.00000000000E+00 0.  1.
</event>
<event>
 8    1  0.6901948E-009  0.1200121E+03  0.7561462E-02  0.1243077E+00
         -2   -1    0    0    0  501 -0.00000000000E+00  0.00000000000E+00  0.35701418483E+02  0.35701418483E+02  0.00000000000E+00 0. -1.
          2   -1    0    0  501    0  0.00000000000E+00 -0.00000000000E+00 -0.55876713355E+03  0.55876713355E+03  0.00000000000E+00 0.  1.
         25    2    1    2    0    0 -0.14892867571E+02  0.64706394777E+02 -0.41525979597E+03  0.43874381250E+03  0.12508684917E+03 0.  0.
         23    2    1    2    0    0  0.14892867571E+02 -0.64706394777E+02 -0.10780591910E+03  0.15572473953E+03  0.90660704160E+02 0.  0.
          5    1    3    3  502    0  0.47978827767E+02  0.12639355555E+02 -0.84914159411E+02  0.98435806956E+02  0.41800000000E+01 0.  1.
         -5    1    3    3    0  502 -0.62871695337E+02  0.52067039222E+02 -0.33034563656E+03  0.34030800555E+03  0.41800000000E+01 0.  1.
        -11    1    4    4    0    0 -0.29771701233E+02  0.11771537658E+00 -0.49494966090E+02  0.57759152690E+02  0.00000000000E+00 0. -1.
         11    1    4    4    0    0  0.44664568804E+02 -0.64824110153E+02 -0.58310953008E+02  0.97965586837E+02  0.00000000000E+00 0.  1.
</event>
<event>
 8    1  0.6901948E-009  0.1554654E+03  0.7561462E-02  0.1193914E+00
         -1   -1    0    0    0  501 -0.00000000000E+00  0.00000000000E+00  0.33903834696E+02  0.33903834696E+02  0.00000000000E+00 0.  1.
          1   -1    0    0  501    0  0.00000000000E+00 -0.00000000000E+00 -0.77400540364E+03  0.77400540364E+03  0.00000000000E+00 0. -1.
         25    2    1    2    0    0  0.11765298840E+03  0.11845002772E+02 -0.35142812709E+03  0.39132228035E+03  0.12509543882E+03 0.  0.
         23    2    1    2    0    0 -0.11765298840E+03 -0.11845002772E+02 -0.38867344185E+03  0.41658695799E+03  0.92168971978E+02 0.  0.
          5    1    3    3  502    0  0.55892038538E+02 -0.52618551932E+02 -0.21399830484E+03  0.22738816779E+03  0.41800000000E+01 0.  1.
         -5    1    3    3    0  502  0.61760949866E+02  0.64463554705E+02 -0.13742982226E+03  0.16393411255E+03  0.41800000000E+01 0.  1.
        -11    1    4    4    0    0 -0.13091905109E+03 -0.11252963197E+02 -0.30846313584E+03  0.33528485395E+03  0.00000000000E+00 0.  1.
         11    1    4    4    0    0  0.13266062686E+02 -0.59203957570E+00 -0.80210306016E+02  0.81302104039E+02  0.00000000000E+00 0. -1.
</event>
<event>
 8    1  0.6901948E-009  0.1219263E+03  0.7561462E-02  0.1239953E+00
         -1   -1    0    0    0  501 -0.00000000000E+00  0.00000000000E+00  0.27332754270E+02  0.27332754270E+02  0.00000000000E+00 0.  1.
          1   -1    0    0  501    0  0.00000000000E+00 -0.00000000000E+00 -0.72675263479E+03  0.72675263479E+03  0.00000000000E+00 0. -1.
         25    2    1    2    0    0  0.30508399675E+02 -0.75076408988E+02 -0.48326671465E+03  0.50573078813E+03  0.12509869278E+03 0.  0.
         23    2    1    2    0    0 -0.30508399675E+02  0.75076408988E+02 -0.21615316587E+03  0.24835460093E+03  0.91600147660E+02 0.  0.
          5    1    3    3  502    0  0.77833561028E+02 -0.48850452072E+02 -0.25446321547E+03  0.27057980397E+03  0.41800000000E+01 0.  1.
         -5    1    3    3    0  502 -0.47325161353E+02 -0.26225956916E+02 -0.22880349917E+03  0.23515098415E+03  0.41800000000E+01 0.  1.
        -11    1    4    4    0    0  0.15609344046E+02  0.25402638097E+02 -0.10163874266E+02  0.31499999745E+02  0.00000000000E+00 0.  1.
         11    1    4    4    0    0 -0.46117743721E+02  0.49673770891E+02 -0.20598929161E+03  0.21685460119E+03  0.00000000000E+00 0. -1.
</event>
<event>
 8    1  0.6901948E-009  0.2779416E+03  0.7561462E-02  0.1096819E+00
          2   -1    0    0  501    0  0.00000000000E+00  0.00000000000E+00  0.34338537502E+03  0.34338537502E+03  0.00000000000E+00 0. -1.
         -2   -1    0    0    0  501 -0.00000000000E+00 -0.00000000000E+00 -0.25495573080E+03  0.25495573080E+03  0.00000000000E+00 0.  1.
         25    2    1    2    0    0 -0.26439834783E+03  0.64262983310E+02  0.87149324442E+02  0.31189559890E+03  0.12509053723E+03 0.  0.
         23    2    1    2    0    0  0.26439834783E+03 -0.64262983310E+02  0.12803197741E+01  0.28644550692E+03  0.89516321732E+02 0.  0.
          5    1    3    3  502    0 -0.25494887558E+03  0.43314674715E+02  0.43331341340E+02  0.26224066760E+03  0.41800000000E+01 0.  1.
         -5    1    3    3    0  502 -0.94494722489E+01  0.20948308595E+02  0.43817983102E+02  0.49654931295E+02  0.41800000000E+01 0.  1.
        -11    1    4    4    0    0  0.17026200229E+03 -0.25832752674E+02  0.41434961624E+02  0.17712520030E+03  0.00000000000E+00 0.  1.
         11    1    4    4    0    0  0.94136345532E+02 -0.38430230636E+02 -0.40154641850E+02  0.10932030662E+03  0.00000000000E+00 0. -1.
</event>
<event>
 8    1  0.6901948E-009  0.1234038E+03  0.7561462E-02  0.1237585E+00
          2   -1    0    0  501    0  0.00000000000E+00  0.00000000000E+00  0.30225994155E+03  0.30225994155E+03  0.00000000000E+00 0. -1.
         -2   -1    0    0    0  501 -0.00000000000E+00 -0.00000000000E+00 -0.89876834408E+02  0.89876834408E+02  0.00000000000E+00 0.  1.
         25    2    1    2    0    0  0.92135247199E+02 -0.54123778335E+02  0.39276638118E+02  0.16913757163E+03  0.12508627693E+03 0.  0.
         23    2    1    2    0    0 -0.92135247199E+02  0.54123778335E+02  0.17310646902E+03  0.22299920433E+03  0.91348280536E+02 0.  0.
          5    1    3    3  502    0  0.82010405124E+02 -0.77931923854E+02  0.66543205342E+02  0.13131855117E+03  0.41800000000E+01 0. -1.
         -5    1    3    3    0  502  0.10124842075E+02  0.23808145519E+02 -0.27266567223E+02  0.37819020456E+02  0.41800000000E+01 0. -1.
        -11    1    4    4    0    0 -0.80386857358E+02  0.51118119675E+02  0.18367742199E+03  0.20691182746E+03  0.00000000000E+00 0. -1.
         11    1    4    4    0    0 -0.11748389841E+02  0.30056586599E+01 -0.10570952968E+02  0.16087376868E+02  0.00000000000E+00 0.  1.
</event>
<event>
 8    1  0.6901948E-009  0.2192983E+03  0.7561462E-02  0.1134407E+00
          1   -1    0    0  501    0  0.00000000000E+00  0.00000000000E+00  0.16033188593E+04  0.16033188593E+04  0.00000000000E+00 0. -1.
         -1   -1    0    0    0  501 -0.00000000000E+00 -0.00000000000E+00 -0.35377310669E+02  0.35377310669E+02  0.00000000000E+00 0.  1.
         25    2    1    2    0    0  0.57943167803E+02 -0.20263351919E+03  0.75502687138E+03  0.79380783472E+03  0.12509016017E+03 0.  0.
         23    2    1    2    0    0 -0.57943167803E+02  0.20263351919E+03  0.81291467730E+03  0.84488833529E+03  0.92672934286E+02 0.  0.
          5    1    3    3  502    0 -0.69320588870E+01 -0.87192912328E+01  0.34353951031E+00  0.11902516516E+02  0.41800000000E+01 0.  1.
         -5    1    3    3    0  502  0.64875226690E+02 -0.19391422796E+03  0.75468333187E+03  0.78190531821E+03  0.41800000000E+01 0.  1.
        -11    1    4    4    0    0 -0.68921724544E+02  0.11659976887E+03  0.38121067362E+03  0.40455813908E+03  0.00000000000E+00 0.  1.
         11    1    4    4    0    0  0.10978556742E+02  0.86033750319E+02  0.43170400368E+03  0.44033019621E+03  0.00000000000E+00 0. -1.
</event>
<event>
 8    1  0.6901948E-009  0.1527621E+03  0.7561462E-02  0.1197119E+00
          1   -1    0    0  501    0  0.00000000000E+00  0.00000000000E+00  0.23160695063E+03  0.23160695063E+03  0.00000000000E+00 0. -1.
         -1   -1    0    0    0  501 -0.00000000000E+00 -0.00000000000E+00 -0.15466218661E+03  0.15466218661E+03  0.00000000000E+00 0.  1.
         25    2    1    2    0    0  0.10611885442E+03  0.10903585740E+03  0.23698832774E+02  0.19838746285E+03  0.12508365712E+03 0.  0.
         23    2    1    2    0    0 -0.10611885442E+03 -0.10903585740E+03  0.53245931240E+02  0.18788167439E+03  0.96510957496E+02 0.  0.
          5    1    3    3  502    0  0.20731469281E+02  0.29855253018E+02  0.65141020563E+02  0.74712481630E+02  0.41800000000E+01 0. -1.
         -5    1    3    3    0  502  0.85387385134E+02  0.79180604387E+02 -0.41442187789E+02  0.12367498122E+03  0.41800000000E+01 0. -1.
        -11    1    4    4    0    0 -0.95603752898E+02 -0.94087915723E+02  0.27331778617E+01  0.13416439064E+03  0.00000000000E+00 0.  1.
         11    1    4    4    0    0 -0.10515101517E+02 -0.14947941681E+02  0.50512753378E+02  0.53717283758E+02  0.00000000000E+00 0. -1.
</event>
<event>
 8    1  0.6901948E-009  0.1140524E+03  0.7561462E-02  0.1253244E+00
         -1   -1    0    0    0  501 -0.00000000000E+00  0.00000000000E+00  0.86961507513E+02  0.86961507513E+02  0.00000000000E+00 0.  1.
          1   -1    0    0  501    0  0.00000000000E+00 -0.00000000000E+00 -0.34174894929E+03  0.34174894929E+03  0.00000000000E+00 0. -1.
         25    2    1    2    0    0 -0.32539748182E+02  0.96511574088E+02 -0.26955855936E+02  0.16356223292E+03  0.12511061795E+03 0.  0.
         23    2    1    2    0    0  0.32539748182E+02 -0.96511574088E+02 -0.22783158584E+03  0.26514822388E+03  0.89571368064E+02 0.  0.
          5    1    3    3  502    0 -0.23435079414E+02  0.45571635289E+02 -0.76254807957E+02  0.91968717652E+02  0.41800000000E+01 0.  1.
         -5    1    3    3    0  502 -0.91046687684E+01  0.50939938799E+02  0.49298952020E+02  0.71593515269E+02  0.41800000000E+01 0.  1.
        -11    1    4    4    0    0  0.10107635178E+02 -0.10132830223E+03 -0.13258733871E+03  0.16717951880E+03  0.00000000000E+00 0.  1.
         11    1    4    4    0    0  0.22432113004E+02  0.48167281368E+01 -0.95244247129E+02  0.97968705079E+02  0.00000000000E+00 0. -1.
</event>
<event>
 8    1  0.6901948E-009  0.1404826E+03  0.7561462E-02  0.1212681E+00
         -1   -1    0    0    0  501 -0.00000000000E+00  0.00000000000E+00  0.24338701134E+03  0.24338701134E+03  0.00000000000E+00 0.  1.
          1   -1    0    0  501    0  0.00000000000E+00 -0.00000000000E+00 -0.11299183246E+03  0.11299183246E+03  0.00000000000E+00 0. -1.
         25    2    1    2    0    0  0.56941569387E+02  0.11040723015E+03  0.84245326911E+02  0.19539256146E+03  0.12509548023E+03 0.  0.
         23    2    1    2    0    0 -0.56941569387E+02 -0.11040723015E+03  0.46149851966E+02  0.16098628234E+03  0.91403913867E+02 0.  0.
          5    1    3    3  502    0 -0.17616207336E+02  0.21738520577E+02 -0.23765070821E+02  0.36947869071E+02  0.41800000000E+01 0.  1.
         -5    1    3    3    0  502  0.74557776723E+02  0.88668709574E+02  0.10801039773E+03  0.15844469239E+03  0.41800000000E+01 0.  1.
        -11    1    4    4    0    0 -0.64511190716E+02 -0.68230777508E+02  0.64970019576E+02  0.11418509610E+03  0.00000000000E+00 0.  1.
         11    1    4    4    0    0  0.75696213287E+01 -0.42176452644E+02 -0.18820167610E+02  0.46801186241E+02  0.00000000000E+00 0. -1.
</event>
<event>
 8    1  0.6901948E-009  0.1177526E+03  0.7561462E-02  0.1246851E+00
          1   -1    0    0  501    0  0.00000000000E+00  0.00000000000E+00  0.46212929433E+03  0.46212929433E+03  0.00000000000E+00 0. -1.
         -1   -1    0    0    0  501 -0.00000000000E+00 -0.00000000000E+00 -0.47996658418E+02  0.47996658418E+02  0.00000000000E+00 0.  1.
         25    2    1    2    0    0  0.25176773422E+02  0.66016057767E+02  0.34916755732E+03  0.37755855679E+03  0.12506194833E+03 0.  0.
         23    2    1    2    0    0 -0.25176773422E+02 -0.66016057767E+02  0.64965078593E+02  0.13256739596E+03  0.91442130502E+02 0.  0.
          5    1    3    3  502    0  0.68662795665E+02  0.94908656434E+01  0.13538290887E+03  0.15215341092E+03  0.41800000000E+01 0. -1.
         -5    1    3    3    0  502 -0.43486022243E+02  0.56525192124E+02  0.21378464845E+03  0.22540514587E+03  0.41800000000E+01 0. -1.
        -11    1    4    4    0    0  0.26016598125E+01  0.11755818470E+02 -0.13890188440E+02  0.18382198905E+02  0.00000000000E+00 0.  1.
         11    1    4    4    0    0 -0.27778433235E+02 -0.77771876237E+02  0.78855267033E+02  0.11418519705E+03  0.00000000000E+00 0. -1.
</event>
<event>
 8    1  0.6901948E-009  0.8872281E+02  0.7561462E-02  0.1305974E+00
          1   -1    0    0  501    0  0.00000000000E+00  0.00000000000E+00  0.34956631349E+02  0.34956631349E+02  0.00000000000E+00 0. -1.
         -1   -1    0    0    0  501 -0.00000000000E+00 -0.00000000000E+00 -0.40159543178E+03  0.40159543178E+03  0.00000000000E+00 0.  1.
         25    2    1    2    0    0 -0.36316942448E+02  0.14522367510E+02 -0.15374840772E+03  0.20205128160E+03  0.12512524947E+03 0.  0.
         23    2    1    2    0    0  0.36316942448E+02 -0.14522367510E+02 -0.21289039271E+03  0.23450078152E+03  0.90213512062E+02 0.  0.
          5    1    3    3  502    0 -0.64085251935E+02 -0.22732518952E+02 -0.13605097777E+03  0.15215461835E+03  0.41800000000E+01 0.  1.
         -5    1    3    3    0  502  0.27768309486E+02  0.37254886462E+02 -0.17697429944E+02  0.49896663251E+02  0.41800000000E+01 0.  1.
        -11    1    4    4    0    0  0.47961343969E+02 -0.16767689236E+02 -0.21627941707E+03  0.22216712665E+03  0.00000000000E+00 0.  1.
         11    1    4    4    0    0 -0.11644401520E+02  0.22453217267E+01  0.33890243541E+01  0.12333654872E+02  0.00000000000E+00 0. -1.
</event>
<event>
 7    1  0.6901948E-009  0.1679115E+03  0.7561462E-02  0.1180043E+00
         -2   -1    0    0    0  501 -0.00000000000E+00  0.00000000000E+00  0.21347182200E+03  0.21347182200E+03  0.00000000000E+00 0.  1.
          2   -1    0    0  501    0  0.00000000000E+00 -0.00000000000E+00 -0.20235538098E+03  0.20235538098E+03  0.00000000000E+00 0. -1.
         25    2    1    2    0    0  0.31230131745E+02 -0.14382513881E+03 -0.10647238053E+03  0.22055798271E+03  0.12509382175E+03 0.  0.
          5    1    3    3  502    0 -0.37225550319E+02 -0.77495268719E+02 -0.13109348540E+02  0.87066558962E+02  0.41800000000E+01 0. -1.
         -5    1    3    3    0  502  0.68455682063E+02 -0.66329870087E+02 -0.93363031991E+02  0.13349142375E+03  0.41800000000E+01 0. -1.
        -11    1    1    2    0    0  0.12289173485E+02  0.26821925908E+02  0.12311636785E+02  0.31968983322E+02  0.00000000000E+00 0.  1.
         11    1    1    2    0    0 -0.43519305229E+02  0.11700321290E+03  0.10527718476E+03  0.16330023695E+03  0.00000000000E+00 0. -1.
</event>
<event>
 8    1  0.6901948E-009  0.1133785E+03  0.7561462E-02  0.1254438E+00
         -2   -1    0    0    0  501 -0.00000000000E+00  0.00000000000E+00  0.37123706293E+02  0.37123706293E+02  0.00000000000E+00 0.  1.
          2   -1    0    0  501    0  0.00000000000E+00 -0.00000000000E+00 -0.42289267117E+03  0.42289267117E+03  0.00000000000E+00 0. -1.
         25    2    1    2    0    0  0.28423152979E+02 -0.39487129853E+02 -0.29300759061E+03  0.32229569222E+03  0.12511577048E+03 0.  0.
         23    2    1    2    0    0 -0.28423152979E+02  0.39487129853E+02 -0.92761374267E+02  0.13772068524E+03  0.89415913225E+02 0.  0.
          5    1    3    3  502    0 -0.36192910421E+02 -0.49469850021E+02 -0.19464624796E+03  0.20411229035E+03  0.41800000000E+01 0. -1.
         -5    1    3    3    0  502  0.64616063400E+02  0.99827201679E+01 -0.98361342648E+02  0.11818340187E+03  0.41800000000E+01 0. -1.
        -11    1    4    4    0    0  0.31617491715E+02  0.13468539706E+02 -0.19589663797E+02  0.39557834519E+02  0.00000000000E+00 0.  1.
         11    1    4    4    0    0 -0.60040644694E+02  0.26018590147E+02 -0.73171710470E+02  0.98162850721E+02  0.00000000000E+00 0. -1.
</event>
<event>
 8    1  0.6901948E-009  0.1266444E+03  0.7561462E-02  0.1232522E+00
          2   -1    0    0  501    0  0.00000000000E+00  0.00000000000E+00  0.36155976001E+03  0.36155976001E+03  0.00000000000E+00 0. -1.
         -2   -1    0    0    0  501 -0.00000000000E+00 -0.00000000000E+00 -0.70562235417E+02  0.70562235417E+02  0.00000000000E+00 0.  1.
         25    2    1    2    0    0 -0.10627004971E+03 -0.50646961556E+01  0.86216500351E+02  0.18547315049E+03  0.12509208611E+03 0.  0.
         23    2    1    2    0    0  0.10627004971E+03  0.50646961556E+01  0.20478102424E+03  0.24664884494E+03  0.87071293824E+02 0.  0.
          5    1    3    3  502    0 -0.20859080170E+02  0.22791553454E+02  0.90212949748E+02  0.95448440724E+02  0.41800000000E+01 0.  1.
         -5    1    3    3    0  502 -0.85410969541E+02 -0.27856249609E+02 -0.39964493973E+01  0.90024709764E+02  0.41800000000E+01 0.  1.
        -11    1    4    4    0    0  0.73330890602E+02 -0.34208502113E+02  0.15675185492E+03  0.17640517326E+03  0.00000000000E+00 0. -1.
         11    1    4    4    0    0  0.32939159109E+02  0.39273198269E+02  0.48029169328E+02  0.70243671682E+02  0.00000000000E+00 0.  1.
</event>
<event>
 8    1  0.6901948E-009  0.9442482E+02  0.7561462E-02  0.1292477E+00
         -1   -1    0    0    0  501 -0.00000000000E+00  0.00000000000E+00  0.21034003203E+02  0.21034003203E+02  0.00000000000E+00 0.  1.
          1   -1    0    0  501    0  0.00000000000E+00 -0.00000000000E+00 -0.59122932815E+03  0.59122932815E+03  0.00000000000E+00 0. -1.
         25    2    1    2    0    0 -0.34640254126E+02  0.29604827697E+01 -0.25629854573E+03  0.28731132031E+03  0.12510051388E+03 0.  0.
         23    2    1    2    0    0  0.34640254126E+02 -0.29604827697E+01 -0.31389677922E+03  0.32495201104E+03  0.76510847660E+02 0.  0.
          5    1    3    3  502    0 -0.60134657399E+02  0.30129181376E+02 -0.69575203280E+02  0.96861374667E+02  0.41800000000E+01 0.  1.
         -5    1    3    3    0  502  0.25494403272E+02 -0.27168698607E+02 -0.18672334245E+03  0.19044994565E+03  0.41800000000E+01 0.  1.
        -11    1    4    4    0    0  0.57399793387E+02 -0.13378054406E+02 -0.22632066274E+03  0.23386908946E+03  0.00000000000E+00 0.  1.
         11    1    4    4    0    0 -0.22759539261E+02  0.10417571637E+02 -0.87576116482E+02  0.91082921584E+02  0.00000000000E+00 0. -1.
</event>
<event>
 8    1  0.6901948E-009  0.1013117E+03  0.7561462E-02  0.1277562E+00
          1   -1    0    0  501    0  0.00000000000E+00  0.00000000000E+00  0.54219955500E+03  0.54219955500E+03  0.00000000000E+00 0. -1.
         -1   -1    0    0    0  501 -0.00000000000E+00 -0.00000000000E+00 -0.33471426148E+02  0.33471426148E+02  0.00000000000E+00 0.  1.
         25    2    1    2    0    0  0.40570763234E+02 -0.50486805832E+02  0.38055692426E+03  0.40579460910E+03  0.12510310860E+03 0.  0.
         23    2    1    2    0    0 -0.40570763234E+02  0.50486805832E+02  0.12817120459E+03  0.16987637205E+03  0.90748111274E+02 0.  0.
          5    1    3    3  502    0  0.62656611614E+02  0.62814777953E+01  0.96886410157E+02  0.11562766458E+03  0.41800000000E+01 0. -1.
         -5    1    3    3    0  502 -0.22085848379E+02 -0.56768283627E+02  0.28367051410E+03  0.29016694452E+03  0.41800000000E+01 0. -1.
        -11    1    4    4    0    0 -0.48927907219E+02  0.32826214933E+02  0.23558434649E+02  0.63454710895E+02  0.00000000000E+00 0.  1.
         11    1    4    4    0    0  0.83571439850E+01  0.17660590899E+02  0.10461276994E+03  0.10642166115E+03  0.00000000000E+00 0. -1.
</event>
<event>
 8    1  0.6901948E-009  0.1869496E+03  0.7561462E-02  0.1161242E+00
         -2   -1    0    0    0  501 -0.00000000000E+00  0.00000000000E+00  0.11570151316E+03  0.11570151316E+03  0.00000000000E+00 0.  1.
          2   -1    0    0  501    0  0.00000000000E+00 -0.00000000000E+00 -0.33971209378E+03  0.33971209378E+03  0.00000000000E+00 0. -1.
         25    2    1    2    0    0 -0.28911569594E+02 -0.15488042852E+03 -0.57736201103E+02  0.20929591146E+03  0.12508990224E+03 0.  0.
         23    2    1    2    0    0  0.28911569594E+02  0.15488042852E+03 -0.16627437952E+03  0.24611769548E+03  0.90016247139E+02 0.  0.
          5    1    3    3  502    0  0.18786835217E+02  0.11785744403E+02  0.78576491975E+01  0.23896945401E+02  0.41800000000E+01 0. -1.
         -5    1    3    3    0  502 -0.47698404812E+02 -0.16666617293E+03 -0.65593850300E+02  0.18539896606E+03  0.41800000000E+01 0. -1.
        -11    1    4    4    0    0 -0.28672080111E+02  0.37755381114E+02 -0.24317840782E+02  0.53281463580E+02  0.00000000000E+00 0.  1.
         11    1    4    4    0    0  0.57583649705E+02  0.11712504741E+03 -0.14195653874E+03  0.19283623190E+03  0.00000000000E+00 0. -1.
</event>
<event>
 8    1  0.6901948E-009  0.6644362E+02  0.7561462E-02  0.1372622E+00
          1   -1    0    0  501    0  0.00000000000E+00  0.00000000000E+00  0.17629727983E+03  0.17629727983E+03  0.00000000000E+00 0. -1.
         -1   -1    0    0    0  501 -0.00000000000E+00 -0.00000000000E+00 -0.70488600838E+02  0.70488600838E+02  0.00000000000E+00 0.  1.
         25    2    1    2    0    0  0.42330541815E+01  0.91349499637E+00  0.29018523621E+02  0.12848095219E+03  0.12508607893E+03 0.  0.
         23    2    1    2    0    0 -0.42330541815E+01 -0.91349499637E+00  0.76790155366E+02  0.11830492848E+03  0.89892018108E+02 0.  0.
          5    1    3    3  502    0  0.12128562965E+02 -0.18551939768E+02 -0.45587113869E+02  0.50861909713E+02  0.41800000000E+01 0. -1.
         -5    1    3    3    0  502 -0.78955087837E+01  0.19465434765E+02  0.74605637490E+02  0.77619042476E+02  0.41800000000E+01 0. -1.
        -11    1    4    4    0    0 -0.32990661336E+02  0.31478105858E+02  0.30215137245E+02  0.54701091420E+02  0.00000000000E+00 0.  1.
         11    1    4    4    0    0  0.28757607155E+02 -0.32391600854E+02  0.46575018121E+02  0.63603837055E+02  0.00000000000E+00 0. -1.
</event>
<event>
 8    1  0.6901948E-009  0.9615819E+02  0.7561462E-02  0.1288589E+00
          1   -1    0    0  501    0  0.00000000000E+00  0.00000000000E+00  0.39266696995E+03  0.39266696995E+03  0.00000000000E+00 0. -1.
         -1   -1    0    0    0  501 -0.00000000000E+00 -0.00000000000E+00 -0.43711438457E+02  0.43711438457E+02  0.00000000000E+00 0.  1.
         25    2    1    2    0    0 -0.13094341092E+02 -0.12179670989E+02  0.74614070348E+02  0.14671845990E+03  0.12505695034E+03 0.  0.
         23    2    1    2    0    0  0.13094341092E+02  0.12179670989E+02  0.27434146114E+03  0.28965994851E+03  0.91213169622E+02 0.  0.
          5    1    3    3  502    0  0.35479904223E+02 -0.31225693986E+02  0.81116037289E+02  0.93974206429E+02  0.41800000000E+01 0.  1.
         -5    1    3    3    0  502 -0.48574245316E+02  0.19046022997E+02 -0.65019669409E+01  0.52744253470E+02  0.41800000000E+01 0.  1.
        -11    1    4    4    0    0  0.47283886689E+02  0.27893665071E+02  0.17611178059E+03  0.18447000231E+03  0.00000000000E+00 0.  1.
         11    1    4    4    0    0 -0.34189545597E+02 -0.15713994082E+02  0.98229680553E+02  0.10518994619E+03  0.00000000000E+00 0. -1.
</event>
<event>
 8    1  0.6901948E-009  0.1190210E+03  0.7561462E-02  0.1244721E+00
         -4   -1    0    0    0  501 -0.00000000000E+00  0.00000000000E+00  0.64751321454E+02  0.64751321454E+02  0.00000000000E+00 0.  1.
          4   -1    0    0  501    0  0.00000000000E+00 -0.00000000000E+00 -0.26027073597E+03  0.26027073597E+03  0.00000000000E+00 0. -1.
         25    2    1    2    0    0 -0.43967852316E+02  0.48102843078E+02 -0.70708458189E+02  0.15778017643E+03  0.12509133649E+03 0.  0.
         23    2    1    2    0    0  0.43967852316E+02 -0.48102843078E+02 -0.12481095633E+03  0.16724188100E+03  0.90249744552E+02 0.  0.
          5    1    3    3  502    0  0.36264811757E+02  0.20997104920E+02 -0.58550112763E+02  0.72122140091E+02  0.41800000000E+01 0.  1.
         -5    1    3    3    0  502 -0.80232664073E+02  0.27105738158E+02 -0.12158345426E+02  0.85658036335E+02  0.41800000000E+01 0.  1.
        -11    1    4    4    0    0  0.69058703680E+02 -0.51044340527E+02 -0.92327820626E+02  0.12609145774E+03  0.00000000000E+00 0.  1.
         11    1    4    4    0    0 -0.25090851364E+02  0.29414974487E+01 -0.32483135704E+02  0.41150423261E+02  0.00000000000E+00 0. -1.
</event>
<event>
 8    1  0.6901948E-009  0.9103090E+02  0.7561462E-02  0.1300374E+00
         -2   -1    0    0    0  501 -0.00000000000E+00  0.00000000000E+00  0.14019669659E+02  0.14019669659E+02  0.00000000000E+00 0.  1.
          2   -1    0    0  501    0  0.00000000000E+00 -0.00000000000E+00 -0.12161470629E+04  0.12161470629E+04  0.00000000000E+00 0. -1.
         25    2    1    2    0    0 -0.56953916261E+02  0.37702704486E+02 -0.77503279067E+03  0.78802925989E+03  0.12509614428E+03 0.  0.
         23    2    1    2    0    0  0.56953916261E+02 -0.37702704486E+02 -0.42709460258E+03  0.44213747268E+03  0.91708792910E+02 0.  0.
          5    1    3    3  502    0  0.83323739884E+01  0.10751798704E+02 -0.55088204702E+01  0.15259394962E+02  0.41800000000E+01 0. -1.
         -5    1    3    3    0  502 -0.65286290250E+02  0.26950905783E+02 -0.76952397020E+03  0.77276986493E+03  0.41800000000E+01 0. -1.
        -11    1    4    4    0    0  0.65820694060E+02 -0.82699632085E+01 -0.38100773629E+03  0.38673977190E+03  0.00000000000E+00 0. -1.
         11    1    4    4    0    0 -0.88667777983E+01 -0.29432741278E+02 -0.46086866286E+02  0.55397700780E+02  0.00000000000E+00 0.  1.
</event>
<event>
 8    1  0.6901948E-009  0.1069720E+03  0.7561462E-02  0.1266282E+00
         -3   -1    0    0    0  501 -0.00000000000E+00  0.00000000000E+00  0.41818911117E+02  0.41818911117E+02  0.00000000000E+00 0.  1.
          3   -1    0    0  501    0  0.00000000000E+00 -0.00000000000E+00 -0.52781908391E+03  0.52781908391E+03  0.00000000000E+00 0. -1.
         25    2    1    2    0    0 -0.38224507000E+02  0.82452634207E+02 -0.35277302991E+03  0.38518426835E+03  0.12513416850E+03 0.  0.
         23    2    1    2    0    0  0.38224507000E+02 -0.82452634207E+02 -0.13322714288E+03  0.18445372668E+03  0.89521817799E+02 0.  0.
          5    1    3    3  502    0 -0.44739950805E+02  0.52082037806E+02 -0.34644796354E+03  0.35321079500E+03  0.41800000000E+01 0. -1.
         -5    1    3    3    0  502  0.65154438051E+01  0.30370596401E+02 -0.63250663720E+01  0.31973473354E+02  0.41800000000E+01 0. -1.
        -11    1    4    4    0    0 -0.84901010219E+01  0.82193492910E+01  0.48626474019E+01  0.12778296361E+02  0.00000000000E+00 0.  1.
         11    1    4    4    0    0  0.46714608022E+02 -0.90671983498E+02 -0.13808979028E+03  0.17167543032E+03  0.00000000000E+00 0. -1.
</event>
<event>
 8    1  0.6901948E-009  0.1311425E+03  0.7561462E-02  0.1225770E+00
          1   -1    0    0  501    0  0.00000000000E+00  0.00000000000E+00  0.18467016682E+03  0.18467016682E+03  0.00000000000E+00 0. -1.
         -1   -1    0    0    0  501 -0.00000000000E+00 -0.00000000000E+00 -0.97324199110E+02  0.97324199110E+02  0.00000000000E+00 0.  1.
         25    2    1    2    0    0 -0.30592121204E+02 -0.72096401471E+02  0.56685457701E+02  0.15809879643E+03  0.12509284285E+03 0.  0.
         23    2    1    2    0    0  0.30592121204E+02  0.72096401471E+02  0.30660510007E+02  0.12389556950E+03  0.90974041803E+02 0.  0.
          5    1    3    3  502    0  0.16885927751E+01 -0.10250995349E+03  0.45006855361E+02  0.11204566631E+03  0.41800000000E+01 0.  1.
         -5    1    3    3    0  502 -0.32280713979E+02  0.30413552017E+02  0.11678602340E+02  0.46053130120E+02  0.41800000000E+01 0.  1.
        -11    1    4    4    0    0 -0.49410989984E+01  0.78811362777E+02  0.36961991225E+02  0.87188497850E+02  0.00000000000E+00 0. -1.
         11    1    4    4    0    0  0.35533220202E+02 -0.67149613054E+01 -0.63014812182E+01  0.36707071646E+02  0.00000000000E+00 0.  1.
</event>
<event>
 8    1  0.6901948E-009  0.1493052E+03  0.7561462E-02  0.1201329E+00
          1   -1    0    0  501    0  0.00000000000E+00  0.00000000000E+00  0.65030950605E+02  0.65030950605E+02  0.00000000000E+00 0. -1.
         -1   -1    0    0    0  501 -0.00000000000E+00 -0.00000000000E+00 -0.48492045903E+03  0.48492045903E+03  0.00000000000E+00 0.  1.
         25    2    1    2    0    0  0.47462729647E+02 -0.11568234181E+03 -0.12373107516E+03  0.21585379784E+03  0.12509343775E+03 0.  0.
         23    2    1    2    0    0 -0.47462729647E+02  0.11568234181E+03 -0.29615843326E+03  0.33409761180E+03  0.90974071616E+02 0.  0.
          5    1    3    3  502    0 -0.18387502162E+02 -0.92676133927E+02 -0.10923447744E+03  0.14448740255E+03  0.41800000000E+01 0. -1.
         -5    1    3    3    0  502  0.65850231809E+02 -0.23006207878E+02 -0.14496597726E+02  0.71366395284E+02  0.41800000000E+01 0. -1.
        -11    1    4    4    0    0 -0.57003980230E+02  0.87751680484E+02 -0.13788478376E+03  0.17309542103E+03  0.00000000000E+00 0. -1.
         11    1    4    4    0    0  0.95412505826E+01  0.27930661321E+02 -0.15827364951E+03  0.16100219077E+03  0.00000000000E+00 0.  1.
</event>
<event>
 8    1  0.6901948E-009  0.1024523E+03  0.7561462E-02  0.1275222E+00
          3   -1    0    0  501    0  0.00000000000E+00  0.00000000000E+00  0.31279533273E+03  0.31279533273E+03  0.00000000000E+00 0. -1.
         -3   -1    0    0    0  501 -0.00000000000E+00 -0.00000000000E+00 -0.48845595429E+02  0.48845595429E+02  0.00000000000E+00 0.  1.
         25    2    1    2    0    0 -0.33995028405E+02  0.35890662515E+02  0.19491680987E+03  0.23681848430E+03  0.12508649058E+03 0.  0.
         23    2    1    2    0    0  0.33995028405E+02 -0.35890662515E+02  0.69032927432E+02  0.12482244385E+03  0.91494785688E+02 0.  0.
          5    1    3    3  502    0 -0.49742690769E+02  0.64384154335E+02  0.69212069308E+02  0.10689919341E+03  0.41800000000E+01 0.  1.
         -5    1    3    3    0  502  0.15747662364E+02 -0.28493491820E+02  0.12570474056E+03  0.12991929089E+03  0.41800000000E+01 0.  1.
        -11    1    4    4    0    0 -0.19928735040E+02  0.76082641200E+01  0.47826450204E+02  0.52368019843E+02  0.00000000000E+00 0. -1.
         11    1    4    4    0    0  0.53923763444E+02 -0.43498926635E+02  0.21206477228E+02  0.72454424012E+02  0.00000000000E+00 0.  1.
</event>
<event>
 8    1  0.6901948E-009  0.9261548E+02  0.7561462E-02  0.1296639E+00
          2   -1    0    0  501    0  0.00000000000E+00  0.00000000000E+00  0.30852388861E+03  0.30852388861E+03  0.00000000000E+00 0.  1.
         -2   -1    0    0    0  501 -0.00000000000E+00 -0.00000000000E+00 -0.47621286263E+02  0.47621286263E+02  0.00000000000E+00 0. -1.
         25    2    1    2    0    0  0.48859595631E+02  0.22063160086E+02  0.14133696287E+03  0.19621108611E+03  0.12509440483E+03 0.  0.
         23    2    1    2    0    0 -0.48859595631E+02 -0.22063160086E+02  0.11956563947E+03  0.15993408876E+03  0.91700204400E+02 0.  0.
          5    1    3    3  502    0  0.33926667231E+02  0.45023871831E+02  0.46239745212E+01  0.56718791634E+02  0.41800000000E+01 0.  1.
         -5    1    3    3    0  502  0.14932928399E+02 -0.22960711745E+02  0.13671298835E+03  0.13949229448E+03  0.41800000000E+01 0.  1.
        -11    1    4    4    0    0 -0.60500319566E+02  0.14844127193E+02  0.96566447799E+02  0.11491612428E+03  0.00000000000E+00 0.  1.
         11    1    4    4    0    0  0.11640723935E+02 -0.36907287279E+02  0.22999191672E+02  0.45017964476E+02  0.00000000000E+00 0. -1.
</event>
<event>
 8    1  0.6901948E-009  0.1161465E+03  0.7561462E-02  0.1249593E+00
         -2   -1    0    0    0  501 -0.00000000000E+00  0.00000000000E+00  0.16206400302E+03  0.16206400302E+03  0.00000000000E+00 0. -1.
          2   -1    0    0  501    0  0.00000000000E+00 -0.00000000000E+00 -0.13678347864E+03  0.13678347864E+03  0.00000000000E+00 0.  1.
         25    2    1    2    0    0  0.96154642118E+02 -0.31854688020E+02  0.30628662823E+02  0.16384872586E+03  0.12509138111E+03 0.  0.
         23    2    1    2    0    0 -0.96154642118E+02  0.31854688020E+02 -0.53481384372E+01  0.13499875581E+03  0.89082125791E+02 0.  0.
          5    1    3    3  502    0  0.62216939058E+02 -0.55547234907E+02 -0.31352374785E+02  0.89201382367E+02  0.41800000000E+01 0. -1.
         -5    1    3    3    0  502  0.33937703060E+02  0.23692546886E+02  0.61981037608E+02  0.74647343489E+02  0.41800000000E+01 0. -1.
        -11    1    4    4    0    0 -0.57225486713E+02  0.55001436278E+00  0.38134873811E+02  0.68770105758E+02  0.00000000000E+00 0. -1.
         11    1    4    4    0    0 -0.38929155405E+02  0.31304673658E+02 -0.43483012249E+02  0.66228650051E+02  0.00000000000E+00 0.  1.
</event>
<event>
 8    1  0.6901948E-009  0.1020615E+03  0.7561462E-02  0.1276020E+00
         -1   -1    0    0    0  501 -0.00000000000E+00  0.00000000000E+00  0.71057102205E+02  0.71057102205E+02  0.00000000000E+00 0.  1.
          1   -1    0    0  501    0  0.00000000000E+00 -0.00000000000E+00 -0.42764394819E+03  0.42764394819E+03  0.00000000000E+00 0. -1.
         25    2    1    2    0    0 -0.20000319431E+02 -0.24913474914E+02  0.53359350197E+00  0.12910808025E+03  0.12509163702E+03 0.  0.
         23    2    1    2    0    0  0.20000319431E+02  0.24913474914E+02 -0.35712043949E+03  0.36959297015E+03  0.89684230917E+02 0.  0.
          5    1    3    3  502    0  0.42519461228E+02  0.69977250550E+01  0.30202798504E+02  0.52787822237E+02  0.41800000000E+01 0. -1.
         -5    1    3    3    0  502 -0.62519780659E+02 -0.31911199969E+02 -0.29669205002E+02  0.76320258009E+02  0.41800000000E+01 0. -1.
        -11    1    4    4    0    0 -0.18496472962E+02  0.43863598443E+02 -0.12970061333E+03  0.13816071756E+03  0.00000000000E+00 0.  1.
         11    1    4    4    0    0  0.38496792393E+02 -0.18950123529E+02 -0.22741982616E+03  0.23143225258E+03  0.00000000000E+00 0. -1.
</event>
<event>
 8    1  0.6901948E-009  0.1196837E+03  0.7561462E-02  0.1243620E+00
          2   -1    0    0  501    0  0.00000000000E+00  0.00000000000E+00  0.16726016937E+03  0.16726016937E+03  0.00000000000E+00 0. -1.
         -2   -1    0    0    0  501 -0.00000000000E+00 -0.00000000000E+00 -0.10374888342E+03  0.10374888342E+03  0.00000000000E+00 0.  1.
         25    2    1    2    0    0 -0.12802840136E+02  0.70959982685E+02  0.19002207865E+02  0.14562561403E+03  0.12508598522E+03 0.  0.
         23    2    1    2    0    0  0.12802840136E+02 -0.70959982685E+02  0.44509078091E+02  0.12538343876E+03  0.92415998754E+02 0.  0.
          5    1    3    3  502    0 -0.66380029348E+02  0.36671013385E+02 -0.80488060993E+01  0.76376221421E+02  0.41800000000E+01 0. -1.
         -5    1    3    3    0  502  0.53577189212E+02  0.34288969301E+02  0.27051013964E+02  0.69249392604E+02  0.41800000000E+01 0. -1.
        -11    1    4    4    0    0 -0.22244889053E+02 -0.20258684803E+01 -0.15762003835E+02  0.27338251534E+02  0.00000000000E+00 0.  1.
         11    1    4    4    0    0  0.35047729189E+02 -0.68934114205E+02  0.60271081925E+02  0.98045187230E+02  0.00000000000E+00 0. -1.
</event>
<event>
 8    1  0.6901948E-009  0.3230922E+03  0.7561462E-02  0.1074235E+00
         -1   -1    0    0    0  501 -0.00000000000E+00  0.00000000000E+00  0.11048815076E+03  0.11048815076E+03  0.00000000000E+00 0.  1.
          1   -1    0    0  501    0  0.00000000000E+00 -0.00000000000E+00 -0.12382798129E+04  0.12382798129E+04  0.00000000000E+00 0. -1.
         25    2    1    2    0    0 -0.30740316264E+03 -0.82605204704E+02 -0.29038821786E+03  0.44865899879E+03  0.12509698586E+03 0.  0.
         23    2    1    2    0    0  0.30740316264E+03  0.82605204704E+02 -0.83740344425E+03  0.90010896485E+03  0.87357288820E+02 0.  0.
          5    1    3    3  502    0 -0.13058515870E+03 -0.73743614751E+02 -0.19947578265E+03  0.24959700449E+03  0.41800000000E+01 0. -1.
         -5    1    3    3    0  502 -0.17681800394E+03 -0.88615899536E+01 -0.90912435219E+02  0.19906199430E+03  0.41800000000E+01 0. -1.
        -11    1    4    4    0    0  0.12565687584E+03  0.22604936370E+02 -0.22746792282E+03  0.26084917003E+03  0.00000000000E+00 0.  1.
         11    1    4    4    0    0  0.18174628681E+03  0.60000268335E+02 -0.60993552143E+03  0.63925979482E+03  0.00000000000E+00 0. -1.
</event>
<event>
 8    1  0.6901948E-009  0.8247808E+02  0.7561462E-02  0.1322163E+00
          1   -1    0    0  501    0  0.00000000000E+00  0.00000000000E+00  0.16460021978E+03  0.16460021978E+03  0.00000000000E+00 0. -1.
         -1   -1    0    0    0  501 -0.00000000000E+00 -0.00000000000E+00 -0.80849304105E+02  0.80849304105E+02  0.00000000000E+00 0.  1.
         25    2    1    2    0    0  0.22409708671E+02 -0.18087213774E+02  0.62403728490E+01  0.12850921558E+03  0.12508530646E+03 0.  0.
         23    2    1    2    0    0 -0.22409708671E+02  0.18087213774E+02  0.77510542826E+02  0.11694030830E+03  0.82691046143E+02 0.  0.
          5    1    3    3  502    0  0.62856922073E+02 -0.28606210098E+01 -0.31941853588E+02  0.70688968133E+02  0.41800000000E+01 0. -1.
         -5    1    3    3    0  502 -0.40447213402E+02 -0.15226592764E+02  0.38182226437E+02  0.57820247448E+02  0.41800000000E+01 0. -1.
        -11    1    4    4    0    0 -0.31475971564E+02  0.30015141966E+02  0.60330826167E+01  0.43909493494E+02  0.00000000000E+00 0.  1.
         11    1    4    4    0    0  0.90662628924E+01 -0.11927928191E+02  0.71477460209E+02  0.73030814810E+02  0.00000000000E+00 0. -1.
</event>
<event>
 8    1  0.6901948E-009  0.7532577E+02  0.7561462E-02  0.1342865E+00
         -2   -1    0    0    0  501 -0.00000000000E+00  0.00000000000E+00  0.10740155309E+03  0.10740155309E+03  0.00000000000E+00 0.  1.
          2   -1    0    0  501    0  0.00000000000E+00 -0.00000000000E+00 -0.18300388009E+03  0.18300388009E+03  0.00000000000E+00 0. -1.
         25    2    1    2    0    0  0.60540673206E+02 -0.11306655874E+01 -0.11278121671E+03  0.17897869832E+03  0.12508924852E+03 0.  0.
         23    2    1    2    0    0 -0.60540673206E+02  0.11306655874E+01  0.37178889709E+02  0.11142673485E+03  0.85832370836E+02 0.  0.
          5    1    3    3  502    0  0.12506162725E+02  0.29527407532E+02  0.17463525387E+02  0.36752129470E+02  0.41800000000E+01 0. -1.
         -5    1    3    3    0  502  0.48034510481E+02 -0.30658073119E+02 -0.13024474209E+03  0.14222656885E+03  0.41800000000E+01 0. -1.
        -11    1    4    4    0    0 -0.13356524148E+02  0.38892893226E+01  0.58097484688E+02  0.59739777669E+02  0.00000000000E+00 0.  1.
         11    1    4    4    0    0 -0.47184149058E+02 -0.27586237352E+01 -0.20918594979E+02  0.51686957186E+02  0.00000000000E+00 0. -1.
</event>
<event>
 8    1  0.6901948E-009  0.1284433E+03  0.7561462E-02  0.1229784E+00
          3   -1    0    0  501    0  0.00000000000E+00  0.00000000000E+00  0.18970977672E+03  0.18970977672E+03  0.00000000000E+00 0. -1.
         -3   -1    0    0    0  501 -0.00000000000E+00 -0.00000000000E+00 -0.12385189566E+03  0.12385189566E+03  0.00000000000E+00 0.  1.
         25    2    1    2    0    0 -0.10939902666E+02 -0.10831652626E+03  0.70739345392E+02  0.18028817116E+03  0.12509044065E+03 0.  0.
         23    2    1    2    0    0  0.10939902666E+02  0.10831652626E+03 -0.48814643309E+01  0.13327350122E+03  0.76719268122E+02 0.  0.
          5    1    3    3  502    0 -0.30572644857E+02  0.44838562176E+01  0.56899186016E+02  0.64882827847E+02  0.41800000000E+01 0.  1.
         -5    1    3    3    0  502  0.19632742191E+02 -0.11280038248E+03  0.13840159376E+02  0.11540534331E+03  0.41800000000E+01 0.  1.
        -11    1    4    4    0    0 -0.69077281309E+01  0.35033584286E+02 -0.36886660193E+02  0.51339014756E+02  0.00000000000E+00 0.  1.
         11    1    4    4    0    0  0.17847630797E+02  0.73282941976E+02  0.32005195863E+02  0.81934486463E+02  0.00000000000E+00 0. -1.
</event>
<event>
 8    1  0.6901948E-009  0.9110583E+02  0.7561462E-02  0.1300196E+00
          1   -1    0    0  501    0  0.00000000000E+00  0.00000000000E+00  0.20267504778E+03  0.20267504778E+03  0.00000000000E+00 0.  1.
         -1   -1    0    0    0  501 -0.00000000000E+00 -0.00000000000E+00 -0.90051349955E+02  0.90051349955E+02  0.00000000000E+00 0. -1.
         25    2    1    2    0    0  0.38968647605E+02  0.68592157399E+02  0.28448553943E+02  0.15059801437E+03  0.12508797767E+03 0.  0.
         23    2    1    2    0    0 -0.38968647605E+02 -0.68592157399E+02  0.84175143883E+02  0.14212838336E+03  0.83015558525E+02 0.  0.
          5    1    3    3  502    0  0.29603490822E+02  0.16970882491E+02  0.73613469016E+02  0.81245262889E+02  0.41800000000E+01 0. -1.
         -5    1    3    3    0  502  0.93651567837E+01  0.51621274908E+02 -0.45164915073E+02  0.69352751483E+02  0.41800000000E+01 0. -1.
        -11    1    4    4    0    0 -0.34578821612E+02 -0.93795624543E+01  0.73546773468E+02  0.81809528684E+02  0.00000000000E+00 0.  1.
         11    1    4    4    0    0 -0.43898259930E+01 -0.59212594945E+02  0.10628370416E+02  0.60318854681E+02  0.00000000000E+00 0. -1.
</event>
<event>
 8    1  0.6901948E-009  0.8525791E+02  0.7561462E-02  0.1314759E+00
         -1   -1    0    0    0  501 -0.00000000000E+00  0.00000000000E+00  0.34143406403E+03  0.34143406403E+03  0.00000000000E+00 0.  1.
          1   -1    0    0  501    0  0.00000000000E+00 -0.00000000000E+00 -0.45261900111E+02  0.45261900111E+02  0.00000000000E+00 0. -1.
         25    2    1    2    0    0 -0.75278226168E+01  0.51729828457E+02  0.21196800382E+03  0.25161415461E+03  0.12508638970E+03 0.  0.
         23    2    1    2    0    0  0.75278226168E+01 -0.51729828457E+02  0.84204160092E+02  0.13508180953E+03  0.91782958245E+02 0.  0.
          5    1    3    3  502    0 -0.22617181227E+02  0.89820063797E+01 -0.87908806783E+01  0.26210023051E+02  0.41800000000E+01 0.  1.
         -5    1    3    3    0  502  0.15089358610E+02  0.42747822077E+02  0.22075888450E+03  0.22540413156E+03  0.41800000000E+01 0.  1.
        -11    1    4    4    0    0 -0.13898899127E+02 -0.70473395694E+02  0.39203989996E+02  0.81832950144E+02  0.00000000000E+00 0. -1.
         11    1    4    4    0    0  0.21426721743E+02  0.18743567238E+02  0.45000170097E+02  0.53248859389E+02  0.00000000000E+00 0.  1.
</event>
<event>
 8    1  0.6901948E-009  0.1072396E+03  0.7561462E-02  0.1265769E+00
         -2   -1    0    0    0  501 -0.00000000000E+00  0.00000000000E+00  0.30576403639E+02  0.30576403639E+02  0.00000000000E+00 0. -1.
          2   -1    0    0  501    0  0.00000000000E+00 -0.00000000000E+00 -0.55477504257E+03  0.55477504257E+03  0.00000000000E+00 0.  1.
         25    2    1    2    0    0 -0.51260792511E+02 -0.14968714135E+02 -0.39952457106E+03  0.42204277274E+03  0.12509391627E+03 0.  0.
         23    2    1    2    0    0  0.51260792511E+02  0.14968714135E+02 -0.12467406787E+03  0.16330867347E+03  0.90963555223E+02 0.  0.
          5    1    3    3  502    0 -0.75452207449E+02  0.32647714958E+02 -0.23313195104E+03  0.24723852430E+03  0.41800000000E+01 0.  1.
         -5    1    3    3    0  502  0.24191414938E+02 -0.47616429093E+02 -0.16639262002E+03  0.17480424844E+03  0.41800000000E+01 0.  1.
        -11    1    4    4    0    0  0.63133580302E+02  0.54460366080E+01 -0.13199631318E+03  0.14641903896E+03  0.00000000000E+00 0.  1.
         11    1    4    4    0    0 -0.11872787791E+02  0.95226775270E+01  0.73222453156E+01  0.16889634504E+02  0.00000000000E+00 0. -1.
</event>
<event>
 8    1  0.6901948E-009  0.3145249E+03  0.7561462E-02  0.1078197E+00
          1   -1    0    0  501    0  0.00000000000E+00  0.00000000000E+00  0.17758007046E+03  0.17758007046E+03  0.00000000000E+00 0. -1.
         -1   -1    0    0    0  501 -0.00000000000E+00 -0.00000000000E+00 -0.68404249238E+03  0.68404249238E+03  0.00000000000E+00 0.  1.
         25    2    1    2    0    0 -0.17932890827E+03 -0.25559805649E+03 -0.39301392712E+03  0.51729652727E+03  0.12508607594E+03 0.  0.
         23    2    1    2    0    0  0.17932890827E+03  0.25559805649E+03 -0.11344849480E+03  0.34432603557E+03  0.90557351871E+02 0.  0.
          5    1    3    3  502    0 -0.18444850031E+02 -0.19642934029E+02  0.46812339490E+01  0.27666653235E+02  0.41800000000E+01 0. -1.
         -5    1    3    3    0  502 -0.16088405824E+03 -0.23595512246E+03 -0.39769516107E+03  0.48962987404E+03  0.41800000000E+01 0. -1.
        -11    1    4    4    0    0  0.25248147230E+02  0.73020650031E+02  0.54798319661E+01  0.77456522177E+02  0.00000000000E+00 0.  1.
         11    1    4    4    0    0  0.15408076104E+03  0.18257740646E+03 -0.11892832677E+03  0.26686951339E+03  0.00000000000E+00 0. -1.
</event>
<event>
 7    1  0.6901948E-009  0.1113457E+03  0.7561462E-02  0.1258098E+00
          1   -1    0    0  501    0  0.00000000000E+00  0.00000000000E+00  0.37913934777E+03  0.37913934777E+03  0.00000000000E+00 0. -1.
         -1   -1    0    0    0  501 -0.00000000000E+00 -0.00000000000E+00 -0.48406872210E+02  0.48406872210E+02  0.00000000000E+00 0.  1.
         23    2    1    2    0    0 -0.70043135327E+02  0.22502192416E+02  0.19339215928E+03  0.22769796235E+03  0.95044438639E+02 0.  0.
          5    1    1    2  502    0  0.98720084427E+02 -0.14106211748E+01  0.12994476460E+03  0.16325060235E+03  0.41800000000E+01 0. -1.
         -5    1    1    2    0  502 -0.28676949100E+02 -0.21091571241E+02  0.73955516769E+01  0.36597655276E+02  0.41800000000E+01 0. -1.
        -11    1    3    3    0    0 -0.54626547067E+02 -0.66726573431E+01  0.18588072288E+03  0.19385620222E+03  0.00000000000E+00 0. -1.
         11    1    3    3    0    0 -0.15416588260E+02  0.29174849759E+02  0.75114364060E+01  0.33841760133E+02  0.00000000000E+00 0.  1.
</event>
<event>
 8    1  0.6901948E-009  0.1659649E+03  0.7561462E-02  0.1182122E+00
          2   -1    0    0  501    0  0.00000000000E+00  0.00000000000E+00  0.17457769309E+04  0.17457769309E+04  0.00000000000E+00 0. -1.
         -2   -1    0    0    0  501 -0.00000000000E+00 -0.00000000000E+00 -0.20289060802E+02  0.20289060802E+02  0.00000000000E+00 0.  1.
         25    2    1    2    0    0 -0.22550067122E+02  0.14495704974E+03  0.11223474216E+04  0.11387853682E+04  0.12508928104E+03 0.  0.
         23    2    1    2    0    0  0.22550067122E+02 -0.14495704974E+03  0.60314044848E+03  0.62728062349E+03  0.90451800545E+02 0.  0.
          5    1    3    3  502    0  0.13190925149E+02  0.11230800828E+03  0.42689779647E+03  0.44164045361E+03  0.41800000000E+01 0. -1.
         -5    1    3    3    0  502 -0.35740992271E+02  0.32649041466E+02  0.69544962511E+03  0.69714491456E+03  0.41800000000E+01 0. -1.
        -11    1    4    4    0    0  0.55282524258E+02 -0.10374123861E+03  0.36788452673E+03  0.38620904584E+03  0.00000000000E+00 0. -1.
         11    1    4    4    0    0 -0.32732457135E+02 -0.41215811133E+02  0.23525592175E+03  0.24107157766E+03  0.00000000000E+00 0.  1.
</event>
<event>
 8    1  0.6901948E-009  0.7569856E+02  0.7561462E-02  0.1341721E+00
         -3   -1    0    0    0  501 -0.00000000000E+00  0.00000000000E+00  0.33483426252E+02  0.33483426252E+02  0.00000000000E+00 0.  1.
          3   -1    0    0  501    0  0.00000000000E+00 -0.00000000000E+00 -0.42435901619E+03  0.42435901619E+03  0.00000000000E+00 0. -1.
         25    2    1    2    0    0 -0.18684839015E+02 -0.46240615654E+02 -0.22582053198E+03  0.26295315128E+03  0.12514842931E+03 0.  0.
         23    2    1    2    0    0  0.18684839015E+02  0.46240615654E+02 -0.16505505796E+03  0.19488929116E+03  0.90836919294E+02 0.  0.
          5    1    3    3  502    0  0.49670852736E+01 -0.23243641273E+02  0.90246911696E+01  0.25765407943E+02  0.41800000000E+01 0. -1.
         -5    1    3    3    0  502 -0.23651924289E+02 -0.22996974381E+02 -0.23484522315E+03  0.23718774334E+03  0.41800000000E+01 0. -1.
        -11    1    4    4    0    0  0.50265940892E+02  0.27848305416E+02 -0.13779110746E+03  0.14929361079E+03  0.00000000000E+00 0. -1.
         11    1    4    4    0    0 -0.31581101877E+02  0.18392310238E+02 -0.27263950501E+02  0.45595680372E+02  0.00000000000E+00 0.  1.
</event>
<event>
 8    1  0.6901948E-009  0.9549516E+02  0.7561462E-02  0.1290065E+00
         -2   -1    0    0    0  501 -0.00000000000E+00  0.00000000000E+00  0.64464873270E+02  0.64464873270E+02  0.00000000000E+00 0. -1.
          2   -1    0    0  501    0  0.00000000000E+00 -0.00000000000E+00 -0.38457328247E+03  0.38457328247E+03  0.00000000000E+00 0.  1.
         25    2    1    2    0    0 -0.55436707124E+02 -0.85906228293E+01 -0.30675297962E+02  0.14047998095E+03  0.12508646548E+03 0.  0.
         23    2    1    2    0    0  0.55436707124E+02  0.85906228293E+01 -0.28943311124E+03  0.30855817479E+03  0.91047207818E+02 0.  0.
          5    1    3    3  502    0 -0.59916295286E+02 -0.38951956971E+02 -0.63253069484E+02  0.95528218824E+02  0.41800000000E+01 0.  1.
         -5    1    3    3    0  502  0.44795881623E+01  0.30361334141E+02  0.32577771521E+02  0.44951762126E+02  0.41800000000E+01 0.  1.
        -11    1    4    4    0    0  0.35361777734E+02  0.38584768482E+02 -0.77142091992E+02  0.93220931342E+02  0.00000000000E+00 0.  1.
         11    1    4    4    0    0  0.20074929390E+02 -0.29994145653E+02 -0.21229101924E+03  0.21533724345E+03  0.00000000000E+00 0. -1.
</event>
<event>
 8    1  0.6901948E-009  0.1182369E+03  0.7561462E-02  0.1246034E+00
          2   -1    0    0  501    0  0.00000000000E+00  0.00000000000E+00  0.45005615873E+03  0.45005615873E+03  0.00000000000E+00 0. -1.
         -2   -1    0    0    0  501 -0.00000000000E+00 -0.00000000000E+00 -0.39010493005E+02  0.39010493005E+02  0.00000000000E+00 0.  1.
         25    2    1    2    0    0 -0.71677810454E+02  0.31257484226E+02  0.17250985488E+03  0.22698473116E+03  0.12509068437E+03 0.  0.
         23    2    1    2    0    0  0.71677810454E+02 -0.31257484226E+02  0.23853581084E+03  0.26208192058E+03  0.75318398858E+02 0.  0.
          5    1    3    3  502    0 -0.58205022262E+02  0.71545359741E+02  0.15588714794E+03  0.18117626337E+03  0.41800000000E+01 0.  1.
         -5    1    3    3    0  502 -0.13472788192E+02 -0.40287875515E+02  0.16622706950E+02  0.45808467793E+02  0.41800000000E+01 0.  1.
        -11    1    4    4    0    0 -0.42693459841E+01 -0.24884236997E+02  0.25766367344E+02  0.36074343406E+02  0.00000000000E+00 0.  1.
         11    1    4    4    0    0  0.75947156438E+02 -0.63732472290E+01  0.21276944350E+03  0.22600757717E+03  0.00000000000E+00 0. -1.
</event>
<event>
 8    1  0.6901948E-009  0.1137927E+03  0.7561462E-02  0.1253703E+00
          2   -1    0    0  501    0  0.00000000000E+00  0.00000000000E+00  0.40025077745E+03  0.40025077745E+03  0.00000000000E+00 0.  1.
         -2   -1    0    0    0  501 -0.00000000000E+00 -0.00000000000E+00 -0.61165042553E+02  0.61165042553E+02  0.00000000000E+00 0. -1.
         25    2    1    2    0    0 -0.56357142466E+02 -0.90231696279E+01  0.38820323021E+02  0.14286952062E+03  0.12508851804E+03 0.  0.
         23    2    1    2    0    0  0.56357142466E+02  0.90231696279E+01  0.30026541187E+03  0.31854629938E+03  0.89748995440E+02 0.  0.
          5    1    3    3  502    0  0.13900294063E+02  0.37060364441E+02  0.43058728772E+02  0.58636296873E+02  0.41800000000E+01 0. -1.
         -5    1    3    3    0  502 -0.70257436529E+02 -0.46083534069E+02 -0.42384057506E+01  0.84233223750E+02  0.41800000000E+01 0. -1.
        -11    1    4    4    0    0  0.24909538832E+02 -0.38986584680E+02  0.17030556435E+03  0.17647782908E+03  0.00000000000E+00 0. -1.
         11    1    4    4    0    0  0.31447603634E+02  0.48009754308E+02  0.12995984752E+03  0.14206847029E+03  0.00000000000E+00 0.  1.
</event>
<event>
 8    1  0.6901948E-009  0.1221142E+03  0.7561462E-02  0.1239649E+00
         -4   -1    0    0    0  501 -0.00000000000E+00  0.00000000000E+00  0.52809351143E+03  0.52809351143E+03  0.00000000000E+00 0.  1.
          4   -1    0    0  501    0  0.00000000000E+00 -0.00000000000E+00 -0.33376740910E+02  0.33376740910E+02  0.00000000000E+00 0. -1.
         25    2    1    2    0    0  0.41948504134E+02  0.48209752490E+02  0.35966388588E+03  0.38611880303E+03  0.12508302047E+03 0.  0.
         23    2    1    2    0    0 -0.41948504134E+02 -0.48209752490E+02  0.13505288464E+03  0.17535144932E+03  0.91787754591E+02 0.  0.
          5    1    3    3  502    0  0.52125433303E+02  0.84254998610E+02  0.21740607383E+03  0.23895363342E+03  0.41800000000E+01 0. -1.
         -5    1    3    3    0  502 -0.10176929169E+02 -0.36045246120E+02  0.14225781205E+03  0.14716516961E+03  0.41800000000E+01 0. -1.
        -11    1    4    4    0    0  0.15177082052E+02 -0.47904717526E+02  0.39061560592E+02  0.63647555309E+02  0.00000000000E+00 0.  1.
         11    1    4    4    0    0 -0.57125586186E+02 -0.30503496352E+00  0.95991324052E+02  0.11170389401E+03  0.00000000000E+00 0. -1.
</event>
<event>
 8    1  0.6901948E-009  0.1027356E+03  0.7561462E-02  0.1274646E+00
          2   -1    0    0  501    0  0.00000000000E+00  0.00000000000E+00  0.10300442819E+04  0.10300442819E+04  0.00000000000E+00 0. -1.
         -2   -1    0    0    0  501 -0.00000000000E+00 -0.00000000000E+00 -0.13610681413E+02  0.13610681413E+02  0.00000000000E+00 0.  1.
         25    2    1    2    0    0  0.41251973019E+02 -0.44663790480E+01  0.84906295646E+03  0.85923006212E+03  0.12508685702E+03 0.  0.
         23    2    1    2    0    0 -0.41251973019E+02  0.44663790480E+01  0.16737064398E+03  0.18442490115E+03  0.65405946800E+02 0.  0.
          5    1    3    3  502    0  0.19202432571E+02  0.60107998125E+02  0.38518063723E+03  0.39033741885E+03  0.41800000000E+01 0.  1.
         -5    1    3    3    0  502  0.22049540448E+02 -0.64574377173E+02  0.46388231923E+03  0.46889264327E+03  0.41800000000E+01 0.  1.
        -11    1    4    4    0    0 -0.15336119299E+02 -0.28242528293E+02  0.10132740938E+03  0.10630183842E+03  0.00000000000E+00 0. -1.
         11    1    4    4    0    0 -0.25915853720E+02  0.32708907341E+02  0.66043234601E+02  0.78123062728E+02  0.00000000000E+00 0.  1.
</event>
<event>
 8    1  0.6901948E-009  0.1168535E+03  0.7561462E-02  0.1248380E+00
          2   -1    0    0  501    0  0.00000000000E+00  0.00000000000E+00  0.11997551344E+04  0.11997551344E+04  0.00000000000E+00 0. -1.
         -2   -1    0    0    0  501 -0.00000000000E+00 -0.00000000000E+00 -0.16101267736E+02  0.16101267736E+02  0.00000000000E+00 0.  1.
         25    2    1    2    0    0 -0.32192117322E+02  0.56903082832E+02  0.89809309187E+03  0.90911728583E+03  0.12509494184E+03 0.  0.
         23    2    1    2    0    0  0.32192117322E+02 -0.56903082832E+02  0.28556077476E+03  0.30673911627E+03  0.90937539647E+02 0.  0.
          5    1    3    3  502    0  0.48063987206E+02  0.26697209788E+02  0.37226179197E+03  0.37632326800E+03  0.41800000000E+01 0.  1.
         -5    1    3    3    0  502 -0.80256104528E+02  0.30205873043E+02  0.52583129990E+03  0.53279401782E+03  0.41800000000E+01 0.  1.
        -11    1    4    4    0    0 -0.20309599795E+02 -0.11734693182E+02  0.15925939042E+02  0.28351691348E+02  0.00000000000E+00 0.  1.
         11    1    4    4    0    0  0.52501717118E+02 -0.45168389649E+02  0.26963483572E+03  0.27838742492E+03  0.00000000000E+00 0. -1.
</event>
<event>
 8    1  0.6901948E-009  0.4296203E+03  0.7561462E-02  0.1033980E+00
         -2   -1    0    0    0  501 -0.00000000000E+00  0.00000000000E+00  0.16573548721E+03  0.16573548721E+03  0.00000000000E+00 0.  1.
          2   -1    0    0  501    0  0.00000000000E+00 -0.00000000000E+00 -0.11778727507E+04  0.11778727507E+04  0.00000000000E+00 0. -1.
         25    2    1    2    0    0  0.19210356437E+02  0.42768385522E+03 -0.51056910949E+03  0.67794713155E+03  0.12509588240E+03 0.  0.
         23    2    1    2    0    0 -0.19210356437E+02 -0.42768385522E+03 -0.50156815404E+03  0.66566110641E+03  0.90838194751E+02 0.  0.
          5    1    3    3  502    0 -0.83017170365E+01  0.16572796973E+02  0.32894006791E+01  0.19283896444E+02  0.41800000000E+01 0. -1.
         -5    1    3    3    0  502  0.27512073473E+02  0.41111105825E+03 -0.51385851017E+03  0.65866323511E+03  0.41800000000E+01 0. -1.
        -11    1    4    4    0    0 -0.19253525814E+01 -0.12208571132E+03 -0.21007890766E+03  0.24298513398E+03  0.00000000000E+00 0.  1.
         11    1    4    4    0    0 -0.17285003855E+02 -0.30559814390E+03 -0.29148924638E+03  0.42267597243E+03  0.00000000000E+00 0. -1.
</event>
<event>
 8    1  0.6901948E-009  0.1022574E+03  0.7561462E-02  0.1275619E+00
         -2   -1    0    0    0  501 -0.00000000000E+00  0.00000000000E+00  0.56885034753E+02  0.56885034753E+02  0.00000000000E+00 0.  1.
          2   -1    0    0  501    0  0.00000000000E+00 -0.00000000000E+00 -0.37253164536E+03  0.37253164536E+03  0.00000000000E+00 0. -1.
         25    2    1    2    0    0 -0.41429500951E+02 -0.56403695087E+02 -0.27167505009E+03  0.30716375037E+03  0.12507780110E+03 0.  0.
         23    2    1    2    0    0  0.41429500951E+02  0.56403695087E+02 -0.43971560515E+02  0.12225292975E+03  0.90080521364E+02 0.  0.
          5    1    3    3  502    0 -0.18714945951E+02 -0.90946825518E+02 -0.23108025091E+03  0.24907253770E+03  0.41800000000E+01 0. -1.
         -5    1    3    3    0  502 -0.22714555000E+02  0.34543130432E+02 -0.40594799181E+02  0.58091212669E+02  0.41800000000E+01 0. -1.
        -11    1    4    4    0    0  0.25877281962E+02  0.33504043912E+02 -0.71577068730E+02  0.83159073156E+02  0.00000000000E+00 0. -1.
         11    1    4    4    0    0  0.15552218989E+02  0.22899651174E+02  0.27605508215E+02  0.39093856591E+02  0.00000000000E+00 0.  1.
</event>
<event>
 8    1  0.6901948E-009  0.1569092E+03  0.7561462E-02  0.1192231E+00
         -2   -1    0    0    0  501 -0.00000000000E+00  0.00000000000E+00  0.26596675840E+02  0.26596675840E+02  0.00000000000E+00 0.  1.
          2   -1    0    0  501    0  0.00000000000E+00 -0.00000000000E+00 -0.11253907389E+04  0.11253907389E+04  0.00000000000E+00 0. -1.
         25    2    1    2    0    0 -0.11617606157E+03  0.51675191985E+02 -0.44044065455E+03  0.47518253833E+03  0.12507306585E+03 0.  0.
         23    2    1    2    0    0  0.11617606157E+03 -0.51675191985E+02 -0.65835340854E+03  0.67680487645E+03  0.92024059312E+02 0.  0.
          5    1    3    3  502    0 -0.10247953031E+03 -0.69693405340E+00 -0.16378853940E+03  0.19325293759E+03  0.41800000000E+01 0. -1.
         -5    1    3    3    0  502 -0.13696531265E+02  0.52372126039E+02 -0.27665211515E+03  0.28192960074E+03  0.41800000000E+01 0. -1.
        -11    1    4    4    0    0  0.13219020993E+03 -0.45854156692E+02 -0.58620331209E+03  0.60267004106E+03  0.00000000000E+00 0.  1.
         11    1    4    4    0    0 -0.16014148357E+02 -0.58210352929E+01 -0.72150096456E+02  0.74134835389E+02  0.00000000000E+00 0. -1.
</event>
<event>
 8    1  0.6901948E-009  0.1108693E+03  0.7561462E-02  0.1258969E+00
         -1   -1    0    0    0  501 -0.00000000000E+00  0.00000000000E+00  0.12158011839E+02  0.12158011839E+02  0.00000000000E+00 0.  1.
          1   -1    0    0  501    0  0.00000000000E+00 -0.00000000000E+00 -0.11797237413E+04  0.11797237413E+04  0.00000000000E+00 0. -1.
         25    2    1    2    0    0  0.45097646597E+02  0.87605062322E+01 -0.61803503651E+03  0.63223877862E+03  0.12509205665E+03 0.  0.
         23    2    1    2    0    0 -0.45097646597E+02 -0.87605062322E+01 -0.54953069297E+03  0.55964297454E+03  0.95423960501E+02 0.  0.
          5    1    3    3  502    0  0.41037621942E+02 -0.45672328294E+02 -0.16858475572E+03  0.17946682213E+03  0.41800000000E+01 0.  1.
         -5    1    3    3    0  502  0.40600246545E+01  0.54432834526E+02 -0.44945028080E+03  0.45277195649E+03  0.41800000000E+01 0.  1.
        -11    1    4    4    0    0 -0.12271497330E+02  0.42691501938E+02 -0.25744469492E+03  0.26124877977E+03  0.00000000000E+00 0.  1.
         11    1    4    4    0    0 -0.32826149267E+02 -0.51452008170E+02 -0.29208599804E+03  0.29839419477E+03  0.00000000000E+00 0. -1.
</event>
<event>
 8    1  0.6901948E-009  0.1638140E+03  0.7561462E-02  0.1184457E+00
          2   -1    0    0  501    0  0.00000000000E+00  0.00000000000E+00  0.39480568714E+03  0.39480568714E+03  0.00000000000E+00 0. -1.
         -2   -1    0    0    0  501 -0.00000000000E+00 -0.00000000000E+00 -0.74720712985E+02  0.74720712985E+02  0.00000000000E+00 0.  1.
         25    2    1    2    0    0 -0.72946622833E+02 -0.10042809862E+03  0.23269317229E+03  0.29189070453E+03  0.12508820163E+03 0.  0.
         23    2    1    2    0    0  0.72946622833E+02  0.10042809862E+03  0.87391801865E+02  0.17763569559E+03  0.92250206177E+02 0.  0.
          5    1    3    3  502    0 -0.53310423429E+02  0.17296142704E+02  0.63550754915E+02  0.84837071195E+02  0.41800000000E+01 0. -1.
         -5    1    3    3    0  502 -0.19636199404E+02 -0.11772424133E+03  0.16914241738E+03  0.20705363334E+03  0.41800000000E+01 0. -1.
        -11    1    4    4    0    0 -0.20506783993E+02  0.21050774600E+02  0.30866747723E+02  0.42619472263E+02  0.00000000000E+00 0.  1.
         11    1    4    4    0    0  0.93453406826E+02  0.79377324022E+02  0.56525054141E+02  0.13501622333E+03  0.00000000000E+00 0. -1.
</event>
<event>
 8    1  0.6901948E-009  0.2484669E+03  0.7561462E-02  0.1114278E+00
         -4   -1    0    0    0  501 -0.00000000000E+00  0.00000000000E+00  0.14502549773E+03  0.14502549773E+03  0.00000000000E+00 0.  1.
          4   -1    0    0  501    0  0.00000000000E+00 -0.00000000000E+00 -0.50057841352E+03  0.50057841352E+03  0.00000000000E+00 0. -1.
         25    2    1    2    0    0  0.14059805363E+03 -0.20015156981E+03 -0.14641902628E+03  0.31130700441E+03  0.12508019890E+03 0.  0.
         23    2    1    2    0    0 -0.14059805363E+03  0.20015156981E+03 -0.20913388952E+03  0.33429690684E+03  0.90492953318E+02 0.  0.
          5    1    3    3  502    0  0.14124289642E+02 -0.30790574308E+02  0.22342774971E+02  0.40794938626E+02  0.41800000000E+01 0.  1.
         -5    1    3    3    0  502  0.12647376399E+03 -0.16936099550E+03 -0.16876180125E+03  0.27051206578E+03  0.41800000000E+01 0.  1.
        -11    1    4    4    0    0 -0.13058913963E+03  0.14418704816E+03 -0.19557565738E+03  0.27585007886E+03  0.00000000000E+00 0. -1.
         11    1    4    4    0    0 -0.10008914001E+02  0.55964521649E+02 -0.13558232132E+02  0.58446827984E+02  0.00000000000E+00 0.  1.
</event>
<event>
 8    1  0.6901948E-009  0.1345270E+03  0.7561462E-02  0.1220889E+00
         -2   -1    0    0    0  501 -0.00000000000E+00  0.00000000000E+00  0.12394842749E+04  0.12394842749E+04  0.00000000000E+00 0.  1.
          2   -1    0    0  501    0  0.00000000000E+00 -0.00000000000E+00 -0.59487163836E+02  0.59487163836E+02  0.00000000000E+00 0. -1.
         25    2    1    2    0    0 -0.19785535326E+02 -0.12558156519E+03  0.11141501483E+04  0.11283350866E+04  0.12508923932E+03 0.  0.
         23    2    1    2    0    0  0.19785535326E+02  0.12558156519E+03  0.65846962735E+02  0.17063635210E+03  0.92837197461E+02 0.  0.
          5    1    3    3  502    0 -0.34034853646E+02 -0.93517492709E+02  0.36484906823E+03  0.37820127934E+03  0.41800000000E+01 0. -1.
         -5    1    3    3    0  502  0.14249318321E+02 -0.32064072480E+02  0.74930108007E+03  0.75013380727E+03  0.41800000000E+01 0. -1.
        -11    1    4    4    0    0  0.40692142042E+01  0.11521037685E+03  0.85417046398E+02  0.14347843481E+03  0.00000000000E+00 0.  1.
         11    1    4    4    0    0  0.15716321121E+02  0.10371188336E+02 -0.19570083663E+02  0.27157917292E+02  0.00000000000E+00 0. -1.
</event>
<event>
 8    1  0.6901948E-009  0.1924775E+03  0.7561462E-02  0.1156246E+00
          2   -1    0    0  501    0  0.00000000000E+00  0.00000000000E+00  0.45844145052E+03  0.45844145052E+03  0.00000000000E+00 0. -1.
         -2   -1    0    0    0  501 -0.00000000000E+00 -0.00000000000E+00 -0.14004602573E+03  0.14004602573E+03  0.00000000000E+00 0.  1.
         25    2    1    2    0    0  0.10785822069E+03  0.14972942000E+03  0.32305555323E+03  0.39251131931E+03  0.12509176762E+03 0.  0.
         23    2    1    2    0    0 -0.10785822069E+03 -0.14972942000E+03 -0.46601284443E+01  0.20597615694E+03  0.91390182461E+02 0.  0.
          5    1    3    3  502    0  0.52636394053E+02  0.57984900455E+02  0.25202504420E+03  0.26394494494E+03  0.41800000000E+01 0.  1.
         -5    1    3    3    0  502  0.55221826634E+02  0.91744519541E+02  0.71030509037E+02  0.12856637436E+03  0.41800000000E+01 0.  1.
        -11    1    4    4    0    0  0.11839824129E+02 -0.15800380572E+02 -0.16825824370E+02  0.25941122323E+02  0.00000000000E+00 0.  1.
         11    1    4    4    0    0 -0.11969804482E+03 -0.13392903942E+03  0.12165695926E+02  0.18003503462E+03  0.00000000000E+00 0. -1.
</event>
<event>
 8    1  0.6901948E-009  0.9079148E+02  0.7561462E-02  0.1300946E+00
          2   -1    0    0  501    0  0.00000000000E+00  0.00000000000E+00  0.46593021633E+03  0.46593021633E+03  0.00000000000E+00 0.  1.
         -2   -1    0    0    0  501 -0.00000000000E+00 -0.00000000000E+00 -0.28830527143E+02  0.28830527143E+02  0.00000000000E+00 0. -1.
         25    2    1    2    0    0 -0.17055753870E+02  0.36995640269E+02  0.27247392934E+03  0.30257120254E+03  0.12509082418E+03 0.  0.
         23    2    1    2    0    0  0.17055753870E+02 -0.36995640269E+02  0.16462575984E+03  0.19218954093E+03  0.90419039486E+02 0.  0.
          5    1    3    3  502    0 -0.54840348791E+02  0.63923084653E+02  0.18945290128E+03  0.20737284974E+03  0.41800000000E+01 0.  1.
         -5    1    3    3    0  502  0.37784594920E+02 -0.26927444385E+02  0.83021028064E+02  0.95198352796E+02  0.41800000000E+01 0.  1.
        -11    1    4    4    0    0 -0.67704571734E+01 -0.20764454513E+02 -0.30509906433E+01  0.22052442165E+02  0.00000000000E+00 0. -1.
         11    1    4    4    0    0  0.23826211044E+02 -0.16231185756E+02  0.16767675049E+03  0.17013709877E+03  0.00000000000E+00 0.  1.
</event>
<event>
 8    1  0.6901948E-009  0.1347376E+03  0.7561462E-02  0.1220591E+00
          1   -1    0    0  501    0  0.00000000000E+00  0.00000000000E+00  0.29710525635E+03  0.29710525635E+03  0.00000000000E+00 0. -1.
         -1   -1    0    0    0  501 -0.00000000000E+00 -0.00000000000E+00 -0.98886044966E+02  0.98886044966E+02  0.00000000000E+00 0.  1.
         25    2    1    2    0    0  0.11330871538E+03  0.56612443313E+02  0.62576203838E+02  0.18869936897E+03  0.12509131401E+03 0.  0.
         23    2    1    2    0    0 -0.11330871538E+03 -0.56612443313E+02  0.13564300754E+03  0.20729193235E+03  0.92342222205E+02 0.  0.
          5    1    3    3  502    0  0.10822175009E+02  0.13184798363E+02 -0.35937223391E+02  0.39998935046E+02  0.41800000000E+01 0.  1.
         -5    1    3    3    0  502  0.10248654037E+03  0.43427644951E+02  0.98513427228E+02  0.14870043392E+03  0.41800000000E+01 0.  1.
        -11    1    4    4    0    0 -0.41870649686E+00 -0.22628477768E+02 -0.55970526995E+01  0.23314165654E+02  0.00000000000E+00 0.  1.
         11    1    4    4    0    0 -0.11289000889E+03 -0.33983965546E+02  0.14124006024E+03  0.18397776670E+03  0.00000000000E+00 0. -1.
</event>
<event>
 8    1  0.6901948E-009  0.8702098E+02  0.7561462E-02  0.1310230E+00
          2   -1    0    0  501    0  0.00000000000E+00  0.00000000000E+00  0.22794084140E+03  0.22794084140E+03  0.00000000000E+00 0. -1.
         -2   -1    0    0    0  501 -0.00000000000E+00 -0.00000000000E+00 -0.92146153398E+02  0.92146153398E+02  0.00000000000E+00 0.  1.
         25    2    1    2    0    0 -0.73821947174E+02  0.14670816689E+02  0.75505687992E+01  0.14615318877E+03  0.12505531077E+03 0.  0.
         23    2    1    2    0    0  0.73821947174E+02 -0.14670816689E+02  0.12824411920E+03  0.17393380603E+03  0.90230272201E+02 0.  0.
          5    1    3    3  502    0 -0.19962785391E+02 -0.33588242712E+01  0.63220217813E+02  0.66513628990E+02  0.41800000000E+01 0.  1.
         -5    1    3    3    0  502 -0.53859161783E+02  0.18029640961E+02 -0.55669649014E+02  0.79639559784E+02  0.41800000000E+01 0.  1.
        -11    1    4    4    0    0  0.36464244031E+02  0.23205032696E+02  0.10917617348E+03  0.11742040492E+03  0.00000000000E+00 0. -1.
         11    1    4    4    0    0  0.37357703143E+02 -0.37875849386E+02  0.19067945724E+02  0.56513401109E+02  0.00000000000E+00 0.  1.
</event>
<event>
 8    1  0.6901948E-009  0.1010087E+03  0.7561462E-02  0.1278189E+00
          1   -1    0    0  501    0  0.00000000000E+00  0.00000000000E+00  0.14776187689E+03  0.14776187689E+03  0.00000000000E+00 0. -1.
         -1   -1    0    0    0  501 -0.00000000000E+00 -0.00000000000E+00 -0.11176624054E+03  0.11176624054E+03  0.00000000000E+00 0.  1.
         25    2    1    2    0    0  0.43421492325E+02 -0.61897962855E+00 -0.17293353685E+02  0.13354333095E+03  0.12509577142E+03 0.  0.
         23    2    1    2    0    0 -0.43421492325E+02  0.61897962855E+00  0.53288990032E+02  0.12598478648E+03  0.10557765311E+03 0.  0.
          5    1    3    3  502    0  0.94690889606E+01 -0.37061499553E+02 -0.57642823824E+02  0.69306463864E+02  0.41800000000E+01 0. -1.
         -5    1    3    3    0  502  0.33952403364E+02  0.36442519925E+02  0.40349470139E+02  0.64236867087E+02  0.41800000000E+01 0. -1.
        -11    1    4    4    0    0 -0.43430228838E+02  0.48826705053E+02  0.37026850751E+02  0.75108052697E+02  0.00000000000E+00 0.  1.
         11    1    4    4    0    0  0.87365138538E-02 -0.48207725425E+02  0.16262139281E+02  0.50876733788E+02  0.00000000000E+00 0. -1.
</event>
<event>
 8    1  0.6901948E-009  0.9334342E+02  0.7561462E-02  0.1294951E+00
          1   -1    0    0  501    0  0.00000000000E+00  0.00000000000E+00  0.38573749045E+03  0.38573749045E+03  0.00000000000E+00 0. -1.
         -1   -1    0    0    0  501 -0.00000000000E+00 -0.00000000000E+00 -0.38170616787E+02  0.38170616787E+02  0.00000000000E+00 0.  1.
         25    2    1    2    0    0  0.44746176738E+01  0.51284847876E+02  0.15907803755E+03  0.20881617675E+03  0.12509282880E+03 0.  0.
         23    2    1    2    0    0 -0.44746176738E+01 -0.51284847876E+02  0.18848883611E+03  0.21509193049E+03  0.89924075733E+02 0.  0.
          5    1    3    3  502    0  0.47818663670E+02 -0.17082409635E+02  0.40036763281E+02  0.64798519491E+02  0.41800000000E+01 0.  1.
         -5    1    3    3    0  502 -0.43344045997E+02  0.68367257511E+02  0.11904127427E+03  0.14401765726E+03  0.41800000000E+01 0.  1.
        -11    1    4    4    0    0  0.53313402848E+01 -0.36821914480E+02  0.19339586241E+03  0.19694221531E+03  0.00000000000E+00 0. -1.
         11    1    4    4    0    0 -0.98059579585E+01 -0.14462933397E+02 -0.49070262948E+01  0.18149715176E+02  0.00000000000E+00 0.  1.
</event>
<event>
 8    1  0.6901948E-009  0.9147056E+02  0.7561462E-02  0.1299329E+00
          2   -1    0    0  501    0  0.00000000000E+00  0.00000000000E+00  0.50525329871E+03  0.50525329871E+03  0.00000000000E+00 0. -1.
         -2   -1    0    0    0  501 -0.00000000000E+00 -0.00000000000E+00 -0.21873944887E+02  0.21873944887E+02  0.00000000000E+00 0.  1.
         25    2    1    2    0    0  0.82812539429E+01 -0.20186260723E+02  0.32709043395E+03  0.35087361985E+03  0.12509228928E+03 0.  0.
         23    2    1    2    0    0 -0.82812539429E+01  0.20186260723E+02  0.15628891987E+03  0.17625362374E+03  0.78505089772E+02 0.  0.
          5    1    3    3  502    0 -0.85987534873E+01 -0.71154509776E+02  0.16130370232E+03  0.17655950726E+03  0.41800000000E+01 0.  1.
         -5    1    3    3    0  502  0.16880007430E+02  0.50968249053E+02  0.16578673164E+03  0.17431411259E+03  0.41800000000E+01 0.  1.
        -11    1    4    4    0    0 -0.30398444871E+02  0.59050104670E+01  0.18713744169E+02  0.36182023437E+02  0.00000000000E+00 0.  1.
         11    1    4    4    0    0  0.22117190928E+02  0.14281250256E+02  0.13757517570E+03  0.14007160031E+03  0.00000000000E+00 0. -1.
</event>
<event>
 8    1  0.6901948E-009  0.1213909E+03  0.7561462E-02  0.1240820E+00
         -2   -1    0    0    0  501 -0.00000000000E+00  0.00000000000E+00  0.67525311890E+02  0.67525311890E+02  0.00000000000E+00 0.  1.
          2   -1    0    0  501    0  0.00000000000E+00 -0.00000000000E+00 -0.37444324695E+03  0.37444324695E+03  0.00000000000E+00 0. -1.
         25    2    1    2    0    0  0.37188544208E+02  0.10746769917E+03 -0.13211730259E+03  0.21455786547E+03  0.12509117398E+03 0.  0.
         23    2    1    2    0    0 -0.37188544208E+02 -0.10746769917E+03 -0.17480063247E+03  0.22741069337E+03  0.90708699484E+02 0.  0.
          5    1    3    3  502    0  0.29423318851E+02  0.26234722684E+02 -0.12660025189E+03  0.13266155639E+03  0.41800000000E+01 0. -1.
         -5    1    3    3    0  502  0.77652253569E+01  0.81232976483E+02 -0.55170507084E+01  0.81896309084E+02  0.41800000000E+01 0. -1.
        -11    1    4    4    0    0  0.79568608609E+01 -0.36216526447E+02 -0.12290185416E+03  0.12837372854E+03  0.00000000000E+00 0. -1.
         11    1    4    4    0    0 -0.45145405069E+02 -0.71251172719E+02 -0.51898778307E+02  0.99036964829E+02  0.00000000000E+00 0.  1.
</event>
<event>
 8    1  0.6901948E-009  0.1565903E+03  0.7561462E-02  0.1192601E+00
         -3   -1    0    0    0  501 -0.00000000000E+00  0.00000000000E+00  0.20091832944E+03  0.20091832944E+03  0.00000000000E+00 0.  1.
          3   -1    0    0  501    0  0.00000000000E+00 -0.00000000000E+00 -0.15269170174E+03  0.15269170174E+03  0.00000000000E+00 0. -1.
         25    2    1    2    0    0  0.12899021424E+03  0.23842142426E+02  0.64700473660E+02  0.19246029163E+03  0.12509152424E+03 0.  0.
         23    2    1    2    0    0 -0.12899021424E+03 -0.23842142426E+02 -0.16473845952E+02  0.16114973955E+03  0.92146230698E+02 0.  0.
          5    1    3    3  502    0  0.15332790815E+03  0.12859733737E+02  0.50943250087E+02  0.16213422618E+03  0.41800000000E+01 0.  1.
         -5    1    3    3    0  502 -0.24337693909E+02  0.10982408688E+02  0.13757223573E+02  0.30326065452E+02  0.41800000000E+01 0.  1.
        -11    1    4    4    0    0 -0.32182489245E+02 -0.13405268009E+02  0.36357565183E+02  0.50371483703E+02  0.00000000000E+00 0.  1.
         11    1    4    4    0    0 -0.96807724995E+02 -0.10436874417E+02 -0.52831411135E+02  0.11077825585E+03  0.00000000000E+00 0. -1.
</event>
<event>
 8    1  0.6901948E-009  0.7419283E+02  0.7561462E-02  0.1346389E+00
          3   -1    0    0  501    0  0.00000000000E+00  0.00000000000E+00  0.25267839559E+02  0.25267839559E+02  0.00000000000E+00 0. -1.
         -3   -1    0    0    0  501 -0.00000000000E+00 -0.00000000000E+00 -0.66751782440E+03  0.66751782440E+03  0.00000000000E+00 0.  1.
         25    2    1    2    0    0  0.11580134705E+02 -0.49806322291E+02 -0.48292268629E+03  0.50147331852E+03  0.12508556667E+03 0.  0.
         23    2    1    2    0    0 -0.11580134705E+02  0.49806322291E+02 -0.15932729854E+03  0.19131234544E+03  0.92738644565E+02 0.  0.
          5    1    3    3  502    0 -0.59706736467E+00 -0.31807343663E+02 -0.47764703859E+03  0.47872354180E+03  0.41800000000E+01 0. -1.
         -5    1    3    3    0  502  0.12177202070E+02 -0.17998978628E+02 -0.52756477000E+01  0.22749776714E+02  0.41800000000E+01 0. -1.
        -11    1    4    4    0    0 -0.38302014885E+02  0.75217208000E+00 -0.11108029072E+03  0.11750081316E+03  0.00000000000E+00 0.  1.
         11    1    4    4    0    0  0.26721880180E+02  0.49054150211E+02 -0.48247007827E+02  0.73811532280E+02  0.00000000000E+00 0. -1.
</event>
<event>
 8    1  0.6901948E-009  0.1714957E+03  0.7561462E-02  0.1176297E+00
         -4   -1    0    0    0  501 -0.00000000000E+00  0.00000000000E+00  0.50734549207E+03  0.50734549207E+03  0.00000000000E+00 0.  1.
          4   -1    0    0  501    0  0.00000000000E+00 -0.00000000000E+00 -0.72168175511E+02  0.72168175511E+02  0.00000000000E+00 0. -1.
         25    2    1    2    0    0 -0.15782605517E+03 -0.64600325150E+01  0.22408777100E+03  0.30135459340E+03  0.12509382933E+03 0.  0.
         23    2    1    2    0    0  0.15782605517E+03  0.64600325150E+01  0.21108954555E+03  0.27815907418E+03  0.88672874069E+02 0.  0.
          5    1    3    3  502    0 -0.92400638269E+02  0.13659810130E+02  0.21202484923E+03  0.23172500395E+03  0.41800000000E+01 0.  1.
         -5    1    3    3    0  502 -0.65425416905E+02 -0.20119842646E+02  0.12062921777E+02  0.69629589450E+02  0.41800000000E+01 0.  1.
        -11    1    4    4    0    0  0.22625357547E+02  0.36006215090E+02  0.55692985945E+02  0.70071841797E+02  0.00000000000E+00 0.  1.
         11    1    4    4    0    0  0.13520069763E+03 -0.29546182575E+02  0.15539655961E+03  0.20808723238E+03  0.00000000000E+00 0. -1.
</event>
<event>
 7    1  0.6901948E-009  0.1175703E+03  0.7561462E-02  0.1247160E+00
          1   -1    0    0  501    0  0.00000000000E+00  0.00000000000E+00  0.82426416860E+02  0.82426416860E+02  0.00000000000E+00 0. -1.
         -1   -1    0    0    0  501 -0.00000000000E+00 -0.00000000000E+00 -0.18114879263E+03  0.18114879263E+03  0.00000000000E+00 0.  1.
         23    2    1    2    0    0  0.55584456823E+02  0.75995945717E+01 -0.36341152661E+02  0.11287656520E+03  0.90956329719E+02 0.  0.
          5    1    1    2  502    0 -0.82548202934E+02 -0.38144508589E+02 -0.61262626777E+02  0.10972598226E+03  0.41800000000E+01 0.  1.
         -5    1    1    2    0  502  0.26963746111E+02  0.30544914017E+02 -0.11185963364E+01  0.40972662038E+02  0.41800000000E+01 0.  1.
        -11    1    3    3    0    0  0.64267810345E+02 -0.25342983330E+02 -0.99810944229E+01  0.69801436207E+02  0.00000000000E+00 0. -1.
         11    1    3    3    0    0 -0.86833535225E+01  0.32942577902E+02 -0.26360058238E+02  0.43075128990E+02  0.00000000000E+00 0.  1.
</event>
<event>
 8    1  0.6901948E-009  0.8896604E+02  0.7561462E-02  0.1305375E+00
          1   -1    0    0  501    0  0.00000000000E+00  0.00000000000E+00  0.25639641834E+03  0.25639641834E+03  0.00000000000E+00 0. -1.
         -1   -1    0    0    0  501 -0.00000000000E+00 -0.00000000000E+00 -0.48823681531E+02  0.48823681531E+02  0.00000000000E+00 0.  1.
         25    2    1    2    0    0 -0.36381343757E+02 -0.22876455042E+02  0.17377568011E+03  0.21838440581E+03  0.12508727886E+03 0.  0.
         23    2    1    2    0    0  0.36381343757E+02  0.22876455042E+02  0.33797056694E+02  0.86835694063E+02  0.67463044353E+02 0.  0.
          5    1    3    3  502    0 -0.55509158451E+02  0.19136055048E+02  0.15929710736E+03  0.16982489831E+03  0.41800000000E+01 0. -1.
         -5    1    3    3    0  502  0.19127814694E+02 -0.42012510089E+02  0.14478572757E+02  0.48559507494E+02  0.41800000000E+01 0. -1.
        -11    1    4    4    0    0 -0.81007002708E+00  0.33913429606E+02  0.34016412343E+02  0.48040537359E+02  0.00000000000E+00 0. -1.
         11    1    4    4    0    0  0.37191413784E+02 -0.11036974564E+02 -0.21935564857E+00  0.38795156704E+02  0.00000000000E+00 0.  1.
</event>
<event>
 8    1  0.6901948E-009  0.9797302E+02  0.7561462E-02  0.1284617E+00
         -1   -1    0    0    0  501 -0.00000000000E+00  0.00000000000E+00  0.46539897699E+02  0.46539897699E+02  0.00000000000E+00 0.  1.
          1   -1    0    0  501    0  0.00000000000E+00 -0.00000000000E+00 -0.39010770174E+03  0.39010770174E+03  0.00000000000E+00 0. -1.
         25    2    1    2    0    0 -0.17103057698E+02 -0.44006162970E+02 -0.82070569578E+02  0.15688059925E+03  0.12508751763E+03 0.  0.
         23    2    1    2    0    0  0.17103057698E+02  0.44006162970E+02 -0.26149723446E+03  0.27976700019E+03  0.87519790915E+02 0.  0.
          5    1    3    3  502    0 -0.14277754498E+02 -0.79897708787E+02 -0.88406960691E+02  0.12008647402E+03  0.41800000000E+01 0. -1.
         -5    1    3    3    0  502 -0.28253031999E+01  0.35891545816E+02  0.63363911127E+01  0.36794125232E+02  0.41800000000E+01 0. -1.
        -11    1    4    4    0    0  0.99093941386E+01 -0.15551395497E+02 -0.95310577504E+01  0.20757722802E+02  0.00000000000E+00 0.  1.
         11    1    4    4    0    0  0.71936635593E+01  0.59557558467E+02 -0.25196617671E+03  0.25900927738E+03  0.00000000000E+00 0. -1.
</event>
<event>
 8    1  0.6901948E-009  0.1121574E+03  0.7561462E-02  0.1256626E+00
         -2   -1    0    0    0  501 -0.00000000000E+00  0.00000000000E+00  0.14792564993E+03  0.14792564993E+03  0.00000000000E+00 0.  1.
          2   -1    0    0  501    0  0.00000000000E+00 -0.00000000000E+00 -0.15624518993E+03  0.15624518993E+03  0.00000000000E+00 0. -1.
         25    2    1    2    0    0 -0.51471412269E+02  0.51185031353E+01 -0.95498805607E+02  0.16565641269E+03  0.12508604974E+03 0.  0.
         23    2    1    2    0    0  0.51471412269E+02 -0.51185031353E+01  0.87179265612E+02  0.13851442717E+03  0.94395533930E+02 0.  0.
          5    1    3    3  502    0  0.13314171784E+02  0.51667218611E+02 -0.52346057435E+02  0.74862211951E+02  0.41800000000E+01 0. -1.
         -5    1    3    3    0  502 -0.64785584053E+02 -0.46548715475E+02 -0.43152748172E+02  0.90794200742E+02  0.41800000000E+01 0. -1.
        -11    1    4    4    0    0  0.39267487323E+02 -0.38729962388E+02  0.86695882847E+02  0.10275272089E+03  0.00000000000E+00 0.  1.
         11    1    4    4    0    0  0.12203924947E+02  0.33611459253E+02  0.48338276474E+00  0.35761706281E+02  0.00000000000E+00 0. -1.
</event>
<event>
 8    1  0.6901948E-009  0.1033602E+03  0.7561462E-02  0.1273385E+00
         -2   -1    0    0    0  501 -0.00000000000E+00  0.00000000000E+00  0.17368524715E+03  0.17368524715E+03  0.00000000000E+00 0.  1.
          2   -1    0    0  501    0  0.00000000000E+00 -0.00000000000E+00 -0.88781573406E+02  0.88781573406E+02  0.00000000000E+00 0. -1.
         25    2    1    2    0    0  0.23789886597E+02  0.77857083443E+01  0.11185124333E+03  0.16966219416E+03  0.12509190035E+03 0.  0.
         23    2    1    2    0    0 -0.23789886597E+02 -0.77857083443E+01 -0.26947569585E+02  0.92804626397E+02  0.85205347341E+02 0.  0.
          5    1    3    3  502    0  0.24500948690E+02  0.65297252841E+02  0.63289964055E+02  0.94271520967E+02  0.41800000000E+01 0.  1.
         -5    1    3    3    0  502 -0.71106209302E+00 -0.57511544496E+02  0.48561279272E+02  0.75390673191E+02  0.41800000000E+01 0.  1.
        -11    1    4    4    0    0 -0.42179752703E+02 -0.28941141269E+02  0.36800129140E+01  0.51286096470E+02  0.00000000000E+00 0.  1.
         11    1    4    4    0    0  0.18389866106E+02  0.21155432924E+02 -0.30627582499E+02  0.41518529928E+02  0.00000000000E+00 0. -1.
</event>
<event>
 8    1  0.6901948E-009  0.9189240E+02  0.7561462E-02  0.1298333E+00
         -1   -1    0    0    0  501 -0.00000000000E+00  0.00000000000E+00  0.80254681499E+02  0.80254681499E+02  0.00000000000E+00 0. -1.
          1   -1    0    0  501    0  0.00000000000E+00 -0.00000000000E+00 -0.31580607750E+03  0.31580607750E+03  0.00000000000E+00 0.  1.
         25    2    1    2    0    0 -0.42653210610E+02  0.54556790675E+02 -0.24274284089E+03  0.28172205193E+03  0.12508991948E+03 0.  0.
         23    2    1    2    0    0  0.42653210610E+02 -0.54556790675E+02  0.71914448943E+01  0.11433870707E+03  0.90696655228E+02 0.  0.
          5    1    3    3  502    0  0.15920210952E+02 -0.13529835441E+02  0.15948908314E+01  0.21366460647E+02  0.41800000000E+01 0. -1.
         -5    1    3    3    0  502 -0.58573421562E+02  0.68086626116E+02 -0.24433773172E+03  0.26035559129E+03  0.41800000000E+01 0. -1.
        -11    1    4    4    0    0  0.92827299236E+01 -0.29243077615E+02 -0.40536346175E+02  0.50838194543E+02  0.00000000000E+00 0.  1.
         11    1    4    4    0    0  0.33370480686E+02 -0.25313713061E+02  0.47727791069E+02  0.63500512522E+02  0.00000000000E+00 0. -1.
</event>
<event>
 8    1  0.6901948E-009  0.9981154E+02  0.7561462E-02  0.1280693E+00
         -1   -1    0    0    0  501 -0.00000000000E+00  0.00000000000E+00  0.29608452017E+03  0.29608452017E+03  0.00000000000E+00 0.  1.
          1   -1    0    0  501    0  0.00000000000E+00 -0.00000000000E+00 -0.46621934802E+02  0.46621934802E+02  0.00000000000E+00 0. -1.
         25    2    1    2    0    0 -0.42319715418E+02  0.16364833757E+02  0.12851483390E+03  0.18499310508E+03  0.12509044846E+03 0.  0.
         23    2    1    2    0    0  0.42319715418E+02 -0.16364833757E+02  0.12094775146E+03  0.15771334989E+03  0.90478594449E+02 0.  0.
          5    1    3    3  502    0  0.18940522744E+02  0.39162751035E+02  0.10776039596E+03  0.11628516590E+03  0.41800000000E+01 0.  1.
         -5    1    3    3    0  502 -0.61260238162E+02 -0.22797917277E+02  0.20754437941E+02  0.68707939178E+02  0.41800000000E+01 0.  1.
        -11    1    4    4    0    0  0.62875872885E+02 -0.25598528720E+02  0.11636096356E+03  0.13471649455E+03  0.00000000000E+00 0.  1.
         11    1    4    4    0    0 -0.20556157467E+02  0.92336949625E+01  0.45867879075E+01  0.22996855345E+02  0.00000000000E+00 0. -1.
</event>
<event>
 8    1  0.6901948E-009  0.1049666E+03  0.7561462E-02  0.1270185E+00
         -1   -1    0    0    0  501 -0.00000000000E+00  0.00000000000E+00  0.66035305879E+02  0.66035305879E+02  0.00000000000E+00 0.  1.
          1   -1    0    0  501    0  0.00000000000E+00 -0.00000000000E+00 -0.20510023926E+03  0.20510023926E+03  0.00000000000E+00 0. -1.
         25    2    1    2    0    0  0.40528964580E+02  0.11684976164E+01 -0.57545000244E+02  0.14352292989E+03  0.12507374623E+03 0.  0.
         23    2    1    2    0    0 -0.40528964580E+02 -0.11684976164E+01 -0.81519933135E+02  0.12761261524E+03  0.89417658851E+02 0.  0.
          5    1    3    3  502    0  0.85086073093E+02 -0.39194239437E+00 -0.27187151779E+02  0.89422631784E+02  0.41800000000E+01 0. -1.
         -5    1    3    3    0  502 -0.44557108513E+02  0.15604400107E+01 -0.30357848465E+02  0.54100298109E+02  0.41800000000E+01 0. -1.
        -11    1    4    4    0    0 -0.47232983195E+02 -0.26225540081E+02 -0.14781699366E+02  0.56011001510E+02  0.00000000000E+00 0. -1.
         11    1    4    4    0    0  0.67040186148E+01  0.25057042465E+02 -0.66738233769E+02  0.71601613733E+02  0.00000000000E+00 0.  1.
</event>
<event>
 8    1  0.6901948E-009  0.1457541E+03  0.7561462E-02  0.1205790E+00
          2   -1    0    0  501    0  0.00000000000E+00  0.00000000000E+00  0.19704715883E+03  0.19704715883E+03  0.00000000000E+00 0.  1.
         -2   -1    0    0    0  501 -0.00000000000E+00 -0.00000000000E+00 -0.12994491391E+03  0.12994491391E+03  0.00000000000E+00 0. -1.
         25    2    1    2    0    0  0.92489939514E+02  0.36120011746E+02 -0.27544574854E+02  0.16206590311E+03  0.12509040405E+03 0.  0.
         23    2    1    2    0    0 -0.92489939514E+02 -0.36120011746E+02  0.94646819776E+02  0.16492616964E+03  0.91561874036E+02 0.  0.
          5    1    3    3  502    0  0.12125526398E+03  0.13815109950E+02 -0.28583489422E+02  0.12541205912E+03  0.41800000000E+01 0. -1.
         -5    1    3    3    0  502 -0.28765324461E+02  0.22304901797E+02  0.10389145685E+01  0.36653843987E+02  0.41800000000E+01 0. -1.
        -11    1    4    4    0    0  0.16338628815E+02 -0.14408958143E+02  0.28006183328E+02  0.35481194610E+02  0.00000000000E+00 0. -1.
         11    1    4    4    0    0 -0.10882856833E+03 -0.21711053603E+02  0.66640636448E+02  0.12944497503E+03  0.00000000000E+00 0.  1.
</event>
<event>
 8    1  0.6901948E-009  0.1022795E+03  0.7561462E-02  0.1275574E+00
         -1   -1    0    0    0  501 -0.00000000000E+00  0.00000000000E+00  0.32034510551E+02  0.32034510551E+02  0.00000000000E+00 0.  1.
          1   -1    0    0  501    0  0.00000000000E+00 -0.00000000000E+00 -0.48038537324E+03  0.48038537324E+03  0.00000000000E+00 0. -1.
         25    2    1    2    0    0 -0.41097040303E+02  0.41164639483E+02 -0.27500963234E+03  0.30767093113E+03  0.12509040618E+03 0.  0.
         23    2    1    2    0    0  0.41097040303E+02 -0.41164639483E+02 -0.17334123035E+03  0.20474895266E+03  0.92149103143E+02 0.  0.
          5    1    3    3  502    0  0.28859090447E+02 -0.23016291000E+02 -0.42248459881E+02  0.56258346183E+02  0.41800000000E+01 0.  1.
         -5    1    3    3    0  502 -0.69956130750E+02  0.64180930483E+02 -0.23276117246E+03  0.25141258495E+03  0.41800000000E+01 0.  1.
        -11    1    4    4    0    0 -0.82567806624E+01 -0.13437435190E+02  0.58554116665E+01  0.16823345006E+02  0.00000000000E+00 0.  1.
         11    1    4    4    0    0  0.49353820965E+02 -0.27727204292E+02 -0.17919664201E+03  0.18792560765E+03  0.00000000000E+00 0. -1.
</event>
<event>
 8    1  0.6901948E-009  0.1222566E+03  0.7561462E-02  0.1239420E+00
          2   -1    0    0  501    0  0.00000000000E+00  0.00000000000E+00  0.27342343771E+03  0.27342343771E+03  0.00000000000E+00 0. -1.
         -2   -1    0    0    0  501 -0.00000000000E+00 -0.00000000000E+00 -0.92621806255E+02  0.92621806255E+02  0.00000000000E+00 0.  1.
         25    2    1    2    0    0 -0.99590805379E+02  0.31270103772E+02  0.15295626714E+03  0.22347235174E+03  0.12509246353E+03 0.  0.
         23    2    1    2    0    0  0.99590805379E+02 -0.31270103772E+02  0.27845364316E+02  0.14257289222E+03  0.93035033057E+02 0.  0.
          5    1    3    3  502    0 -0.17668894374E+02 -0.28155245012E+02  0.10722246716E+03  0.11233448942E+03  0.41800000000E+01 0.  1.
         -5    1    3    3    0  502 -0.81921911005E+02  0.59425348785E+02  0.45733799977E+02  0.11113786232E+03  0.41800000000E+01 0.  1.
        -11    1    4    4    0    0  0.53831091976E+02  0.80605856774E+00  0.57948856896E+02  0.79098079681E+02  0.00000000000E+00 0. -1.
         11    1    4    4    0    0  0.45759713403E+02 -0.32076162340E+02 -0.30103492580E+02  0.63474812538E+02  0.00000000000E+00 0.  1.
</event>
<event>
 8    1  0.6901948E-009  0.1796072E+03  0.7561462E-02  0.1168184E+00
          2   -1    0    0  501    0  0.00000000000E+00  0.00000000000E+00  0.45722921103E+03  0.45722921103E+03  0.00000000000E+00 0. -1.
         -2   -1    0    0    0  501 -0.00000000000E+00 -0.00000000000E+00 -0.10368571979E+03  0.10368571979E+03  0.00000000000E+00 0.  1.
         25    2    1    2    0    0 -0.32588182240E+02 -0.17167295768E+03  0.27816518511E+03  0.35150555388E+03  0.12508673062E+03 0.  0.
         23    2    1    2    0    0  0.32588182240E+02  0.17167295768E+03  0.75378306135E+02  0.20940937694E+03  0.87388809891E+02 0.  0.
          5    1    3    3  502    0 -0.29450310957E+02 -0.14554263164E+03  0.28721963461E+03  0.32336136031E+03  0.41800000000E+01 0.  1.
         -5    1    3    3    0  502 -0.31378712836E+01 -0.26130326049E+02 -0.90544494993E+01  0.28144193563E+02  0.41800000000E+01 0.  1.
        -11    1    4    4    0    0 -0.86957541386E+01  0.10658191869E+03  0.83485254231E+01  0.10726145350E+03  0.00000000000E+00 0. -1.
         11    1    4    4    0    0  0.41283936379E+02  0.65091038997E+02  0.67029780712E+02  0.10214792344E+03  0.00000000000E+00 0.  1.
</event>
<event>
 8    1  0.6901948E-009  0.6470986E+02  0.7561462E-02  0.1379066E+00
         -2   -1    0    0    0  501 -0.00000000000E+00  0.00000000000E+00  0.69978401340E+02  0.69978401340E+02  0.00000000000E+00 0.  1.
          2   -1    0    0  501    0  0.00000000000E+00 -0.00000000000E+00 -0.16234269023E+03  0.16234269023E+03  0.00000000000E+00 0. -1.
         25    2    1    2    0    0 -0.20322738735E+02 -0.86664758651E+01 -0.49113253830E+02  0.13618766611E+03  0.12508735821E+03 0.  0.
         23    2    1    2    0    0  0.20322738735E+02  0.86664758651E+01 -0.43251035059E+02  0.96133425458E+02  0.82963015513E+02 0.  0.
          5    1    3    3  502    0  0.85742756597E+01  0.28009227554E+02 -0.76411227032E+02  0.81940118671E+02  0.41800000000E+01 0.  1.
         -5    1    3    3    0  502 -0.28897014395E+02 -0.36675703420E+02  0.27297973202E+02  0.54247547439E+02  0.41800000000E+01 0.  1.
        -11    1    4    4    0    0 -0.13048502478E+02  0.14021592438E+02  0.17930668284E+02  0.26236946022E+02  0.00000000000E+00 0.  1.
         11    1    4    4    0    0  0.33371241213E+02 -0.53551165728E+01 -0.61181703343E+02  0.69896479436E+02  0.00000000000E+00 0. -1.
</event>
<event>
 8    1  0.6901948E-009  0.8362376E+02  0.7561462E-02  0.1319071E+00
          2   -1    0    0  501    0  0.00000000000E+00  0.00000000000E+00  0.49084592790E+03  0.49084592790E+03  0.00000000000E+00 0. -1.
         -2   -1    0    0    0  501 -0.00000000000E+00 -0.00000000000E+00 -0.35046266102E+02  0.35046266102E+02  0.00000000000E+00 0.  1.
         25    2    1    2    0    0 -0.29988869580E+02  0.56254367673E+02  0.31755683997E+03  0.34720247922E+03  0.12507329367E+03 0.  0.
         23    2    1    2    0    0  0.29988869580E+02 -0.56254367673E+02  0.13824282183E+03  0.17868971478E+03  0.93568425224E+02 0.  0.
          5    1    3    3  502    0  0.64047640753E+01 -0.12867929311E+02  0.22717219899E+03  0.22766485236E+03  0.41800000000E+01 0. -1.
         -5    1    3    3    0  502 -0.36393633656E+02  0.69122296984E+02  0.90384640978E+02  0.11953762686E+03  0.41800000000E+01 0. -1.
        -11    1    4    4    0    0  0.24972900649E+02 -0.90247833360E+01 -0.56612487071E+01  0.27150363129E+02  0.00000000000E+00 0.  1.
         11    1    4    4    0    0  0.50159689312E+01 -0.47229584337E+02  0.14390407054E+03  0.15153935165E+03  0.00000000000E+00 0. -1.
</event>
<event>
 8    1  0.6901948E-009  0.1429668E+03  0.7561462E-02  0.1209392E+00
          3   -1    0    0  501    0  0.00000000000E+00  0.00000000000E+00  0.75876451291E+03  0.75876451291E+03  0.00000000000E+00 0. -1.
         -3   -1    0    0    0  501 -0.00000000000E+00 -0.00000000000E+00 -0.28684237950E+02  0.28684237950E+02  0.00000000000E+00 0.  1.
         25    2    1    2    0    0 -0.99202575237E+02 -0.20915124812E+02  0.42381657272E+03  0.45337479499E+03  0.12509845739E+03 0.  0.
         23    2    1    2    0    0  0.99202575237E+02  0.20915124812E+02  0.30626370224E+03  0.33407395587E+03  0.86771880817E+02 0.  0.
          5    1    3    3  502    0 -0.62892074756E+01 -0.58195152538E+02  0.19357488379E+03  0.20227441248E+03  0.41800000000E+01 0.  1.
         -5    1    3    3    0  502 -0.92913367761E+02  0.37280027727E+02  0.23024168893E+03  0.25110038251E+03  0.41800000000E+01 0.  1.
        -11    1    4    4    0    0  0.78340347872E+01 -0.23994386142E+02  0.27632776808E+02  0.37425566415E+02  0.00000000000E+00 0.  1.
         11    1    4    4    0    0  0.91368540450E+02  0.44909510954E+02  0.27863092543E+03  0.29664838945E+03  0.00000000000E+00 0. -1.
</event>
<event>
 8    1  0.6901948E-009  0.1713251E+03  0.7561462E-02  0.1176473E+00
         -1   -1    0    0    0  501 -0.00000000000E+00  0.00000000000E+00  0.37372293821E+02  0.37372293821E+02  0.00000000000E+00 0.  1.
          1   -1    0    0  501    0  0.00000000000E+00 -0.00000000000E+00 -0.12848879017E+04  0.12848879017E+04  0.00000000000E+00 0. -1.
         25    2    1    2    0    0 -0.75520569172E+02  0.14055968432E+03 -0.33732583521E+03  0.39356909249E+03  0.12509008851E+03 0.  0.
         23    2    1    2    0    0  0.75520569172E+02 -0.14055968432E+03 -0.91018977270E+03  0.92869110305E+03  0.92527624735E+02 0.  0.
          5    1    3    3  502    0 -0.68517914803E+01  0.32585866343E+02 -0.86259301478E+00  0.33570853407E+02  0.41800000000E+01 0.  1.
         -5    1    3    3    0  502 -0.68668777692E+02  0.10797381798E+03 -0.33646324219E+03  0.35999823909E+03  0.41800000000E+01 0.  1.
        -11    1    4    4    0    0 -0.28889513331E+01 -0.84796766574E+02 -0.33913874961E+03  0.34959108849E+03  0.00000000000E+00 0.  1.
         11    1    4    4    0    0  0.78409520506E+02 -0.55762917749E+02 -0.57105102308E+03  0.57910001456E+03  0.00000000000E+00 0. -1.
</event>
<event>
 8    1  0.6901948E-009  0.1168186E+03  0.7561462E-02  0.1248439E+00
         -1   -1    0    0    0  501 -0.00000000000E+00  0.00000000000E+00  0.93874001075E+01  0.93874001075E+01  0.00000000000E+00 0.  1.
          1   -1    0    0  501    0  0.00000000000E+00 -0.00000000000E+00 -0.19910013689E+04  0.19910013689E+04  0.00000000000E+00 0. -1.
         25    2    1    2    0    0 -0.39716233679E+02 -0.57313171427E+02 -0.14456878733E+04  0.14527639457E+04  0.12508987233E+03 0.  0.
         23    2    1    2    0    0  0.39716233679E+02  0.57313171427E+02 -0.53592609551E+03  0.54762482330E+03  0.88396766952E+02 0.  0.
          5    1    3    3  502    0 -0.59748088471E+02  0.18626264089E+01 -0.33532834355E+03  0.34064038786E+03  0.41800000000E+01 0. -1.
         -5    1    3    3    0  502  0.20031854791E+02 -0.59175797836E+02 -0.11103595297E+04  0.11121235578E+04  0.41800000000E+01 0. -1.
        -11    1    4    4    0    0  0.46168038845E+02 -0.67973830701E+01 -0.27005092079E+03  0.27405326498E+03  0.00000000000E+00 0. -1.
         11    1    4    4    0    0 -0.64518051652E+01  0.64110554497E+02 -0.26587517472E+03  0.27357155832E+03  0.00000000000E+00 0.  1.
</event>
<event>
 8    1  0.6901948E-009  0.7693547E+02  0.7561462E-02  0.1337980E+00
          3   -1    0    0  501    0  0.00000000000E+00  0.00000000000E+00  0.17954726601E+03  0.17954726601E+03  0.00000000000E+00 0. -1.
         -3   -1    0    0    0  501 -0.00000000000E+00 -0.00000000000E+00 -0.67839440692E+02  0.67839440692E+02  0.00000000000E+00 0.  1.
         25    2    1    2    0    0 -0.22421637096E+02  0.57418710891E+01  0.64411984889E+02  0.14259517056E+03  0.12509508374E+03 0.  0.
         23    2    1    2    0    0  0.22421637096E+02 -0.57418710891E+01  0.47295840431E+02  0.10479153614E+03  0.90601714283E+02 0.  0.
          5    1    3    3  502    0 -0.32617837409E+02 -0.43304784177E+02  0.73585084028E+02  0.91495708322E+02  0.41800000000E+01 0.  1.
         -5    1    3    3    0  502  0.10196200313E+02  0.49046655266E+02 -0.91730991388E+01  0.51099462242E+02  0.41800000000E+01 0.  1.
        -11    1    4    4    0    0  0.21853427513E+02  0.16246143111E+02  0.68823247176E+02  0.74014517575E+02  0.00000000000E+00 0. -1.
         11    1    4    4    0    0  0.56820958347E+00 -0.21988014200E+02 -0.21527406745E+02  0.30777018565E+02  0.00000000000E+00 0.  1.
</event>
<event>
 8    1  0.6901948E-009  0.1113271E+03  0.7561462E-02  0.1258132E+00
         -2   -1    0    0    0  501 -0.00000000000E+00  0.00000000000E+00  0.22028894449E+02  0.22028894449E+02  0.00000000000E+00 0.  1.
          2   -1    0    0  501    0  0.00000000000E+00 -0.00000000000E+00 -0.65511958948E+03  0.65511958948E+03  0.00000000000E+00 0. -1.
         25    2    1    2    0    0 -0.31654022429E+02  0.37209118664E+02 -0.30718746964E+03  0.33525824305E+03  0.12508977729E+03 0.  0.
         23    2    1    2    0    0  0.31654022429E+02 -0.37209118664E+02 -0.32590322539E+03  0.34189024087E+03  0.91046849696E+02 0.  0.
          5    1    3    3  502    0  0.23668558079E+02  0.64845691199E+02 -0.19765649676E+03  0.20940565279E+03  0.41800000000E+01 0.  1.
         -5    1    3    3    0  502 -0.55322580508E+02 -0.27636572535E+02 -0.10953097288E+03  0.12585259026E+03  0.41800000000E+01 0.  1.
        -11    1    4    4    0    0 -0.37518076615E+01  0.22113748299E+02 -0.26971379277E+02  0.35079185063E+02  0.00000000000E+00 0.  1.
         11    1    4    4    0    0  0.35405830091E+02 -0.59322866964E+02 -0.29893184611E+03  0.30681105581E+03  0.00000000000E+00 0. -1.
</event>
<event>
 8    1  0.6901948E-009  0.1223967E+03  0.7561462E-02  0.1239195E+00
         -2   -1    0    0    0  501 -0.00000000000E+00  0.00000000000E+00  0.30530986605E+02  0.30530986605E+02  0.00000000000E+00 0. -1.
          2   -1    0    0  501    0  0.00000000000E+00 -0.00000000000E+00 -0.74988010020E+03  0.74988010020E+03  0.00000000000E+00 0.  1.
         25    2    1    2    0    0  0.86732559438E+02  0.40800396718E+02 -0.48890309508E+03  0.51367643318E+03  0.12510008950E+03 0.  0.
         23    2    1    2    0    0 -0.86732559438E+02 -0.40800396718E+02 -0.23044601852E+03  0.26673465363E+03  0.94099940242E+02 0.  0.
          5    1    3    3  502    0  0.10504876184E+03  0.41586099066E+02 -0.47950859980E+03  0.49265669150E+03  0.41800000000E+01 0. -1.
         -5    1    3    3    0  502 -0.18316202407E+02 -0.78570234815E+00 -0.93944952791E+01  0.21019741681E+02  0.41800000000E+01 0. -1.
        -11    1    4    4    0    0 -0.12800986859E+02 -0.36720580170E+02 -0.20179296680E+02  0.43811759689E+02  0.00000000000E+00 0. -1.
         11    1    4    4    0    0 -0.73931572579E+02 -0.40798165484E+01 -0.21026672184E+03  0.22292289394E+03  0.00000000000E+00 0.  1.
</event>
<event>
 8    1  0.6901948E-009  0.1291891E+03  0.7561462E-02  0.1228664E+00
         -2   -1    0    0    0  501 -0.00000000000E+00  0.00000000000E+00  0.19348417511E+02  0.19348417511E+02  0.00000000000E+00 0.  1.
          2   -1    0    0  501    0  0.00000000000E+00 -0.00000000000E+00 -0.10480608814E+04  0.10480608814E+04  0.00000000000E+00 0. -1.
         25    2    1    2    0    0 -0.90025093956E+02  0.19044685817E+02 -0.46935348477E+03  0.49437341064E+03  0.12508060553E+03 0.  0.
         23    2    1    2    0    0  0.90025093956E+02 -0.19044685817E+02 -0.55935897909E+03  0.57303588824E+03  0.83788090615E+02 0.  0.
          5    1    3    3  502    0  0.91503315433E+00  0.42955594397E+02 -0.27568081637E+03  0.27904014996E+03  0.41800000000E+01 0.  1.
         -5    1    3    3    0  502 -0.90940127111E+02 -0.23910908580E+02 -0.19367266840E+03  0.21533326068E+03  0.41800000000E+01 0.  1.
        -11    1    4    4    0    0  0.22769931235E+02 -0.43844185769E+02 -0.29606063617E+03  0.30015443140E+03  0.00000000000E+00 0.  1.
         11    1    4    4    0    0  0.67255162722E+02  0.24799499952E+02 -0.26329834291E+03  0.27288145685E+03  0.00000000000E+00 0. -1.
</event>
<event>
 8    1  0.6901948E-009  0.2529385E+03  0.7561462E-02  0.1111462E+00
         -2   -1    0    0    0  501 -0.00000000000E+00  0.00000000000E+00  0.62432618481E+02  0.62432618481E+02  0.00000000000E+00 0.  1.
          2   -1    0    0  501    0  0.00000000000E+00 -0.00000000000E+00 -0.12195888416E+04  0.12195888416E+04  0.00000000000E+00 0. -1.
         25    2    1    2    0    0 -0.17814184236E+03  0.15035766400E+03 -0.81259353360E+03  0.85457498183E+03  0.12509278795E+03 0.  0.
         23    2    1    2    0    0  0.17814184236E+03 -0.15035766400E+03 -0.34456268954E+03  0.42744647827E+03  0.98209478364E+02 0.  0.
          5    1    3    3  502    0 -0.14211497287E+03  0.57605117285E+02 -0.36300024069E+03  0.39408331884E+03  0.41800000000E+01 0.  1.
         -5    1    3    3    0  502 -0.36026869486E+02  0.92752546715E+02 -0.44959329291E+03  0.46049166298E+03  0.41800000000E+01 0.  1.
        -11    1    4    4    0    0  0.76830674900E+02 -0.67379701850E+01 -0.10036868177E+03  0.12657892845E+03  0.00000000000E+00 0.  1.
         11    1    4    4    0    0  0.10131116746E+03 -0.14361969381E+03 -0.24419400776E+03  0.30086754982E+03  0.00000000000E+00 0. -1.
</event>
<event>
 8    1  0.6901948E-009  0.6161585E+02  0.7561462E-02  0.1391173E+00
         -4   -1    0    0    0  501 -0.00000000000E+00  0.00000000000E+00  0.68997179423E+02  0.68997179423E+02  0.00000000000E+00 0.  1.
          4   -1    0    0  501    0  0.00000000000E+00 -0.00000000000E+00 -0.18421021126E+03  0.18421021126E+03  0.00000000000E+00 0. -1.
         25    2    1    2    0    0  0.28042574530E+02 -0.12485365229E+02 -0.10228303298E+03  0.16446595301E+03  0.12507981665E+03 0.  0.
         23    2    1    2    0    0 -0.28042574530E+02  0.12485365229E+02 -0.12929998856E+02  0.88741437670E+02  0.82253191781E+02 0.  0.
          5    1    3    3  502    0  0.59983356639E+01 -0.11438290027E+02  0.28605962485E+02  0.31663670021E+02  0.41800000000E+01 0.  1.
         -5    1    3    3    0  502  0.22044238866E+02 -0.10470752026E+01 -0.13088899547E+03  0.13280228299E+03  0.41800000000E+01 0.  1.
        -11    1    4    4    0    0 -0.50253792217E+02 -0.14443246021E+02 -0.12809736703E+02  0.53834378814E+02  0.00000000000E+00 0.  1.
         11    1    4    4    0    0  0.22211217688E+02  0.26928611250E+02 -0.12026215275E+00  0.34907058857E+02  0.00000000000E+00 0. -1.
</event>
<event>
 8    1  0.6901948E-009  0.7244282E+02  0.7561462E-02  0.1351978E+00
          1   -1    0    0  501    0  0.00000000000E+00  0.00000000000E+00  0.58198100954E+03  0.58198100954E+03  0.00000000000E+00 0. -1.
         -1   -1    0    0    0  501 -0.00000000000E+00 -0.00000000000E+00 -0.32914423025E+02  0.32914423025E+02  0.00000000000E+00 0.  1.
         25    2    1    2    0    0  0.32361638903E+02 -0.17125779867E+02  0.12828190659E+03  0.18287926548E+03  0.12509200684E+03 0.  0.
         23    2    1    2    0    0 -0.32361638903E+02  0.17125779867E+02  0.42078467993E+03  0.43201616709E+03  0.90761521335E+02 0.  0.
          5    1    3    3  502    0  0.38186219982E+02 -0.15769907421E+02 -0.11356630123E+02  0.43050236054E+02  0.41800000000E+01 0. -1.
         -5    1    3    3    0  502 -0.58245810789E+01 -0.13558724460E+01  0.13963853671E+03  0.13982902942E+03  0.41800000000E+01 0. -1.
        -11    1    4    4    0    0 -0.51375932840E+02  0.40866683766E+02  0.24621353276E+03  0.25481498392E+03  0.00000000000E+00 0.  1.
         11    1    4    4    0    0  0.19014293937E+02 -0.23740903899E+02  0.17457114717E+03  0.17720118317E+03  0.00000000000E+00 0. -1.
</event>
<event>
 8    1  0.6901948E-009  0.1889659E+03  0.7561462E-02  0.1159397E+00
         -2   -1    0    0    0  501 -0.00000000000E+00  0.00000000000E+00  0.85233058334E+02  0.85233058334E+02  0.00000000000E+00 0.  1.
          2   -1    0    0  501    0  0.00000000000E+00 -0.00000000000E+00 -0.44279737361E+03  0.44279737361E+03  0.00000000000E+00 0. -1.
         25    2    1    2    0    0 -0.22175717612E+02 -0.15762455082E+03 -0.22835629918E+03  0.30517458082E+03  0.12509062286E+03 0.  0.
         23    2    1    2    0    0  0.22175717612E+02  0.15762455082E+03 -0.12920801609E+03  0.22285585112E+03  0.87365653920E+02 0.  0.
          5    1    3    3  502    0  0.20332120681E+02 -0.15632854307E+03 -0.16070115861E+03  0.22515404346E+03  0.41800000000E+01 0. -1.
         -5    1    3    3    0  502 -0.42507838293E+02 -0.12960077530E+01 -0.67655140572E+02  0.80020537353E+02  0.41800000000E+01 0. -1.
        -11    1    4    4    0    0 -0.19452833169E+02  0.11942717627E+03 -0.10898931787E+03  0.16284942296E+03  0.00000000000E+00 0.  1.
         11    1    4    4    0    0  0.41628550781E+02  0.38197374552E+02 -0.20218698219E+02  0.60006428159E+02  0.00000000000E+00 0. -1.
</event>
<event>
 8    1  0.6901948E-009  0.1684252E+03  0.7561462E-02  0.1179500E+00
          1   -1    0    0  501    0  0.00000000000E+00  0.00000000000E+00  0.39524954756E+03  0.39524954756E+03  0.00000000000E+00 0. -1.
         -1   -1    0    0    0  501 -0.00000000000E+00 -0.00000000000E+00 -0.93023773013E+02  0.93023773013E+02  0.00000000000E+00 0.  1.
         25    2    1    2    0    0  0.97745235632E+02 -0.12306033287E+03  0.14163970371E+03  0.24577867605E+03  0.12508946927E+03 0.  0.
         23    2    1    2    0    0 -0.97745235632E+02  0.12306033287E+03  0.16058607084E+03  0.24249464452E+03  0.91201918057E+02 0.  0.
          5    1    3    3  502    0  0.10861701746E+03 -0.87170752873E+02  0.15244776579E+03  0.20652890919E+03  0.41800000000E+01 0.  1.
         -5    1    3    3    0  502 -0.10871781828E+02 -0.35889579998E+02 -0.10808062083E+02  0.39249766860E+02  0.41800000000E+01 0.  1.
        -11    1    4    4    0    0 -0.19672619747E+02  0.91732662348E+01 -0.92640255289E+01  0.23600486226E+02  0.00000000000E+00 0.  1.
         11    1    4    4    0    0 -0.78072615885E+02  0.11388706664E+03  0.16985009637E+03  0.21889415829E+03  0.00000000000E+00 0. -1.
</event>
<event>
 8    1  0.6901948E-009  0.1246408E+03  0.7561462E-02  0.1235632E+00
          3   -1    0    0  501    0  0.00000000000E+00  0.00000000000E+00  0.13463973860E+03  0.13463973860E+03  0.00000000000E+00 0. -1.
         -3   -1    0    0    0  501 -0.00000000000E+00 -0.00000000000E+00 -0.12927229955E+03  0.12927229955E+03  0.00000000000E+00 0.  1.
         25    2    1    2    0    0  0.53729788047E+02 -0.24446165435E+02  0.32283887232E+02  0.14204267387E+03  0.12509742882E+03 0.  0.
         23    2    1    2    0    0 -0.53729788047E+02  0.24446165435E+02 -0.26916448182E+02  0.12186936428E+03  0.10316560299E+03 0.  0.
          5    1    3    3  502    0 -0.16943716210E+02 -0.52058852943E+02 -0.88782174302E+01  0.55619320685E+02  0.41800000000E+01 0.  1.
         -5    1    3    3    0  502  0.70673504257E+02  0.27612687508E+02  0.41162104663E+02  0.86423353185E+02  0.41800000000E+01 0.  1.
        -11    1    4    4    0    0 -0.15085433763E+02 -0.40272832943E+02 -0.45671267022E+01  0.43247312419E+02  0.00000000000E+00 0. -1.
         11    1    4    4    0    0 -0.38644354284E+02  0.64718998378E+02 -0.22349321479E+02  0.78622051866E+02  0.00000000000E+00 0.  1.
</event>
<event>
 8    1  0.6901948E-009  0.1832510E+03  0.7561462E-02  0.1164693E+00
         -1   -1    0    0    0  501 -0.00000000000E+00  0.00000000000E+00  0.61879049914E+03  0.61879049914E+03  0.00000000000E+00 0.  1.
          1   -1    0    0  501    0  0.00000000000E+00 -0.00000000000E+00 -0.10650991179E+03  0.10650991179E+03  0.00000000000E+00 0. -1.
         25    2    1    2    0    0  0.13109561061E+03  0.98910674233E+02  0.30594466966E+02  0.20870379078E+03  0.12510743494E+03 0.  0.
         23    2    1    2    0    0 -0.13109561061E+03 -0.98910674233E+02  0.48168612039E+03  0.51659662015E+03  0.88775947044E+02 0.  0.
          5    1    3    3  502    0 -0.14656547199E+02  0.19884913115E+02 -0.23403809776E+02  0.34284615463E+02  0.41800000000E+01 0.  1.
         -5    1    3    3    0  502  0.14575215781E+03  0.79025761118E+02  0.53998276742E+02  0.17441917532E+03  0.41800000000E+01 0.  1.
        -11    1    4    4    0    0 -0.28463528225E+02 -0.58947858648E+02  0.10149268126E+03  0.12077163089E+03  0.00000000000E+00 0.  1.
         11    1    4    4    0    0 -0.10263208239E+03 -0.39962815585E+02  0.38019343913E+03  0.39582498926E+03  0.00000000000E+00 0. -1.
</event>
<event>
 8    1  0.6901948E-009  0.1353922E+03  0.7561462E-02  0.1219667E+00
          2   -1    0    0  501    0  0.00000000000E+00  0.00000000000E+00  0.79102098034E+03  0.79102098034E+03  0.00000000000E+00 0. -1.
         -2   -1    0    0    0  501 -0.00000000000E+00 -0.00000000000E+00 -0.35525846235E+02  0.35525846235E+02  0.00000000000E+00 0.  1.
         25    2    1    2    0    0  0.15500746653E+02 -0.12523891231E+03  0.45544060742E+03  0.48887542327E+03  0.12509186336E+03 0.  0.
         23    2    1    2    0    0 -0.15500746653E+02  0.12523891231E+03  0.30005452668E+03  0.33767140331E+03  0.89800887110E+02 0.  0.
          5    1    3    3  502    0 -0.23211158313E+02 -0.16267301895E+02  0.26127998613E+03  0.26284612710E+03  0.41800000000E+01 0.  1.
         -5    1    3    3    0  502  0.38711904967E+02 -0.10897161042E+03  0.19416062130E+03  0.22602929617E+03  0.41800000000E+01 0.  1.
        -11    1    4    4    0    0 -0.12969676287E+02  0.75076129837E+02  0.74381058130E+02  0.10647619256E+03  0.00000000000E+00 0.  1.
         11    1    4    4    0    0 -0.25310703662E+01  0.50162782476E+02  0.22567346855E+03  0.23119521075E+03  0.00000000000E+00 0. -1.
</event>
<event>
 8    1  0.6901948E-009  0.1034461E+03  0.7561462E-02  0.1273212E+00
          3   -1    0    0  501    0  0.00000000000E+00  0.00000000000E+00  0.21797838867E+02  0.21797838867E+02  0.00000000000E+00 0. -1.
         -3   -1    0    0    0  501 -0.00000000000E+00 -0.00000000000E+00 -0.61140040523E+03  0.61140040523E+03  0.00000000000E+00 0.  1.
         25    2    1    2    0    0  0.73450562054E+01  0.26036968788E+01 -0.40208949925E+03  0.42117003678E+03  0.12508998914E+03 0.  0.
         23    2    1    2    0    0 -0.73450562054E+01 -0.26036968788E+01 -0.18751306711E+03  0.21202820732E+03  0.98661447756E+02 0.  0.
          5    1    3    3  502    0 -0.53777185342E+02  0.95482848459E+00 -0.10755129564E+03  0.12032311064E+03  0.41800000000E+01 0. -1.
         -5    1    3    3    0  502  0.61122241547E+02  0.16488683942E+01 -0.29453820361E+03  0.30084692614E+03  0.41800000000E+01 0. -1.
        -11    1    4    4    0    0 -0.42779908355E+02 -0.25181167490E+02 -0.14031804720E+03  0.14884006895E+03  0.00000000000E+00 0.  1.
         11    1    4    4    0    0  0.35434852150E+02  0.22577470611E+02 -0.47195019909E+02  0.63188138367E+02  0.00000000000E+00 0. -1.
</event>
<event>
 8    1  0.6901948E-009  0.1071786E+03  0.7561462E-02  0.1265886E+00
         -2   -1    0    0    0  501 -0.00000000000E+00  0.00000000000E+00  0.11610563407E+03  0.11610563407E+03  0.00000000000E+00 0.  1.
          2   -1    0    0  501    0  0.00000000000E+00 -0.00000000000E+00 -0.13369495184E+03  0.13369495184E+03  0.00000000000E+00 0. -1.
         25    2    1    2    0    0  0.67101770615E+01  0.45748019707E+02 -0.61764512437E+02  0.14694511137E+03  0.12506039731E+03 0.  0.
         23    2    1    2    0    0 -0.67101770615E+01 -0.45748019707E+02  0.44175194672E+02  0.10285547454E+03  0.80559872362E+02 0.  0.
          5    1    3    3  502    0 -0.29633559838E+02 -0.27218719263E+02 -0.50254528066E+02  0.64513537635E+02  0.41800000000E+01 0. -1.
         -5    1    3    3    0  502  0.36343736899E+02  0.72966738971E+02 -0.11509984371E+02  0.82431573733E+02  0.41800000000E+01 0. -1.
        -11    1    4    4    0    0  0.30061267015E+02 -0.46650369556E+02  0.20762839167E+02  0.59253963957E+02  0.00000000000E+00 0. -1.
         11    1    4    4    0    0 -0.36771444077E+02  0.90234984921E+00  0.23412355505E+02  0.43601510582E+02  0.00000000000E+00 0.  1.
</event>
<event>
 8    1  0.6901948E-009  0.8727573E+02  0.7561462E-02  0.1309586E+00
         -1   -1    0    0    0  501 -0.00000000000E+00  0.00000000000E+00  0.15740070531E+03  0.15740070531E+03  0.00000000000E+00 0.  1.
          1   -1    0    0  501    0  0.00000000000E+00 -0.00000000000E+00 -0.31873928630E+03  0.31873928630E+03  0.00000000000E+00 0. -1.
         25    2    1    2    0    0  0.52037273171E+02  0.36318828437E+02  0.11262124749E+03  0.17988403766E+03  0.12509111288E+03 0.  0.
         23    2    1    2    0    0 -0.52037273171E+02 -0.36318828437E+02 -0.27395982847E+03  0.29625595395E+03  0.93202293629E+02 0.  0.
          5    1    3    3  502    0  0.71153653483E+01 -0.54270865668E+01 -0.26234316030E+02  0.28032007246E+02  0.41800000000E+01 0. -1.
         -5    1    3    3    0  502  0.44921907822E+02  0.41745915003E+02  0.13885556352E+03  0.15185203042E+03  0.41800000000E+01 0. -1.
        -11    1    4    4    0    0 -0.73603273322E+02 -0.35266582647E+02 -0.15322937177E+03  0.17360994807E+03  0.00000000000E+00 0. -1.
         11    1    4    4    0    0  0.21566000151E+02 -0.10522457894E+01 -0.12073045670E+03  0.12264600589E+03  0.00000000000E+00 0.  1.
</event>
<event>
 8    1  0.6901948E-009  0.9736853E+02  0.7561462E-02  0.1285929E+00
         -2   -1    0    0    0  501 -0.00000000000E+00  0.00000000000E+00  0.94112722678E+03  0.94112722678E+03  0.00000000000E+00 0.  1.
          2   -1    0    0  501    0  0.00000000000E+00 -0.00000000000E+00 -0.13267978732E+02  0.13267978732E+02  0.00000000000E+00 0. -1.
         25    2    1    2    0    0 -0.21971925081E+01  0.18558880017E+01  0.65741323900E+03  0.66921732304E+03  0.12510550212E+03 0.  0.
         23    2    1    2    0    0  0.21971925081E+01 -0.18558880017E+01  0.27044600905E+03  0.28517788248E+03  0.90427367920E+02 0.  0.
          5    1    3    3  502    0  0.32925120634E+02 -0.38397197646E+02  0.13781597846E+03  0.14686430701E+03  0.41800000000E+01 0.  1.
         -5    1    3    3    0  502 -0.35122313142E+02  0.40253085648E+02  0.51959726054E+03  0.52235301602E+03  0.41800000000E+01 0.  1.
        -11    1    4    4    0    0  0.45575161655E+02 -0.89471221301E+01  0.14471643415E+03  0.15198681741E+03  0.00000000000E+00 0.  1.
         11    1    4    4    0    0 -0.43377969147E+02  0.70912341284E+01  0.12572957490E+03  0.13319106507E+03  0.00000000000E+00 0. -1.
</event>
<event>
 8    1  0.6901948E-009  0.1009129E+03  0.7561462E-02  0.1278388E+00
         -1   -1    0    0    0  501 -0.00000000000E+00  0.00000000000E+00  0.23797112868E+02  0.23797112868E+02  0.00000000000E+00 0.  1.
          1   -1    0    0  501    0  0.00000000000E+00 -0.00000000000E+00 -0.73867725605E+03  0.73867725605E+03  0.00000000000E+00 0. -1.
         25    2    1    2    0    0 -0.38004263537E+02  0.43998029314E+02 -0.53712640690E+03  0.55455822484E+03  0.12509954883E+03 0.  0.
         23    2    1    2    0    0  0.38004263537E+02 -0.43998029314E+02 -0.17775373629E+03  0.20791614408E+03  0.90843720619E+02 0.  0.
          5    1    3    3  502    0  0.63980258715E+01  0.66507021983E+02 -0.44268133133E+03  0.44771458790E+03  0.41800000000E+01 0.  1.
         -5    1    3    3    0  502 -0.44402289409E+02 -0.22508992669E+02 -0.94445075567E+02  0.10684363694E+03  0.41800000000E+01 0.  1.
        -11    1    4    4    0    0  0.47887676745E+02 -0.92174015122E+01 -0.16070389623E+03  0.16794026419E+03  0.00000000000E+00 0. -1.
         11    1    4    4    0    0 -0.98834132073E+01 -0.34780627802E+02 -0.17049840060E+02  0.39975879890E+02  0.00000000000E+00 0.  1.
</event>
<event>
 8    1  0.6901948E-009  0.1164165E+03  0.7561462E-02  0.1249129E+00
         -1   -1    0    0    0  501 -0.00000000000E+00  0.00000000000E+00  0.44653533589E+03  0.44653533589E+03  0.00000000000E+00 0.  1.
          1   -1    0    0  501    0  0.00000000000E+00 -0.00000000000E+00 -0.76137663954E+02  0.76137663954E+02  0.00000000000E+00 0. -1.
         25    2    1    2    0    0  0.31702682784E+02 -0.92412129575E+02  0.35779961615E+02  0.16270380914E+03  0.12508901658E+03 0.  0.
         23    2    1    2    0    0 -0.31702682784E+02  0.92412129575E+02  0.33461771032E+03  0.35996919070E+03  0.89798354142E+02 0.  0.
          5    1    3    3  502    0  0.46301610468E+01 -0.61374470243E+02  0.80725364202E+02  0.10159882290E+03  0.41800000000E+01 0. -1.
         -5    1    3    3    0  502  0.27072521737E+02 -0.31037659331E+02 -0.44945402587E+02  0.61104986242E+02  0.41800000000E+01 0. -1.
        -11    1    4    4    0    0 -0.32324283215E+02 -0.46708989290E+01  0.12089910902E+03  0.12523286766E+03  0.00000000000E+00 0.  1.
         11    1    4    4    0    0  0.62160043129E+00  0.97083028504E+02  0.21371860130E+03  0.23473632303E+03  0.00000000000E+00 0. -1.
</event>
<event>
 8    1  0.6901948E-009  0.1241197E+03  0.7561462E-02  0.1236452E+00
          1   -1    0    0  501    0  0.00000000000E+00  0.00000000000E+00  0.95566420992E+03  0.95566420992E+03  0.00000000000E+00 0. -1.
         -1   -1    0    0    0  501 -0.00000000000E+00 -0.00000000000E+00 -0.17783204438E+02  0.17783204438E+02  0.00000000000E+00 0.  1.
         25    2    1    2    0    0 -0.64217746736E+02  0.16867049148E+02  0.41114525961E+03  0.43485307077E+03  0.12509337439E+03 0.  0.
         23    2    1    2    0    0  0.64217746736E+02 -0.16867049148E+02  0.52673574587E+03  0.53859434359E+03  0.90691259906E+02 0.  0.
          5    1    3    3  502    0 -0.45187093160E+02 -0.51754502847E+02  0.17089012769E+03  0.18423167506E+03  0.41800000000E+01 0. -1.
         -5    1    3    3    0  502 -0.19030653576E+02  0.68621551995E+02  0.24025513192E+03  0.25062139571E+03  0.41800000000E+01 0. -1.
        -11    1    4    4    0    0  0.84122944557E+02 -0.36946810834E+01  0.46172506550E+03  0.46934034195E+03  0.00000000000E+00 0. -1.
         11    1    4    4    0    0 -0.19905197821E+02 -0.13172368064E+02  0.65010680371E+02  0.69254001639E+02  0.00000000000E+00 0.  1.
</event>
<event>
 8    1  0.6901948E-009  0.1146329E+03  0.7561462E-02  0.1252223E+00
          2   -1    0    0  501    0  0.00000000000E+00  0.00000000000E+00  0.94365381695E+02  0.94365381695E+02  0.00000000000E+00 0. -1.
         -2   -1    0    0    0  501 -0.00000000000E+00 -0.00000000000E+00 -0.15955001193E+03  0.15955001193E+03  0.00000000000E+00 0.  1.
         25    2    1    2    0    0 -0.42494150237E+02 -0.39065017157E+02 -0.29555677276E+02  0.14089831967E+03  0.12508784936E+03 0.  0.
         23    2    1    2    0    0  0.42494150237E+02  0.39065017157E+02 -0.35628952956E+02  0.11301707395E+03  0.90396948758E+02 0.  0.
          5    1    3    3  502    0  0.59177426677E+01  0.34381391528E+02 -0.38804353143E+02  0.52348352262E+02  0.41800000000E+01 0.  1.
         -5    1    3    3    0  502 -0.48411892905E+02 -0.73446408686E+02  0.92486758679E+01  0.88549967412E+02  0.41800000000E+01 0.  1.
        -11    1    4    4    0    0  0.70274641790E+02  0.22844511954E+02 -0.32402111350E+02  0.80686391820E+02  0.00000000000E+00 0. -1.
         11    1    4    4    0    0 -0.27780491553E+02  0.16220505203E+02 -0.32268416059E+01  0.32330682126E+02  0.00000000000E+00 0.  1.
</event>
<event>
 8    1  0.6901948E-009  0.7661203E+02  0.7561462E-02  0.1338951E+00
         -2   -1    0    0    0  501 -0.00000000000E+00  0.00000000000E+00  0.23131370379E+03  0.23131370379E+03  0.00000000000E+00 0.  1.
          2   -1    0    0  501    0  0.00000000000E+00 -0.00000000000E+00 -0.61470908049E+02  0.61470908049E+02  0.00000000000E+00 0. -1.
         25    2    1    2    0    0 -0.25000174007E+00  0.26177637335E+02  0.15399391335E+03  0.20012873128E+03  0.12510816335E+03 0.  0.
         23    2    1    2    0    0  0.25000174007E+00 -0.26177637335E+02  0.15848882383E+02  0.92655880554E+02  0.87456240092E+02 0.  0.
          5    1    3    3  502    0  0.31782524280E+02  0.49411072006E+02  0.23009477159E+02  0.63233624959E+02  0.41800000000E+01 0. -1.
         -5    1    3    3    0  502 -0.32032526020E+02 -0.23233434671E+02  0.13098443620E+03  0.13689510632E+03  0.41800000000E+01 0. -1.
        -11    1    4    4    0    0 -0.17767932673E+02  0.50583562935E+01  0.43470047239E+02  0.47232736602E+02  0.00000000000E+00 0.  1.
         11    1    4    4    0    0  0.18017934413E+02 -0.31235993629E+02 -0.27621164856E+02  0.45423143952E+02  0.00000000000E+00 0. -1.
</event>
<event>
 7    1  0.6901948E-009  0.1227528E+03  0.7561462E-02  0.1238624E+00
         -1   -1    0    0    0  501 -0.00000000000E+00  0.00000000000E+00  0.39888093532E+02  0.39888093532E+02  0.00000000000E+00 0.  1.
          1   -1    0    0  501    0  0.00000000000E+00 -0.00000000000E+00 -0.63697444691E+03  0.63697444691E+03  0.00000000000E+00 0. -1.
         25    2    1    2    0    0 -0.59896098620E+02  0.53043437544E+02 -0.20533248053E+03  0.25339684017E+03  0.12508949657E+03 0.  0.
          5    1    3    3  502    0 -0.44255492991E+02  0.14764750676E+02 -0.31055017085E+01  0.46943189743E+02  0.41800000000E+01 0. -1.
         -5    1    3    3    0  502 -0.15640605629E+02  0.38278686868E+02 -0.20222697882E+03  0.20645365043E+03  0.41800000000E+01 0. -1.
        -11    1    1    2    0    0  0.10283408857E+03 -0.49189429209E+02 -0.32069077012E+03  0.34034837999E+03  0.00000000000E+00 0.  1.
         11    1    1    2    0    0 -0.42937989955E+02 -0.38540083348E+01 -0.71063102728E+02  0.83117320283E+02  0.00000000000E+00 0. -1.
</event>
<event>
 8    1  0.6901948E-009  0.1465447E+03  0.7561462E-02  0.1204784E+00
         -3   -1    0    0    0  501 -0.00000000000E+00  0.00000000000E+00  0.11329881284E+03  0.11329881284E+03  0.00000000000E+00 0.  1.
          3   -1    0    0  501    0  0.00000000000E+00 -0.00000000000E+00 -0.25898432427E+03  0.25898432427E+03  0.00000000000E+00 0. -1.
         25    2    1    2    0    0 -0.23099323152E+02 -0.10058785534E+03  0.11541199209E+02  0.16257793057E+03  0.12508752478E+03 0.  0.
         23    2    1    2    0    0  0.23099323152E+02  0.10058785534E+03 -0.15722671063E+03  0.20970520654E+03  0.92760658374E+02 0.  0.
          5    1    3    3  502    0  0.30893124359E+01 -0.12358303622E+03 -0.49596350297E+01  0.12379168418E+03  0.41800000000E+01 0. -1.
         -5    1    3    3    0  502 -0.26188635588E+02  0.22995180885E+02  0.16500834239E+02  0.38786246382E+02  0.41800000000E+01 0. -1.
        -11    1    4    4    0    0 -0.29247356172E+02  0.64189092876E+02 -0.55963468725E+02  0.90041975317E+02  0.00000000000E+00 0.  1.
         11    1    4    4    0    0  0.52346679323E+02  0.36398762462E+02 -0.10126324191E+03  0.11966323122E+03  0.00000000000E+00 0. -1.
</event>
<event>
 8    1  0.6901948E-009  0.1010352E+03  0.7561462E-02  0.1278134E+00
         -2   -1    0    0    0  501 -0.00000000000E+00  0.00000000000E+00  0.14852739939E+02  0.14852739939E+02  0.00000000000E+00 0.  1.
          2   -1    0    0  501    0  0.00000000000E+00 -0.00000000000E+00 -0.10341367593E+04  0.10341367593E+04  0.00000000000E+00 0. -1.
         25    2    1    2    0    0  0.42454530517E+01  0.23304439540E+02 -0.80409138981E+03  0.81410783270E+03  0.12508988498E+03 0.  0.
         23    2    1    2    0    0 -0.42454530517E+01 -0.23304439540E+02 -0.21519262959E+03  0.23488166658E+03  0.91106578743E+02 0.  0.
          5    1    3    3  502    0  0.36865133547E+02 -0.33886036394E+02 -0.19179842104E+03  0.19827104743E+03  0.41800000000E+01 0. -1.
         -5    1    3    3    0  502 -0.32619680496E+02  0.57190475935E+02 -0.61229296876E+03  0.61583678527E+03  0.41800000000E+01 0. -1.
        -11    1    4    4    0    0 -0.29766972481E+02 -0.43910938904E+02 -0.17574852986E+03  0.18358046997E+03  0.00000000000E+00 0.  1.
         11    1    4    4    0    0  0.25521519429E+02  0.20606499364E+02 -0.39444099735E+02  0.51301196613E+02  0.00000000000E+00 0. -1.
</event>
<event>
 8    1  0.6901948E-009  0.2059158E+03  0.7561462E-02  0.1144842E+00
         -3   -1    0    0    0  501 -0.00000000000E+00  0.00000000000E+00  0.31795712279E+03  0.31795712279E+03  0.00000000000E+00 0.  1.
          3   -1    0    0  501    0  0.00000000000E+00 -0.00000000000E+00 -0.22432270271E+03  0.22432270271E+03  0.00000000000E+00 0. -1.
         25    2    1    2    0    0  0.97026337318E+02  0.15979256203E+03 -0.11094035017E+03  0.25080459035E+03  0.12508960080E+03 0.  0.
         23    2    1    2    0    0 -0.97026337318E+02 -0.15979256203E+03  0.20457477025E+03  0.29147523515E+03  0.90328307144E+02 0.  0.
          5    1    3    3  502    0  0.83492611652E+01  0.12914129353E+03 -0.78631812134E+02  0.15148471255E+03  0.41800000000E+01 0. -1.
         -5    1    3    3    0  502  0.88677076153E+02  0.30651268504E+02 -0.32308538039E+02  0.99319877799E+02  0.41800000000E+01 0. -1.
        -11    1    4    4    0    0 -0.56073172578E+02 -0.11371667105E+03  0.18951551877E+03  0.22801713491E+03  0.00000000000E+00 0.  1.
         11    1    4    4    0    0 -0.40953164740E+02 -0.46075890980E+02  0.15059251484E+02  0.63458100248E+02  0.00000000000E+00 0. -1.
</event>
<event>
 8    1  0.6901948E-009  0.1035839E+03  0.7561462E-02  0.1272935E+00
         -2   -1    0    0    0  501 -0.00000000000E+00  0.00000000000E+00  0.32934883390E+02  0.32934883390E+02  0.00000000000E+00 0.  1.
          2   -1    0    0  501    0  0.00000000000E+00 -0.00000000000E+00 -0.40972559181E+03  0.40972559181E+03  0.00000000000E+00 0. -1.
         25    2    1    2    0    0  0.11232283332E+02  0.39247374434E+02 -0.18979981527E+03  0.23095033432E+03  0.12509023326E+03 0.  0.
         23    2    1    2    0    0 -0.11232283332E+02 -0.39247374434E+02 -0.18699089315E+03  0.21171014088E+03  0.90493475131E+02 0.  0.
          5    1    3    3  502    0 -0.35479412550E+02  0.48738918357E+02 -0.16767809550E+03  0.17823492079E+03  0.41800000000E+01 0.  1.
         -5    1    3    3    0  502  0.46711695882E+02 -0.94915439232E+01 -0.22121719765E+02  0.52715413529E+02  0.41800000000E+01 0.  1.
        -11    1    4    4    0    0 -0.36537236555E+02 -0.57192316826E+02 -0.13672389165E+03  0.15264125690E+03  0.00000000000E+00 0. -1.
         11    1    4    4    0    0  0.25304953224E+02  0.17944942392E+02 -0.50267001494E+02  0.59068883978E+02  0.00000000000E+00 0.  1.
</event>
<event>
 8    1  0.6901948E-009  0.1276674E+03  0.7561462E-02  0.1230958E+00
         -1   -1    0    0    0  501 -0.00000000000E+00  0.00000000000E+00  0.44840754616E+02  0.44840754616E+02  0.00000000000E+00 0.  1.
          1   -1    0    0  501    0  0.00000000000E+00 -0.00000000000E+00 -0.42996130299E+03  0.42996130299E+03  0.00000000000E+00 0. -1.
         25    2    1    2    0    0 -0.63596482645E+02 -0.28811217156E+02 -0.29677055370E+03  0.32953811651E+03  0.12509200555E+03 0.  0.
         23    2    1    2    0    0  0.63596482645E+02  0.28811217156E+02 -0.88349994674E+02  0.14526394109E+03  0.91767598774E+02 0.  0.
          5    1    3    3  502    0  0.24470462535E+02 -0.44063601998E+02 -0.14235535851E+03  0.15107258208E+03  0.41800000000E+01 0.  1.
         -5    1    3    3    0  502 -0.88066945180E+02  0.15252384842E+02 -0.15441519519E+03  0.17846553444E+03  0.41800000000E+01 0.  1.
        -11    1    4    4    0    0  0.80507783841E+02  0.44695388632E+02 -0.69368125264E+02  0.11528711041E+03  0.00000000000E+00 0.  1.
         11    1    4    4    0    0 -0.16911301196E+02 -0.15884171476E+02 -0.18981869409E+02  0.29976830685E+02  0.00000000000E+00 0. -1.
</event>
<event>
 8    1  0.6901948E-009  0.1388430E+03  0.7561462E-02  0.1214894E+00
         -1   -1    0    0    0  501 -0.00000000000E+00  0.00000000000E+00  0.22604995669E+03  0.22604995669E+03  0.00000000000E+00 0.  1.
          1   -1    0    0  501    0  0.00000000000E+00 -0.00000000000E+00 -0.14667219968E+03  0.14667219968E+03  0.00000000000E+00 0. -1.
         25    2    1    2    0    0  0.86988876618E+02 -0.61076585947E+02 -0.60831014000E+02  0.17505847925E+03  0.12509054675E+03 0.  0.
         23    2    1    2    0    0 -0.86988876618E+02  0.61076585947E+02  0.14020877100E+03  0.19766367712E+03  0.90083382378E+02 0.  0.
          5    1    3    3  502    0  0.10744916121E+03 -0.21483643522E+02 -0.68997550759E+02  0.12955695116E+03  0.41800000000E+01 0. -1.
         -5    1    3    3    0  502 -0.20460284595E+02 -0.39592942425E+02  0.81665367589E+01  0.45501528087E+02  0.41800000000E+01 0. -1.
        -11    1    4    4    0    0 -0.51492781215E+01  0.37846378344E+02  0.92617099218E+02  0.10018378355E+03  0.00000000000E+00 0.  1.
         11    1    4    4    0    0 -0.81839598496E+02  0.23230207603E+02  0.47591671786E+02  0.97479893571E+02  0.00000000000E+00 0. -1.
</event>
<event>
 8    1  0.6901948E-009  0.1236503E+03  0.7561462E-02  0.1237194E+00
         -2   -1    0    0    0  501 -0.00000000000E+00  0.00000000000E+00  0.47313828551E+02  0.47313828551E+02  0.00000000000E+00 0.  1.
          2   -1    0    0  501    0  0.00000000000E+00 -0.00000000000E+00 -0.34747677211E+03  0.34747677211E+03  0.00000000000E+00 0. -1.
         25    2    1    2    0    0  0.58553722909E+02 -0.25485568063E+02 -0.20537975824E+03  0.24880980454E+03  0.12508965223E+03 0.  0.
         23    2    1    2    0    0 -0.58553722909E+02  0.25485568063E+02 -0.94783185315E+02  0.14598079612E+03  0.90821186796E+02 0.  0.
          5    1    3    3  502    0 -0.79449628832E+01 -0.60393046207E+02 -0.62703440359E+02  0.87519348137E+02  0.41800000000E+01 0.  1.
         -5    1    3    3    0  502  0.66498685792E+02  0.34907478144E+02 -0.14267631788E+03  0.16129045640E+03  0.41800000000E+01 0.  1.
        -11    1    4    4    0    0 -0.50287020438E+02  0.58411491581E+02 -0.66123689004E+02  0.10155308474E+03  0.00000000000E+00 0. -1.
         11    1    4    4    0    0 -0.82667024710E+01 -0.32925923519E+02 -0.28659496311E+02  0.44427711376E+02  0.00000000000E+00 0.  1.
</event>
<event>
 8    1  0.6901948E-009  0.3086466E+03  0.7561462E-02  0.1080996E+00
         -1   -1    0    0    0  501 -0.00000000000E+00  0.00000000000E+00  0.35108216485E+02  0.35108216485E+02  0.00000000000E+00 0.  1.
          1   -1    0    0  501    0  0.00000000000E+00 -0.00000000000E+00 -0.30300076569E+04  0.30300076569E+04  0.00000000000E+00 0. -1.
         25    2    1    2    0    0 -0.20240273963E+03  0.22259080303E+03 -0.17826271975E+04  0.18121591509E+04  0.12509008138E+03 0.  0.
         23    2    1    2    0    0  0.20240273963E+03 -0.22259080303E+03 -0.12122722429E+04  0.12529567224E+04  0.98909164257E+02 0.  0.
          5    1    3    3  502    0 -0.13892000986E+03  0.12386544013E+03 -0.74511383431E+03  0.76801921518E+03  0.41800000000E+01 0. -1.
         -5    1    3    3    0  502 -0.63482729774E+02  0.98725362906E+02 -0.10375133632E+04  0.10441399358E+04  0.41800000000E+01 0. -1.
        -11    1    4    4    0    0  0.33843384745E+02 -0.99101825946E+02 -0.49006018757E+03  0.50112427006E+03  0.00000000000E+00 0. -1.
         11    1    4    4    0    0  0.16855935489E+03 -0.12348897709E+03 -0.72221205532E+03  0.75183245237E+03  0.00000000000E+00 0.  1.
</event>
<event>
 8    1  0.6901948E-009  0.1351406E+03  0.7561462E-02  0.1220021E+00
         -4   -1    0    0    0  501 -0.00000000000E+00  0.00000000000E+00  0.17591311371E+03  0.17591311371E+03  0.00000000000E+00 0.  1.
          4   -1    0    0  501    0  0.00000000000E+00 -0.00000000000E+00 -0.13315067836E+03  0.13315067836E+03  0.00000000000E+00 0. -1.
         25    2    1    2    0    0 -0.79951840039E+02  0.48405517945E+02 -0.29041070987E+01  0.15618477572E+03  0.12509939822E+03 0.  0.
         23    2    1    2    0    0  0.79951840039E+02 -0.48405517945E+02  0.45666542453E+02  0.15287901636E+03  0.11203200279E+03 0.  0.
          5    1    3    3  502    0 -0.91114631805E+02  0.19298468994E+02  0.41270949945E+02  0.10195621974E+03  0.41800000000E+01 0.  1.
         -5    1    3    3    0  502  0.11162791766E+02  0.29107048952E+02 -0.44175057043E+02  0.54228555978E+02  0.41800000000E+01 0.  1.
        -11    1    4    4    0    0  0.14683377002E+02 -0.74035890719E+02  0.18768086982E+02  0.77776318785E+02  0.00000000000E+00 0.  1.
         11    1    4    4    0    0  0.65268463037E+02  0.25630372774E+02  0.26898455472E+02  0.75102697571E+02  0.00000000000E+00 0. -1.
</event>
<event>
 8    1  0.6901948E-009  0.1025751E+03  0.7561462E-02  0.1274972E+00
          2   -1    0    0  501    0  0.00000000000E+00  0.00000000000E+00  0.18537357962E+03  0.18537357962E+03  0.00000000000E+00 0. -1.
         -2   -1    0    0    0  501 -0.00000000000E+00 -0.00000000000E+00 -0.81889588760E+02  0.81889588760E+02  0.00000000000E+00 0.  1.
         25    2    1    2    0    0 -0.52251069164E+02  0.27920118318E+02  0.71924201933E+02  0.15598341844E+03  0.12509208116E+03 0.  0.
         23    2    1    2    0    0  0.52251069164E+02 -0.27920118318E+02  0.31559788925E+02  0.11127974994E+03  0.88755029340E+02 0.  0.
          5    1    3    3  502    0 -0.50564363078E+02 -0.23273494000E+02  0.86155274057E+02  0.10265775170E+03  0.41800000000E+01 0. -1.
         -5    1    3    3    0  502 -0.16867060858E+01  0.51193612318E+02 -0.14231072124E+02  0.53325666741E+02  0.41800000000E+01 0. -1.
        -11    1    4    4    0    0  0.58077787716E+02  0.10551063301E+02 -0.31857056314E+01  0.59114322149E+02  0.00000000000E+00 0.  1.
         11    1    4    4    0    0 -0.58267185525E+01 -0.38471181619E+02  0.34745494556E+02  0.52165427787E+02  0.00000000000E+00 0. -1.
</event>
<event>
 8    1  0.6901948E-009  0.3473252E+03  0.7561462E-02  0.1063718E+00
         -2   -1    0    0    0  501 -0.00000000000E+00  0.00000000000E+00  0.85711503200E+02  0.85711503200E+02  0.00000000000E+00 0.  1.
          2   -1    0    0  501    0  0.00000000000E+00 -0.00000000000E+00 -0.16637447189E+04  0.16637447189E+04  0.00000000000E+00 0. -1.
         25    2    1    2    0    0 -0.26659347108E+03  0.21115548378E+03 -0.10897605949E+04  0.11484278229E+04  0.12509833346E+03 0.  0.
         23    2    1    2    0    0  0.26659347108E+03 -0.21115548378E+03 -0.48827262072E+03  0.60102839913E+03  0.84653808344E+02 0.  0.
          5    1    3    3  502    0 -0.17747654248E+03  0.19330816783E+03 -0.68478762155E+03  0.73336043656E+03  0.41800000000E+01 0.  1.
         -5    1    3    3    0  502 -0.89116928596E+02  0.17847315946E+02 -0.40497297339E+03  0.41506738636E+03  0.41800000000E+01 0.  1.
        -11    1    4    4    0    0  0.21095837872E+03 -0.15207233062E+03 -0.30648434559E+03  0.40194786401E+03  0.00000000000E+00 0.  1.
         11    1    4    4    0    0  0.55635092358E+02 -0.59083153160E+02 -0.18178827513E+03  0.19908053512E+03  0.00000000000E+00 0. -1.
</event>
<event>
 8    1  0.6901948E-009  0.1621969E+03  0.7561462E-02  0.1186239E+00
         -1   -1    0    0    0  501 -0.00000000000E+00  0.00000000000E+00  0.12130023606E+03  0.12130023606E+03  0.00000000000E+00 0.  1.
          1   -1    0    0  501    0  0.00000000000E+00 -0.00000000000E+00 -0.23287405918E+03  0.23287405918E+03  0.00000000000E+00 0. -1.
         25    2    1    2    0    0 -0.10942496887E+03  0.68246774833E+02 -0.61351026634E+02  0.18985029389E+03  0.12509092506E+03 0.  0.
         23    2    1    2    0    0  0.10942496887E+03 -0.68246774833E+02 -0.50222796488E+02  0.16432400134E+03  0.88592336253E+02 0.  0.
          5    1    3    3  502    0  0.10315023430E+02  0.56756757765E+02 -0.31423659988E+02  0.65822853686E+02  0.41800000000E+01 0.  1.
         -5    1    3    3    0  502 -0.11973999230E+03  0.11490017068E+02 -0.29927366646E+02  0.12402744020E+03  0.41800000000E+01 0.  1.
        -11    1    4    4    0    0 -0.11896648183E+01 -0.28696123038E+02  0.12306083356E+02  0.31246159242E+02  0.00000000000E+00 0.  1.
         11    1    4    4    0    0  0.11061463369E+03 -0.39550651795E+02 -0.62528879844E+02  0.13307784210E+03  0.00000000000E+00 0. -1.
</event>
<event>
 8    1  0.6901948E-009  0.1269534E+03  0.7561462E-02  0.1232048E+00
          1   -1    0    0  501    0  0.00000000000E+00  0.00000000000E+00  0.20390999139E+02  0.20390999139E+02  0.00000000000E+00 0. -1.
         -1   -1    0    0    0  501 -0.00000000000E+00 -0.00000000000E+00 -0.81779856142E+03  0.81779856142E+03  0.00000000000E+00 0.  1.
         25    2    1    2    0    0 -0.23210544251E+02  0.65963543203E+02 -0.46592998587E+03  0.48747361418E+03  0.12509937809E+03 0.  0.
         23    2    1    2    0    0  0.23210544251E+02 -0.65963543203E+02 -0.33147757641E+03  0.35071594638E+03  0.90743445938E+02 0.  0.
          5    1    3    3  502    0  0.42218781125E+02 -0.93689619217E+01 -0.13994172598E+03  0.14653109567E+03  0.41800000000E+01 0. -1.
         -5    1    3    3    0  502 -0.65429325376E+02  0.75332505124E+02 -0.32598825988E+03  0.34094251851E+03  0.41800000000E+01 0. -1.
        -11    1    4    4    0    0  0.30786362279E+02  0.11421832627E+02 -0.14510032119E+03  0.14876949141E+03  0.00000000000E+00 0.  1.
         11    1    4    4    0    0 -0.75758180280E+01 -0.77385375830E+02 -0.18637725522E+03  0.20194645497E+03  0.00000000000E+00 0. -1.
</event>
<event>
 8    1  0.6901948E-009  0.1017996E+03  0.7561462E-02  0.1276557E+00
         -2   -1    0    0    0  501 -0.00000000000E+00  0.00000000000E+00  0.10145456274E+03  0.10145456274E+03  0.00000000000E+00 0. -1.
          2   -1    0    0  501    0  0.00000000000E+00 -0.00000000000E+00 -0.15069180065E+03  0.15069180065E+03  0.00000000000E+00 0.  1.
         25    2    1    2    0    0  0.36963736842E+01 -0.45871928692E+02 -0.66416090430E+02  0.14891565914E+03  0.12508748718E+03 0.  0.
         23    2    1    2    0    0 -0.36963736842E+01  0.45871928692E+02  0.17178852524E+02  0.10323070424E+03  0.90794098399E+02 0.  0.
          5    1    3    3  502    0  0.14705483973E+02  0.33027624359E+02 -0.58304126889E+02  0.68730770707E+02  0.41800000000E+01 0.  1.
         -5    1    3    3    0  502 -0.11009110288E+02 -0.78899553051E+02 -0.81119635407E+01  0.80184888436E+02  0.41800000000E+01 0.  1.
        -11    1    4    4    0    0  0.72717875334E+00 -0.20699889487E+02  0.28833389462E+02  0.35501810681E+02  0.00000000000E+00 0.  1.
         11    1    4    4    0    0 -0.44235524375E+01  0.66571818179E+02 -0.11654536938E+02  0.67728893562E+02  0.00000000000E+00 0. -1.
</event>
<event>
 8    1  0.6901948E-009  0.1574367E+03  0.7561462E-02  0.1191621E+00
          2   -1    0    0  501    0  0.00000000000E+00  0.00000000000E+00  0.88972110600E+03  0.88972110600E+03  0.00000000000E+00 0. -1.
         -2   -1    0    0    0  501 -0.00000000000E+00 -0.00000000000E+00 -0.29047635284E+02  0.29047635284E+02  0.00000000000E+00 0.  1.
         25    2    1    2    0    0  0.81904721888E+02 -0.84350906297E+02  0.46374575308E+03  0.49450066227E+03  0.12508925866E+03 0.  0.
         23    2    1    2    0    0 -0.81904721888E+02  0.84350906297E+02  0.39692771764E+03  0.42426807901E+03  0.92888809750E+02 0.  0.
          5    1    3    3  502    0  0.54337636594E+02 -0.11283696599E+03  0.40137219695E+03  0.42047814751E+03  0.41800000000E+01 0. -1.
         -5    1    3    3    0  502  0.27567085294E+02  0.28486059696E+02  0.62373556128E+02  0.74022514768E+02  0.41800000000E+01 0. -1.
        -11    1    4    4    0    0  0.37792757453E+01  0.60697792256E+02  0.17016006360E+03  0.18070127879E+03  0.00000000000E+00 0.  1.
         11    1    4    4    0    0 -0.85683997633E+02  0.23653114041E+02  0.22676765404E+03  0.24356680023E+03  0.00000000000E+00 0. -1.
</event>
<event>
 8    1  0.6901948E-009  0.1222256E+03  0.7561462E-02  0.1239470E+00
         -2   -1    0    0    0  501 -0.00000000000E+00  0.00000000000E+00  0.11749661786E+02  0.11749661786E+02  0.00000000000E+00 0.  1.
          2   -1    0    0  501    0  0.00000000000E+00 -0.00000000000E+00 -0.13478031228E+04  0.13478031228E+04  0.00000000000E+00 0. -1.
         25    2    1    2    0    0 -0.27923141508E+02  0.51128854596E+02 -0.81915902043E+03  0.83070017378E+03  0.12508963337E+03 0.  0.
         23    2    1    2    0    0  0.27923141508E+02 -0.51128854596E+02 -0.51689444058E+03  0.52885261079E+03  0.95453442241E+02 0.  0.
          5    1    3    3  502    0 -0.36908832770E+02  0.88280478098E+02 -0.48746697847E+03  0.49678690829E+03  0.41800000000E+01 0.  1.
         -5    1    3    3    0  502  0.89856912621E+01 -0.37151623502E+02 -0.33169204195E+03  0.33391326549E+03  0.41800000000E+01 0.  1.
        -11    1    4    4    0    0  0.30845793360E+02  0.21459743933E+02 -0.13619421354E+03  0.14128286301E+03  0.00000000000E+00 0.  1.
         11    1    4    4    0    0 -0.29226518525E+01 -0.72588598529E+02 -0.38070022704E+03  0.38756974778E+03  0.00000000000E+00 0. -1.
</event>
<event>
 8    1  0.6901948E-009  0.2987786E+03  0.7561462E-02  0.1085853E+00
          2   -1    0    0  501    0  0.00000000000E+00  0.00000000000E+00  0.12247533204E+04  0.12247533204E+04  0.00000000000E+00 0. -1.
         -2   -1    0    0    0  501 -0.00000000000E+00 -0.00000000000E+00 -0.10582208256E+03  0.10582208256E+03  0.00000000000E+00 0.  1.
         25    2    1    2    0    0 -0.28391272244E+03  0.34438635437E+02  0.21750658243E+03  0.38045856385E+03  0.12508857593E+03 0.  0.
         23    2    1    2    0    0  0.28391272244E+03 -0.34438635437E+02  0.90142465543E+03  0.95011683913E+03  0.91450232401E+02 0.  0.
          5    1    3    3  502    0  0.11783106273E+02  0.66490424517E+01  0.16825916471E+02  0.21991708075E+02  0.41800000000E+01 0. -1.
         -5    1    3    3    0  502 -0.29569582871E+03  0.27789592986E+02  0.20068066596E+03  0.35846685577E+03  0.41800000000E+01 0. -1.
        -11    1    4    4    0    0  0.98319704880E+02 -0.49211795335E+01  0.18627341590E+03  0.21068642065E+03  0.00000000000E+00 0.  1.
         11    1    4    4    0    0  0.18559301756E+03 -0.29517455904E+02  0.71515123953E+03  0.73943041848E+03  0.00000000000E+00 0. -1.
</event>
<event>
 8    1  0.6901948E-009  0.1432828E+03  0.7561462E-02  0.1208979E+00
          2   -1    0    0  501    0  0.00000000000E+00  0.00000000000E+00  0.23557104183E+03  0.23557104183E+03  0.00000000000E+00 0. -1.
         -2   -1    0    0    0  501 -0.00000000000E+00 -0.00000000000E+00 -0.97020511584E+02  0.97020511584E+02  0.00000000000E+00 0.  1.
         25    2    1    2    0    0  0.66765391092E+01  0.93530045025E+02  0.12748844326E+03  0.20172494456E+03  0.12508878684E+03 0.  0.
         23    2    1    2    0    0 -0.66765391092E+01 -0.93530045025E+02  0.11062086983E+02  0.13086660886E+03  0.90615970162E+02 0.  0.
          5    1    3    3  502    0 -0.27705467252E+02 -0.21960983908E+02  0.32953061336E+02  0.48510353342E+02  0.41800000000E+01 0. -1.
         -5    1    3    3    0  502  0.34382006361E+02  0.11549102893E+03  0.94535381925E+02  0.15321459122E+03  0.41800000000E+01 0. -1.
        -11    1    4    4    0    0  0.33609302119E+02 -0.61417251136E+01  0.34130792113E+01  0.34335915395E+02  0.00000000000E+00 0.  1.
         11    1    4    4    0    0 -0.40285841228E+02 -0.87388319911E+02  0.76490077716E+01  0.96530693462E+02  0.00000000000E+00 0. -1.
</event>
<event>
 8    1  0.6901948E-009  0.1557806E+03  0.7561462E-02  0.1193545E+00
         -1   -1    0    0    0  501 -0.00000000000E+00  0.00000000000E+00  0.29937471352E+03  0.29937471352E+03  0.00000000000E+00 0.  1.
          1   -1    0    0  501    0  0.00000000000E+00 -0.00000000000E+00 -0.14101553439E+03  0.14101553439E+03  0.00000000000E+00 0. -1.
         25    2    1    2    0    0  0.68611499514E+02 -0.10416367533E+03  0.21280769104E+03  0.27657085071E+03  0.12508682174E+03 0.  0.
         23    2    1    2    0    0 -0.68611499514E+02  0.10416367533E+03 -0.54448511906E+02  0.16381939721E+03  0.91184128714E+02 0.  0.
          5    1    3    3  502    0  0.33958642213E+02  0.24682970676E+02  0.64084600836E+02  0.76725138558E+02  0.41800000000E+01 0. -1.
         -5    1    3    3    0  502  0.34652857301E+02 -0.12884664600E+03  0.14872309020E+03  0.19984571215E+03  0.41800000000E+01 0. -1.
        -11    1    4    4    0    0 -0.54514912046E+02  0.33851375562E+02 -0.64996442827E+02  0.91336350064E+02  0.00000000000E+00 0. -1.
         11    1    4    4    0    0 -0.14096587468E+02  0.70312299765E+02  0.10547930921E+02  0.72483047143E+02  0.00000000000E+00 0.  1.
</event>
<event>
 8    1  0.6901948E-009  0.1036100E+03  0.7561462E-02  0.1272883E+00
          2   -1    0    0  501    0  0.00000000000E+00  0.00000000000E+00  0.39488809081E+03  0.39488809081E+03  0.00000000000E+00 0. -1.
         -2   -1    0    0    0  501 -0.00000000000E+00 -0.00000000000E+00 -0.44146430775E+02  0.44146430775E+02  0.00000000000E+00 0.  1.
         25    2    1    2    0    0  0.28637243462E+02 -0.56389788048E+02  0.26395493366E+03  0.29886494551E+03  0.12509256070E+03 0.  0.
         23    2    1    2    0    0 -0.28637243462E+02  0.56389788048E+02  0.86786726382E+02  0.14016957608E+03  0.90087037209E+02 0.  0.
          5    1    3    3  502    0  0.25761841041E+02 -0.81514706789E+02  0.25897666981E+03  0.27275393267E+03  0.41800000000E+01 0.  1.
         -5    1    3    3    0  502  0.28754024207E+01  0.25124918741E+02  0.49782638439E+01  0.26111012844E+02  0.41800000000E+01 0.  1.
        -11    1    4    4    0    0  0.16232430297E+02  0.47577415316E+02  0.79215683570E+02  0.93820183143E+02  0.00000000000E+00 0.  1.
         11    1    4    4    0    0 -0.44869673758E+02  0.88123727313E+01  0.75710428120E+01  0.46349392937E+02  0.00000000000E+00 0. -1.
</event>
<event>
 8    1  0.6901948E-009  0.9042505E+02  0.7561462E-02  0.1301826E+00
          2   -1    0    0  501    0  0.00000000000E+00  0.00000000000E+00  0.43783999493E+03  0.43783999493E+03  0.00000000000E+00 0. -1.
         -2   -1    0    0    0  501 -0.00000000000E+00 -0.00000000000E+00 -0.32837723062E+02  0.32837723062E+02  0.00000000000E+00 0.  1.
         25    2    1    2    0    0  0.36243147517E+02  0.10509183873E+01  0.15686010644E+03  0.20387882854E+03  0.12508722382E+03 0.  0.
         23    2    1    2    0    0 -0.36243147517E+02 -0.10509183873E+01  0.24814216544E+03  0.26679888946E+03  0.91062851794E+02 0.  0.
          5    1    3    3  502    0  0.56716033953E+02 -0.13212003636E+02  0.16678033982E+03  0.17670432847E+03  0.41800000000E+01 0.  1.
         -5    1    3    3    0  502 -0.20472886437E+02  0.14262922023E+02 -0.99202333876E+01  0.27174500072E+02  0.41800000000E+01 0.  1.
        -11    1    4    4    0    0 -0.10726120246E+02 -0.45046949661E+02  0.13586004755E+03  0.14353476878E+03  0.00000000000E+00 0.  1.
         11    1    4    4    0    0 -0.25517027271E+02  0.43996031274E+02  0.11228211789E+03  0.12326412068E+03  0.00000000000E+00 0. -1.
</event>
<event>
 8    1  0.6901948E-009  0.1167430E+03  0.7561462E-02  0.1248569E+00
          2   -1    0    0  501    0  0.00000000000E+00  0.00000000000E+00  0.85594711817E+03  0.85594711817E+03  0.00000000000E+00 0. -1.
         -2   -1    0    0    0  501 -0.00000000000E+00 -0.00000000000E+00 -0.27373214085E+02  0.27373214085E+02  0.00000000000E+00 0.  1.
         25    2    1    2    0    0  0.36095060499E-01 -0.46264204693E+02  0.72999917546E+03  0.74208292000E+03  0.12509151072E+03 0.  0.
         23    2    1    2    0    0 -0.36095060499E-01  0.46264204693E+02  0.98574728625E+02  0.14123741225E+03  0.89948049211E+02 0.  0.
          5    1    3    3  502    0 -0.34085721754E+02 -0.78276606505E+02  0.42798661764E+03  0.43643909177E+03  0.41800000000E+01 0.  1.
         -5    1    3    3    0  502  0.34121816814E+02  0.32012401811E+02  0.30201255782E+03  0.30564382823E+03  0.41800000000E+01 0.  1.
        -11    1    4    4    0    0  0.38198196077E+02 -0.34085572681E+01  0.34177439511E+02  0.51369424930E+02  0.00000000000E+00 0.  1.
         11    1    4    4    0    0 -0.38234291137E+02  0.49672761961E+02  0.64397289114E+02  0.89867987320E+02  0.00000000000E+00 0. -1.
</event>
<event>
 8    1  0.6901948E-009  0.1071233E+03  0.7561462E-02  0.1265992E+00
         -2   -1    0    0    0  501 -0.00000000000E+00  0.00000000000E+00  0.10499384505E+03  0.10499384505E+03  0.00000000000E+00 0.  1.
          2   -1    0    0  501    0  0.00000000000E+00 -0.00000000000E+00 -0.12247553589E+03  0.12247553589E+03  0.00000000000E+00 0. -1.
         25    2    1    2    0    0 -0.11241388471E+02  0.16024775078E+02  0.17852669169E+02  0.12786635790E+03  0.12509166821E+03 0.  0.
         23    2    1    2    0    0  0.11241388471E+02 -0.16024775078E+02 -0.35334360016E+02  0.99603023034E+02  0.91044401083E+02 0.  0.
          5    1    3    3  502    0 -0.34488108666E+02 -0.44526636230E+02 -0.96455765733E+01  0.57293634207E+02  0.41800000000E+01 0. -1.
         -5    1    3    3    0  502  0.23246720195E+02  0.60551411307E+02  0.27498245742E+02  0.70572723697E+02  0.41800000000E+01 0. -1.
        -11    1    4    4    0    0  0.50823651129E+02 -0.22792895844E+01 -0.23651694644E+02  0.56103844205E+02  0.00000000000E+00 0.  1.
         11    1    4    4    0    0 -0.39582262658E+02 -0.13745485493E+02 -0.11682665372E+02  0.43499178829E+02  0.00000000000E+00 0. -1.
</event>
<event>
 8    1  0.6901948E-009  0.1047709E+03  0.7561462E-02  0.1270572E+00
         -2   -1    0    0    0  501 -0.00000000000E+00  0.00000000000E+00  0.64054125041E+02  0.64054125041E+02  0.00000000000E+00 0.  1.
          2   -1    0    0  501    0  0.00000000000E+00 -0.00000000000E+00 -0.21204171788E+03  0.21204171788E+03  0.00000000000E+00 0. -1.
         25    2    1    2    0    0  0.18720678475E+02 -0.11978297926E+02 -0.12754085729E+03  0.18002741811E+03  0.12509699265E+03 0.  0.
         23    2    1    2    0    0 -0.18720678475E+02  0.11978297926E+02 -0.20446735546E+02  0.96068424805E+02  0.91198299471E+02 0.  0.
          5    1    3    3  502    0  0.72274859861E+02 -0.21015916408E+01 -0.71469819904E+02  0.10175204967E+03  0.41800000000E+01 0.  1.
         -5    1    3    3    0  502 -0.53554181385E+02 -0.98767062857E+01 -0.56071037385E+02  0.78275368439E+02  0.41800000000E+01 0.  1.
        -11    1    4    4    0    0 -0.43102648149E+02 -0.15460617065E+02  0.11713738647E+02  0.47266062143E+02  0.00000000000E+00 0.  1.
         11    1    4    4    0    0  0.24381969673E+02  0.27438914992E+02 -0.32160474193E+02  0.48802362662E+02  0.00000000000E+00 0. -1.
</event>
<event>
 8    1  0.6901948E-009  0.9683697E+02  0.7561462E-02  0.1287092E+00
         -1   -1    0    0    0  501 -0.00000000000E+00  0.00000000000E+00  0.36416728089E+02  0.36416728089E+02  0.00000000000E+00 0.  1.
          1   -1    0    0  501    0  0.00000000000E+00 -0.00000000000E+00 -0.90871821559E+03  0.90871821559E+03  0.00000000000E+00 0. -1.
         25    2    1    2    0    0 -0.34896829634E+02  0.83348582573E+02 -0.75435777908E+03  0.76997902757E+03  0.12508904469E+03 0.  0.
         23    2    1    2    0    0  0.34896829634E+02 -0.83348582573E+02 -0.11794370842E+03  0.17515591611E+03  0.92758296973E+02 0.  0.
          5    1    3    3  502    0 -0.27239725759E+02  0.71040268345E+02 -0.75056532483E+03  0.75442329074E+03  0.41800000000E+01 0.  1.
         -5    1    3    3    0  502 -0.76571038746E+01  0.12308314228E+02 -0.37924542542E+01  0.15555736825E+02  0.41800000000E+01 0.  1.
        -11    1    4    4    0    0  0.34095423672E+02 -0.21017361523E+02  0.18696616733E+01  0.40096421730E+02  0.00000000000E+00 0.  1.
         11    1    4    4    0    0  0.80140596174E+00 -0.62331221050E+02 -0.11981337010E+03  0.13505949438E+03  0.00000000000E+00 0. -1.
</event>
<event>
 8    1  0.6901948E-009  0.9862975E+02  0.7561462E-02  0.1283204E+00
          1   -1    0    0  501    0  0.00000000000E+00  0.00000000000E+00  0.13196792522E+04  0.13196792522E+04  0.00000000000E+00 0. -1.
         -1   -1    0    0    0  501 -0.00000000000E+00 -0.00000000000E+00 -0.15060840704E+02  0.15060840704E+02  0.00000000000E+00 0.  1.
         25    2    1    2    0    0 -0.75499838132E+02 -0.14624683471E+01  0.90520748744E+03  0.91692416581E+03  0.12508783381E+03 0.  0.
         23    2    1    2    0    0  0.75499838132E+02  0.14624683471E+01  0.39941092407E+03  0.41781592711E+03  0.96636940670E+02 0.  0.
          5    1    3    3  502    0 -0.45964577814E+02  0.78639823826E+01  0.86368932746E+03  0.86495740439E+03  0.41800000000E+01 0.  1.
         -5    1    3    3    0  502 -0.29535260318E+02 -0.93264507298E+01  0.41518159972E+02  0.51966761422E+02  0.41800000000E+01 0.  1.
        -11    1    4    4    0    0 -0.12039544616E+02  0.25677302440E+02  0.58477735467E+02  0.64991692089E+02  0.00000000000E+00 0.  1.
         11    1    4    4    0    0  0.87539382748E+02 -0.24214834093E+02  0.34093318861E+03  0.35282423502E+03  0.00000000000E+00 0. -1.
</event>
<event>
 8    1  0.6901948E-009  0.1375746E+03  0.7561462E-02  0.1216630E+00
         -3   -1    0    0    0  501 -0.00000000000E+00  0.00000000000E+00  0.16978679910E+04  0.16978679910E+04  0.00000000000E+00 0.  1.
          3   -1    0    0  501    0  0.00000000000E+00 -0.00000000000E+00 -0.12320862131E+02  0.12320862131E+02  0.00000000000E+00 0. -1.
         25    2    1    2    0    0 -0.71735094057E+02  0.59687245694E+02  0.10634396768E+04  0.10748302099E+04  0.12509013896E+03 0.  0.
         23    2    1    2    0    0  0.71735094057E+02 -0.59687245694E+02  0.62210745206E+03  0.63535864324E+03  0.89187625899E+02 0.  0.
          5    1    3    3  502    0 -0.29925150149E+02 -0.34378450575E+02  0.19492086830E+03  0.20022240078E+03  0.41800000000E+01 0.  1.
         -5    1    3    3    0  502 -0.41809943908E+02  0.94065696269E+02  0.86851880853E+03  0.87460780913E+03  0.41800000000E+01 0.  1.
        -11    1    4    4    0    0  0.62283056786E+02  0.35805134183E+01  0.37229127914E+03  0.37748217940E+03  0.00000000000E+00 0.  1.
         11    1    4    4    0    0  0.94520372710E+01 -0.63267759112E+02  0.24981617293E+03  0.25787646385E+03  0.00000000000E+00 0. -1.
</event>
<event>
 8    1  0.6901948E-009  0.1516811E+03  0.7561462E-02  0.1198422E+00
         -2   -1    0    0    0  501 -0.00000000000E+00  0.00000000000E+00  0.42526068759E+02  0.42526068759E+02  0.00000000000E+00 0.  1.
          2   -1    0    0  501    0  0.00000000000E+00 -0.00000000000E+00 -0.97358256531E+03  0.97358256531E+03  0.00000000000E+00 0. -1.
         25    2    1    2    0    0 -0.10714563996E+03 -0.10336996186E+03 -0.70120833002E+03  0.72767188469E+03  0.12509081699E+03 0.  0.
         23    2    1    2    0    0  0.10714563996E+03  0.10336996186E+03 -0.22984816653E+03  0.28843674938E+03  0.90554080851E+02 0.  0.
          5    1    3    3  502    0 -0.16556046003E+02 -0.35307407609E+02 -0.37212159055E+02  0.54064155157E+02  0.41800000000E+01 0. -1.
         -5    1    3    3    0  502 -0.90589593960E+02 -0.68062554250E+02 -0.66399617097E+03  0.67360772953E+03  0.41800000000E+01 0. -1.
        -11    1    4    4    0    0  0.48044039797E+02  0.62799419012E+02 -0.19140253593E+03  0.20709159217E+03  0.00000000000E+00 0. -1.
         11    1    4    4    0    0  0.59101600166E+02  0.40570542847E+02 -0.38445630600E+02  0.81345157208E+02  0.00000000000E+00 0.  1.
</event>
<event>
 8    1  0.6901948E-009  0.1503348E+03  0.7561462E-02  0.1200062E+00
          2   -1    0    0  501    0  0.00000000000E+00  0.00000000000E+00  0.20554272300E+03  0.20554272300E+03  0.00000000000E+00 0. -1.
         -2   -1    0    0    0  501 -0.00000000000E+00 -0.00000000000E+00 -0.15056315414E+03  0.15056315414E+03  0.00000000000E+00 0.  1.
         25    2    1    2    0    0  0.32240657019E+02  0.10777397007E+03  0.11069499554E+03  0.20138442844E+03  0.12509043685E+03 0.  0.
         23    2    1    2    0    0 -0.32240657019E+02 -0.10777397007E+03 -0.55715426678E+02  0.15472144871E+03  0.90442408915E+02 0.  0.
          5    1    3    3  502    0  0.49731105056E+02  0.12735326107E+03  0.72387573212E+02  0.15475616004E+03  0.41800000000E+01 0.  1.
         -5    1    3    3    0  502 -0.17490448037E+02 -0.19579290999E+02  0.38307422323E+02  0.46628268396E+02  0.41800000000E+01 0.  1.
        -11    1    4    4    0    0  0.24999188850E+02 -0.17893795913E+02  0.63680465864E+01  0.31395849928E+02  0.00000000000E+00 0.  1.
         11    1    4    4    0    0 -0.57239845870E+02 -0.89880174157E+02 -0.62083473264E+02  0.12332559878E+03  0.00000000000E+00 0. -1.
</event>
<event>
 8    1  0.6901948E-009  0.1260674E+03  0.7561462E-02  0.1233410E+00
          1   -1    0    0  501    0  0.00000000000E+00  0.00000000000E+00  0.12697247874E+03  0.12697247874E+03  0.00000000000E+00 0. -1.
         -1   -1    0    0    0  501 -0.00000000000E+00 -0.00000000000E+00 -0.16456373117E+03  0.16456373117E+03  0.00000000000E+00 0.  1.
         25    2    1    2    0    0 -0.74260658593E+02  0.36368430767E+02  0.27582129873E+02  0.15246747395E+03  0.12509295965E+03 0.  0.
         23    2    1    2    0    0  0.74260658593E+02 -0.36368430767E+02 -0.65173382309E+02  0.13906873596E+03  0.90858325915E+02 0.  0.
          5    1    3    3  502    0  0.14766542059E+02  0.41329909640E+02  0.43341527670E+02  0.61823722114E+02  0.41800000000E+01 0.  1.
         -5    1    3    3    0  502 -0.89027200651E+02 -0.49614788728E+01 -0.15759397797E+02  0.90643751839E+02  0.41800000000E+01 0.  1.
        -11    1    4    4    0    0  0.60052389362E+01 -0.49002786578E+02 -0.99391191272E+01  0.50359925299E+02  0.00000000000E+00 0. -1.
         11    1    4    4    0    0  0.68255419656E+02  0.12634355810E+02 -0.55234263182E+02  0.88708810658E+02  0.00000000000E+00 0.  1.
</event>
<event>
 8    1  0.6901948E-009  0.1010166E+03  0.7561462E-02  0.1278173E+00
          2   -1    0    0  501    0  0.00000000000E+00  0.00000000000E+00  0.57421394159E+03  0.57421394159E+03  0.00000000000E+00 0. -1.
         -2   -1    0    0    0  501 -0.00000000000E+00 -0.00000000000E+00 -0.20687403846E+02  0.20687403846E+02  0.00000000000E+00 0.  1.
         25    2    1    2    0    0  0.18067576226E+01  0.68694429604E+01  0.30894091385E+03  0.33337994425E+03  0.12508894978E+03 0.  0.
         23    2    1    2    0    0 -0.18067576226E+01 -0.68694429604E+01  0.24458562390E+03  0.26152140119E+03  0.92308516633E+02 0.  0.
          5    1    3    3  502    0  0.46719965557E+02 -0.32805494962E+02  0.20971385769E+03  0.21738521153E+03  0.41800000000E+01 0.  1.
         -5    1    3    3    0  502 -0.44913207934E+02  0.39674937923E+02  0.99227056155E+02  0.11599473272E+03  0.41800000000E+01 0.  1.
        -11    1    4    4    0    0  0.35018659330E+02  0.18881123623E+02  0.16871492446E+03  0.17334223105E+03  0.00000000000E+00 0. -1.
         11    1    4    4    0    0 -0.36825416952E+02 -0.25750566584E+02  0.75870699442E+02  0.88179170142E+02  0.00000000000E+00 0.  1.
</event>
<event>
 8    1  0.6901948E-009  0.8735328E+02  0.7561462E-02  0.1309391E+00
         -1   -1    0    0    0  501 -0.00000000000E+00  0.00000000000E+00  0.17301903401E+03  0.17301903401E+03  0.00000000000E+00 0.  1.
          1   -1    0    0  501    0  0.00000000000E+00 -0.00000000000E+00 -0.76160431899E+02  0.76160431899E+02  0.00000000000E+00 0. -1.
         25    2    1    2    0    0 -0.25172509063E+02 -0.30687733891E+02  0.53831699077E+02  0.14184672015E+03  0.12508896022E+03 0.  0.
         23    2    1    2    0    0  0.25172509063E+02  0.30687733891E+02  0.43026903037E+02  0.10733274576E+03  0.89964502465E+02 0.  0.
          5    1    3    3  502    0 -0.59357542630E+02 -0.50849805247E+02  0.45095918503E+01  0.78401717962E+02  0.41800000000E+01 0.  1.
         -5    1    3    3    0  502  0.34185033567E+02  0.20162071356E+02  0.49322107226E+02  0.63445002188E+02  0.41800000000E+01 0.  1.
        -11    1    4    4    0    0 -0.10824675521E+02  0.33666289569E+01  0.58483009681E+02  0.59571555393E+02  0.00000000000E+00 0.  1.
         11    1    4    4    0    0  0.35997184584E+02  0.27321104934E+02 -0.15456106644E+02  0.47761190368E+02  0.00000000000E+00 0. -1.
</event>
<event>
 8    1  0.6901948E-009  0.1592825E+03  0.7561462E-02  0.1189509E+00
          2   -1    0    0  501    0  0.00000000000E+00  0.00000000000E+00  0.90048124959E+03  0.90048124959E+03  0.00000000000E+00 0. -1.
         -2   -1    0    0    0  501 -0.00000000000E+00 -0.00000000000E+00 -0.32165364164E+02  0.32165364164E+02  0.00000000000E+00 0.  1.
         25    2    1    2    0    0 -0.71239284485E+02  0.99987214246E+02  0.33613088474E+03  0.37908385808E+03  0.12509245028E+03 0.  0.
         23    2    1    2    0    0  0.71239284485E+02 -0.99987214246E+02  0.53218500069E+03  0.55356275567E+03  0.90212919491E+02 0.  0.
          5    1    3    3  502    0 -0.95527899653E+02  0.43978702410E+02  0.26568798855E+03  0.28577488612E+03  0.41800000000E+01 0.  1.
         -5    1    3    3    0  502  0.24288615168E+02  0.56008511836E+02  0.70442896184E+02  0.93308971957E+02  0.41800000000E+01 0.  1.
        -11    1    4    4    0    0  0.70866131015E+02 -0.22092339442E+02  0.27474495260E+03  0.28459597496E+03  0.00000000000E+00 0.  1.
         11    1    4    4    0    0  0.37315347009E+00 -0.77894874804E+02  0.25744004809E+03  0.26896678071E+03  0.00000000000E+00 0. -1.
</event>
<event>
 8    1  0.6901948E-009  0.1315656E+03  0.7561462E-02  0.1225151E+00
         -2   -1    0    0    0  501 -0.00000000000E+00  0.00000000000E+00  0.32364284994E+03  0.32364284994E+03  0.00000000000E+00 0.  1.
          2   -1    0    0  501    0  0.00000000000E+00 -0.00000000000E+00 -0.75251266656E+02  0.75251266656E+02  0.00000000000E+00 0. -1.
         25    2    1    2    0    0  0.63285943437E+02  0.79154417257E+02  0.19401497278E+03  0.25211149116E+03  0.12509141419E+03 0.  0.
         23    2    1    2    0    0 -0.63285943437E+02 -0.79154417257E+02  0.54376610510E+02  0.14678262544E+03  0.91201924066E+02 0.  0.
          5    1    3    3  502    0  0.17834806334E+02  0.92380065616E+02  0.64485808398E+02  0.11414047803E+03  0.41800000000E+01 0. -1.
         -5    1    3    3    0  502  0.45451137104E+02 -0.13225648359E+02  0.12952916438E+03  0.13797101313E+03  0.41800000000E+01 0. -1.
        -11    1    4    4    0    0 -0.14838903728E+02  0.11413434015E+02 -0.14014285443E+02  0.23385032314E+02  0.00000000000E+00 0. -1.
         11    1    4    4    0    0 -0.48447039709E+02 -0.90567851272E+02  0.68390895953E+02  0.12339759313E+03  0.00000000000E+00 0.  1.
</event>
<event>
 8    1  0.6901948E-009  0.1445728E+03  0.7561462E-02  0.1207305E+00
          2   -1    0    0  501    0  0.00000000000E+00  0.00000000000E+00  0.72869915853E+02  0.72869915853E+02  0.00000000000E+00 0. -1.
         -2   -1    0    0    0  501 -0.00000000000E+00 -0.00000000000E+00 -0.41158603947E+03  0.41158603947E+03  0.00000000000E+00 0.  1.
         25    2    1    2    0    0 -0.89422563005E+02 -0.10013338742E+03 -0.16889018716E+03  0.24940269554E+03  0.12511882022E+03 0.  0.
         23    2    1    2    0    0  0.89422563005E+02  0.10013338742E+03 -0.16982593646E+03  0.23505325978E+03  0.91575630988E+02 0.  0.
          5    1    3    3  502    0 -0.97756963155E+02 -0.73345360339E+02 -0.18110233706E+03  0.21852115371E+03  0.41800000000E+01 0. -1.
         -5    1    3    3    0  502  0.83344001493E+01 -0.26788027081E+02  0.12212149901E+02  0.30881541832E+02  0.41800000000E+01 0. -1.
        -11    1    4    4    0    0  0.23325680594E+02  0.51184059074E+02 -0.12643275056E+02  0.57651952982E+02  0.00000000000E+00 0.  1.
         11    1    4    4    0    0  0.66096882411E+02  0.48949328346E+02 -0.15718266140E+03  0.17740130680E+03  0.00000000000E+00 0. -1.
</event>
<event>
 8    1  0.6901948E-009  0.9442166E+02  0.7561462E-02  0.1292484E+00
          1   -1    0    0  501    0  0.00000000000E+00  0.00000000000E+00  0.10542119567E+03  0.10542119567E+03  0.00000000000E+00 0. -1.
         -1   -1    0    0    0  501 -0.00000000000E+00 -0.00000000000E+00 -0.12873439087E+03  0.12873439087E+03  0.00000000000E+00 0.  1.
         25    2    1    2    0    0  0.43963601055E+02  0.10762776392E+02 -0.18466082790E+02  0.13430023829E+03  0.12508765814E+03 0.  0.
         23    2    1    2    0    0 -0.43963601055E+02 -0.10762776392E+02 -0.48471124130E+01  0.99855348241E+02  0.88876096338E+02 0.  0.
          5    1    3    3  502    0 -0.12991368837E+02 -0.26386789162E+02 -0.50831009374E+02  0.58875310790E+02  0.41800000000E+01 0. -1.
         -5    1    3    3    0  502  0.56954969892E+02  0.37149565554E+02  0.32364926584E+02  0.75424927504E+02  0.41800000000E+01 0. -1.
        -11    1    4    4    0    0  0.22182904419E+02  0.55773783456E+01 -0.19622444779E+02  0.30136833556E+02  0.00000000000E+00 0.  1.
         11    1    4    4    0    0 -0.66146505474E+02 -0.16340154738E+02  0.14775332366E+02  0.69718514685E+02  0.00000000000E+00 0. -1.
</event>
<event>
 8    1  0.6901948E-009  0.8665824E+02  0.7561462E-02  0.1311152E+00
          1   -1    0    0  501    0  0.00000000000E+00  0.00000000000E+00  0.28863597050E+03  0.28863597050E+03  0.00000000000E+00 0. -1.
         -1   -1    0    0    0  501 -0.00000000000E+00 -0.00000000000E+00 -0.11595059284E+03  0.11595059284E+03  0.00000000000E+00 0.  1.
         25    2    1    2    0    0 -0.76463705114E+01  0.69627656317E+02  0.23736808977E+03  0.27730452619E+03  0.12509081779E+03 0.  0.
         23    2    1    2    0    0  0.76463705114E+01 -0.69627656317E+02 -0.64682712111E+02  0.12728203715E+03  0.84323106143E+02 0.  0.
          5    1    3    3  502    0  0.14734927435E+01 -0.16222009496E+02 -0.69135838196E+01  0.18182266476E+02  0.41800000000E+01 0. -1.
         -5    1    3    3    0  502 -0.91198632549E+01  0.85849665813E+02  0.24428167359E+03  0.25912225971E+03  0.41800000000E+01 0. -1.
        -11    1    4    4    0    0  0.51793040010E+01 -0.53598997672E+02 -0.85407690827E+02  0.10096609032E+03  0.00000000000E+00 0.  1.
         11    1    4    4    0    0  0.24670665104E+01 -0.16028658645E+02  0.20724978716E+02  0.26315946837E+02  0.00000000000E+00 0. -1.
</event>
<event>
 8    1  0.6901948E-009  0.1702012E+03  0.7561462E-02  0.1177638E+00
         -2   -1    0    0    0  501 -0.00000000000E+00  0.00000000000E+00  0.49981400881E+03  0.49981400881E+03  0.00000000000E+00 0.  1.
          2   -1    0    0  501    0  0.00000000000E+00 -0.00000000000E+00 -0.82912983626E+02  0.82912983626E+02  0.00000000000E+00 0. -1.
         25    2    1    2    0    0  0.14606770176E+03  0.80007879246E+02  0.27535416573E+03  0.34525942119E+03  0.12508843712E+03 0.  0.
         23    2    1    2    0    0 -0.14606770176E+03 -0.80007879246E+02  0.14154685946E+03  0.23746757124E+03  0.92834798059E+02 0.  0.
          5    1    3    3  502    0  0.44529851915E+02  0.51677797290E+02  0.23617677735E+02  0.72310231267E+02  0.41800000000E+01 0.  1.
         -5    1    3    3    0  502  0.10153784985E+03  0.28330081956E+02  0.25173648799E+03  0.27294918993E+03  0.41800000000E+01 0.  1.
        -11    1    4    4    0    0 -0.43640012859E+02 -0.22752495484E+02 -0.52949792362E+01  0.49499127045E+02  0.00000000000E+00 0. -1.
         11    1    4    4    0    0 -0.10242768890E+03 -0.57255383762E+02  0.14684183869E+03  0.18796844420E+03  0.00000000000E+00 0.  1.
</event>
<event>
 8    1  0.6901948E-009  0.1772298E+03  0.7561462E-02  0.1170511E+00
         -2   -1    0    0    0  501 -0.00000000000E+00  0.00000000000E+00  0.48033342174E+02  0.48033342174E+02  0.00000000000E+00 0. -1.
          2   -1    0    0  501    0  0.00000000000E+00 -0.00000000000E+00 -0.75646844771E+03  0.75646844771E+03  0.00000000000E+00 0.  1.
         25    2    1    2    0    0  0.14188976544E+03 -0.62725596665E+02 -0.33072632079E+03  0.38613209936E+03  0.12510352867E+03 0.  0.
         23    2    1    2    0    0 -0.14188976544E+03  0.62725596665E+02 -0.37770878475E+03  0.41836969052E+03  0.91115672949E+02 0.  0.
          5    1    3    3  502    0  0.16277234196E+03 -0.39093375573E+02 -0.27551467121E+03  0.32241112538E+03  0.41800000000E+01 0. -1.
         -5    1    3    3    0  502 -0.20882576519E+02 -0.23632221092E+02 -0.55211649576E+02  0.63720973978E+02  0.41800000000E+01 0. -1.
        -11    1    4    4    0    0 -0.88836880304E+02  0.41502575991E+02 -0.12284679203E+03  0.15718075400E+03  0.00000000000E+00 0. -1.
         11    1    4    4    0    0 -0.53052885133E+02  0.21223020675E+02 -0.25486199273E+03  0.26118893653E+03  0.00000000000E+00 0.  1.
</event>
<event>
 8    1  0.6901948E-009  0.1184253E+03  0.7561462E-02  0.1245718E+00
         -1   -1    0    0    0  501 -0.00000000000E+00  0.00000000000E+00  0.37426659746E+02  0.37426659746E+02  0.00000000000E+00 0. -1.
          1   -1    0    0  501    0  0.00000000000E+00 -0.00000000000E+00 -0.63533524917E+03  0.63533524917E+03  0.00000000000E+00 0.  1.
         25    2    1    2    0    0  0.88954595423E+02 -0.55039782405E+02 -0.40947180937E+03  0.44074627949E+03  0.12509125677E+03 0.  0.
         23    2    1    2    0    0 -0.88954595423E+02  0.55039782405E+02 -0.18843678005E+03  0.23201562942E+03  0.85910037402E+02 0.  0.
          5    1    3    3  502    0  0.92508590834E+02 -0.70122414492E+02 -0.40847071827E+03  0.42466550658E+03  0.41800000000E+01 0. -1.
         -5    1    3    3    0  502 -0.35539954107E+01  0.15082632087E+02 -0.10010910987E+01  0.16080772912E+02  0.41800000000E+01 0. -1.
        -11    1    4    4    0    0 -0.79660707280E+02  0.50287793922E+02 -0.19709640294E+03  0.21845292984E+03  0.00000000000E+00 0.  1.
         11    1    4    4    0    0 -0.92938881432E+01  0.47519884831E+01  0.86596228928E+01  0.13562699584E+02  0.00000000000E+00 0. -1.
</event>
<event>
 8    1  0.6901948E-009  0.9235497E+02  0.7561462E-02  0.1297247E+00
          1   -1    0    0  501    0  0.00000000000E+00  0.00000000000E+00  0.29514771773E+03  0.29514771773E+03  0.00000000000E+00 0. -1.
         -1   -1    0    0    0  501 -0.00000000000E+00 -0.00000000000E+00 -0.57038485076E+02  0.57038485076E+02  0.00000000000E+00 0.  1.
         25    2    1    2    0    0  0.48886110965E+02 -0.42136590662E+02  0.17667941610E+03  0.22589557759E+03  0.12509137375E+03 0.  0.
         23    2    1    2    0    0 -0.48886110965E+02  0.42136590662E+02  0.61429816562E+02  0.12629062522E+03  0.89500589591E+02 0.  0.
          5    1    3    3  502    0 -0.17750686292E+02 -0.40431463200E+02  0.88003525789E+01  0.45218455146E+02  0.41800000000E+01 0. -1.
         -5    1    3    3    0  502  0.66636797257E+02 -0.17051274621E+01  0.16787906352E+03  0.18067712245E+03  0.41800000000E+01 0. -1.
        -11    1    4    4    0    0 -0.29485711728E+02  0.26909585312E+01 -0.18612110436E+02  0.34972261992E+02  0.00000000000E+00 0.  1.
         11    1    4    4    0    0 -0.19400399237E+02  0.39445632131E+02  0.80041926998E+02  0.91318363226E+02  0.00000000000E+00 0. -1.
</event>
<event>
 8    1  0.6901948E-009  0.1183368E+03  0.7561462E-02  0.1245866E+00
         -1   -1    0    0    0  501 -0.00000000000E+00  0.00000000000E+00  0.80121562506E+02  0.80121562506E+02  0.00000000000E+00 0.  1.
          1   -1    0    0  501    0  0.00000000000E+00 -0.00000000000E+00 -0.29071589530E+03  0.29071589530E+03  0.00000000000E+00 0. -1.
         25    2    1    2    0    0 -0.80473565880E+02  0.23648245508E+02 -0.19386306710E+03  0.24549010439E+03  0.12508904128E+03 0.  0.
         23    2    1    2    0    0  0.80473565880E+02 -0.23648245508E+02 -0.16731265696E+02  0.12534735341E+03  0.91633997155E+02 0.  0.
          5    1    3    3  502    0  0.14061130395E+02  0.39190479612E+02 -0.11145149147E+03  0.11904837854E+03  0.41800000000E+01 0.  1.
         -5    1    3    3    0  502 -0.94534696275E+02 -0.15542234104E+02 -0.82411575621E+02  0.12644172585E+03  0.41800000000E+01 0.  1.
        -11    1    4    4    0    0  0.62324206292E+02  0.76104473616E+01 -0.46816094433E+02  0.78319680139E+02  0.00000000000E+00 0. -1.
         11    1    4    4    0    0  0.18149359588E+02 -0.31258692870E+02  0.30084828737E+02  0.47027673274E+02  0.00000000000E+00 0.  1.
</event>
<event>
 8    1  0.6901948E-009  0.1520434E+03  0.7561462E-02  0.1197984E+00
          2   -1    0    0  501    0  0.00000000000E+00  0.00000000000E+00  0.11544351835E+04  0.11544351835E+04  0.00000000000E+00 0. -1.
         -2   -1    0    0    0  501 -0.00000000000E+00 -0.00000000000E+00 -0.21303507781E+02  0.21303507781E+02  0.00000000000E+00 0.  1.
         25    2    1    2    0    0 -0.11351445313E+03 -0.96742705552E+01  0.62109584217E+03  0.64372768704E+03  0.12508464063E+03 0.  0.
         23    2    1    2    0    0  0.11351445313E+03  0.96742705552E+01  0.51203583351E+03  0.53201100420E+03  0.88746218018E+02 0.  0.
          5    1    3    3  502    0 -0.24591388187E+01 -0.43313553047E+02  0.88858101019E+02  0.98971439102E+02  0.41800000000E+01 0.  1.
         -5    1    3    3    0  502 -0.11105531431E+03  0.33639282491E+02  0.53223774115E+03  0.54475624794E+03  0.41800000000E+01 0.  1.
        -11    1    4    4    0    0  0.61389924994E+02  0.49443978976E+02  0.27473015038E+03  0.28581477477E+03  0.00000000000E+00 0. -1.
         11    1    4    4    0    0  0.52124528135E+02 -0.39769708421E+02  0.23730568312E+03  0.24619622943E+03  0.00000000000E+00 0.  1.
</event>
<event>
 8    1  0.6901948E-009  0.2034223E+03  0.7561462E-02  0.1146883E+00
         -2   -1    0    0    0  501 -0.00000000000E+00  0.00000000000E+00  0.45915260060E+03  0.45915260060E+03  0.00000000000E+00 0.  1.
          2   -1    0    0  501    0  0.00000000000E+00 -0.00000000000E+00 -0.11429735570E+03  0.11429735570E+03  0.00000000000E+00 0. -1.
         25    2    1    2    0    0  0.87347833441E+02  0.18042642004E+03  0.20225999942E+03  0.31102988414E+03  0.12508854626E+03 0.  0.
         23    2    1    2    0    0 -0.87347833441E+02 -0.18042642004E+03  0.14259524548E+03  0.26242007216E+03  0.91364945036E+02 0.  0.
          5    1    3    3  502    0  0.13318008256E+02  0.10686764730E+02  0.95774504904E+02  0.97374557631E+02  0.41800000000E+01 0.  1.
         -5    1    3    3    0  502  0.74029825184E+02  0.16973965531E+03  0.10648549452E+03  0.21365532651E+03  0.41800000000E+01 0.  1.
        -11    1    4    4    0    0 -0.61452876314E+02 -0.83283582157E+02  0.22717113637E+02  0.10596545813E+03  0.00000000000E+00 0. -1.
         11    1    4    4    0    0 -0.25894957126E+02 -0.97142837884E+02  0.11987813184E+03  0.15645461403E+03  0.00000000000E+00 0.  1.
</event>
<event>
 8    1  0.6901948E-009  0.1637155E+03  0.7561462E-02  0.1184565E+00
          1   -1    0    0  501    0  0.00000000000E+00  0.00000000000E+00  0.21157534284E+04  0.21157534284E+04  0.00000000000E+00 0. -1.
         -1   -1    0    0    0  501 -0.00000000000E+00 -0.00000000000E+00 -0.14935405830E+02  0.14935405830E+02  0.00000000000E+00 0.  1.
         25    2    1    2    0    0  0.11839060772E+03  0.39578986453E+02  0.15027754992E+04  0.15131322447E+04  0.12510858053E+03 0.  0.
         23    2    1    2    0    0 -0.11839060772E+03 -0.39578986453E+02  0.59804252336E+03  0.61755658948E+03  0.90213354302E+02 0.  0.
          5    1    3    3  502    0 -0.19550101038E+02  0.30203682257E+02  0.22573900826E+03  0.22862642263E+03  0.41800000000E+01 0. -1.
         -5    1    3    3    0  502  0.13794070876E+03  0.93753041958E+01  0.12770364909E+04  0.12845058221E+04  0.41800000000E+01 0. -1.
        -11    1    4    4    0    0 -0.23738931912E+02  0.27909691224E+02  0.17754172981E+03  0.18128307582E+03  0.00000000000E+00 0.  1.
         11    1    4    4    0    0 -0.94651675807E+02 -0.67488677677E+02  0.42050079354E+03  0.43627351366E+03  0.00000000000E+00 0. -1.
</event>
<event>
 8    1  0.6901948E-009  0.8864328E+02  0.7561462E-02  0.1306171E+00
          1   -1    0    0  501    0  0.00000000000E+00  0.00000000000E+00  0.51251477207E+02  0.51251477207E+02  0.00000000000E+00 0. -1.
         -1   -1    0    0    0  501 -0.00000000000E+00 -0.00000000000E+00 -0.32146116751E+03  0.32146116751E+03  0.00000000000E+00 0.  1.
         25    2    1    2    0    0  0.33994778556E+02  0.12716714477E+01 -0.22584496161E+03  0.26040632690E+03  0.12509295059E+03 0.  0.
         23    2    1    2    0    0 -0.33994778556E+02 -0.12716714477E+01 -0.44364728690E+02  0.11230631781E+03  0.97402349827E+02 0.  0.
          5    1    3    3  502    0 -0.34873873472E+02 -0.32731909774E+02 -0.12254218127E+03  0.13161163915E+03  0.41800000000E+01 0. -1.
         -5    1    3    3    0  502  0.68868652028E+02  0.34003581221E+02 -0.10330278034E+03  0.12879468776E+03  0.41800000000E+01 0. -1.
        -11    1    4    4    0    0 -0.18255907599E+01  0.15822408702E+02  0.27475194337E+02  0.31757954950E+02  0.00000000000E+00 0. -1.
         11    1    4    4    0    0 -0.32169187796E+02 -0.17094080150E+02 -0.71839923027E+02  0.80548362864E+02  0.00000000000E+00 0.  1.
</event>
<event>
 8    1  0.6901948E-009  0.9016421E+02  0.7561462E-02  0.1302455E+00
          2   -1    0    0  501    0  0.00000000000E+00  0.00000000000E+00  0.65445437070E+02  0.65445437070E+02  0.00000000000E+00 0. -1.
         -2   -1    0    0    0  501 -0.00000000000E+00 -0.00000000000E+00 -0.18931810382E+03  0.18931810382E+03  0.00000000000E+00 0.  1.
         25    2    1    2    0    0 -0.16434017365E+02 -0.11099814491E+02 -0.43450935000E+02  0.13389898749E+03  0.12509065628E+03 0.  0.
         23    2    1    2    0    0  0.16434017365E+02  0.11099814491E+02 -0.80421731746E+02  0.12086455340E+03  0.88018762335E+02 0.  0.
          5    1    3    3  502    0  0.52743040473E+02 -0.12843881958E+02 -0.33335246056E+02  0.63839679289E+02  0.41800000000E+01 0.  1.
         -5    1    3    3    0  502 -0.69177057838E+02  0.17440674666E+01 -0.10115688944E+02  0.70059308198E+02  0.41800000000E+01 0.  1.
        -11    1    4    4    0    0 -0.18643734329E+02 -0.27495669662E+01 -0.80983772866E+02  0.83147582141E+02  0.00000000000E+00 0.  1.
         11    1    4    4    0    0  0.35077751695E+02  0.13849381457E+02  0.56204112050E+00  0.37716971259E+02  0.00000000000E+00 0. -1.
</event>
<event>
 8    1  0.6901948E-009  0.5551565E+02  0.7561462E-02  0.1417676E+00
          1   -1    0    0  501    0  0.00000000000E+00  0.00000000000E+00  0.37280289414E+02  0.37280289414E+02  0.00000000000E+00 0. -1.
         -1   -1    0    0    0  501 -0.00000000000E+00 -0.00000000000E+00 -0.32228392181E+03  0.32228392181E+03  0.00000000000E+00 0.  1.
         25    2    1    2    0    0 -0.14619592280E+02 -0.98365574549E+01 -0.21306294651E+03  0.24769671245E+03  0.12508937541E+03 0.  0.
         23    2    1    2    0    0  0.14619592280E+02  0.98365574549E+01 -0.71940685890E+02  0.11186749878E+03  0.83835461804E+02 0.  0.
          5    1    3    3  502    0  0.17331043692E+01  0.22131289570E+02 -0.21022531585E+03  0.21143545931E+03  0.41800000000E+01 0.  1.
         -5    1    3    3    0  502 -0.16352696649E+02 -0.31967847025E+02 -0.28376306557E+01  0.36261253134E+02  0.41800000000E+01 0.  1.
        -11    1    4    4    0    0 -0.18342509291E+02  0.46685785918E+01 -0.75940640946E+02  0.78263811691E+02  0.00000000000E+00 0.  1.
         11    1    4    4    0    0  0.32962101571E+02  0.51679788631E+01  0.39999550559E+01  0.33603687089E+02  0.00000000000E+00 0. -1.
</event>
<event>
 8    1  0.6901948E-009  0.2585391E+03  0.7561462E-02  0.1108024E+00
          2   -1    0    0  501    0  0.00000000000E+00  0.00000000000E+00  0.42265205700E+03  0.42265205700E+03  0.00000000000E+00 0. -1.
         -2   -1    0    0    0  501 -0.00000000000E+00 -0.00000000000E+00 -0.18655313605E+03  0.18655313605E+03  0.00000000000E+00 0.  1.
         25    2    1    2    0    0 -0.24385715621E+03  0.29147403101E+02  0.20779305636E+03  0.34517112034E+03  0.12509701955E+03 0.  0.
         23    2    1    2    0    0  0.24385715621E+03 -0.29147403101E+02  0.28305864589E+02  0.26403407272E+03  0.92719393039E+02 0.  0.
          5    1    3    3  502    0 -0.16103904669E+00 -0.73741820391E+01  0.54016717082E+02  0.54677990258E+02  0.41800000000E+01 0. -1.
         -5    1    3    3    0  502 -0.24369611716E+03  0.36521585140E+02  0.15377633928E+03  0.29049313008E+03  0.41800000000E+01 0. -1.
        -11    1    4    4    0    0  0.90603996143E+02 -0.56065761463E+02  0.46728687154E+01  0.10665031377E+03  0.00000000000E+00 0.  1.
         11    1    4    4    0    0  0.15325316007E+03  0.26918358362E+02  0.23632995874E+02  0.15738375895E+03  0.00000000000E+00 0. -1.
</event>
<event>
 8    1  0.6901948E-009  0.9623655E+02  0.7561462E-02  0.1288415E+00
          1   -1    0    0  501    0  0.00000000000E+00  0.00000000000E+00  0.69486067120E+02  0.69486067120E+02  0.00000000000E+00 0. -1.
         -1   -1    0    0    0  501 -0.00000000000E+00 -0.00000000000E+00 -0.21518146815E+03  0.21518146815E+03  0.00000000000E+00 0.  1.
         25    2    1    2    0    0 -0.12812814092E+02  0.18100245833E+02 -0.22285747594E+02  0.12897449035E+03  0.12508388189E+03 0.  0.
         23    2    1    2    0    0  0.12812814092E+02 -0.18100245833E+02 -0.12340965343E+03  0.15569304492E+03  0.92296232711E+02 0.  0.
          5    1    3    3  502    0 -0.57799799073E+02  0.45785898279E+02 -0.94896078836E+01  0.74462677308E+02  0.41800000000E+01 0. -1.
         -5    1    3    3    0  502  0.44986984981E+02 -0.27685652446E+02 -0.12796139711E+02  0.54511813037E+02  0.41800000000E+01 0. -1.
        -11    1    4    4    0    0  0.11213887075E+02  0.22424802890E+02 -0.11023487791E+03  0.11305021608E+03  0.00000000000E+00 0.  1.
         11    1    4    4    0    0  0.15989270161E+01 -0.40525048723E+02 -0.13174775524E+02  0.42642828842E+02  0.00000000000E+00 0. -1.
</event>
<event>
 8    1  0.6901948E-009  0.1044779E+03  0.7561462E-02  0.1271152E+00
         -3   -1    0    0    0  501 -0.00000000000E+00  0.00000000000E+00  0.18744766385E+03  0.18744766385E+03  0.00000000000E+00 0.  1.
          3   -1    0    0  501    0  0.00000000000E+00 -0.00000000000E+00 -0.77172895249E+02  0.77172895249E+02  0.00000000000E+00 0. -1.
         25    2    1    2    0    0 -0.21973527313E+02  0.23635345315E+02  0.16443536097E+02  0.13023598897E+03  0.12509819140E+03 0.  0.
         23    2    1    2    0    0  0.21973527313E+02 -0.23635345315E+02  0.93831232508E+02  0.13438457014E+03  0.90628069859E+02 0.  0.
          5    1    3    3  502    0 -0.39168469944E+02 -0.37033910831E+02 -0.19568315727E+02  0.57498443192E+02  0.41800000000E+01 0.  1.
         -5    1    3    3    0  502  0.17194942631E+02  0.60669256145E+02  0.36011851823E+02  0.72737545773E+02  0.41800000000E+01 0.  1.
        -11    1    4    4    0    0 -0.12284386569E+02 -0.48068933952E+02  0.70687807676E+02  0.86361419157E+02  0.00000000000E+00 0.  1.
         11    1    4    4    0    0  0.34257913882E+02  0.24433588637E+02  0.23143424832E+02  0.48023150981E+02  0.00000000000E+00 0. -1.
</event>
<event>
 8    1  0.6901948E-009  0.1162816E+03  0.7561462E-02  0.1249360E+00
          2   -1    0    0  501    0  0.00000000000E+00  0.00000000000E+00  0.11509132304E+03  0.11509132304E+03  0.00000000000E+00 0. -1.
         -2   -1    0    0    0  501 -0.00000000000E+00 -0.00000000000E+00 -0.12633073228E+03  0.12633073228E+03  0.00000000000E+00 0.  1.
         25    2    1    2    0    0  0.23073047486E+02  0.49436415907E+02  0.60323337740E+01  0.13660288006E+03  0.12509049944E+03 0.  0.
         23    2    1    2    0    0 -0.23073047486E+02 -0.49436415907E+02 -0.17271743014E+02  0.10481917526E+03  0.87820394311E+02 0.  0.
          5    1    3    3  502    0  0.69667602925E+02  0.51018067955E+02 -0.10219108923E+02  0.87053551004E+02  0.41800000000E+01 0. -1.
         -5    1    3    3    0  502 -0.46594555439E+02 -0.15816520478E+01  0.16251442697E+02  0.49549329052E+02  0.41800000000E+01 0. -1.
        -11    1    4    4    0    0 -0.30318515460E+02 -0.70653063175E+02 -0.60963765984E+00  0.76885885400E+02  0.00000000000E+00 0.  1.
         11    1    4    4    0    0  0.72454679734E+01  0.21216647268E+02 -0.16662105354E+02  0.27933289858E+02  0.00000000000E+00 0. -1.
</event>
<event>
 8    1  0.6901948E-009  0.1118346E+03  0.7561462E-02  0.1257210E+00
         -1   -1    0    0    0  501 -0.00000000000E+00  0.00000000000E+00  0.71366865850E+02  0.71366865850E+02  0.00000000000E+00 0.  1.
          1   -1    0    0  501    0  0.00000000000E+00 -0.00000000000E+00 -0.18530112012E+03  0.18530112012E+03  0.00000000000E+00 0. -1.
         25    2    1    2    0    0 -0.20044485168E+02  0.26047477568E+02 -0.94467148821E+02  0.16015313036E+03  0.12507889704E+03 0.  0.
         23    2    1    2    0    0  0.20044485168E+02 -0.26047477568E+02 -0.19467105445E+02  0.96514855603E+02  0.88633496401E+02 0.  0.
          5    1    3    3  502    0 -0.49514949689E+02  0.63996240447E+02 -0.61798947764E+02  0.10190108625E+03  0.41800000000E+01 0. -1.
         -5    1    3    3    0  502  0.29470464521E+02 -0.37948762879E+02 -0.32668201056E+02  0.58252044113E+02  0.41800000000E+01 0. -1.
        -11    1    4    4    0    0  0.55352583019E+02 -0.17968831346E+02 -0.14303694595E+02  0.59928148860E+02  0.00000000000E+00 0. -1.
         11    1    4    4    0    0 -0.35308097851E+02 -0.80786462223E+01 -0.51634108505E+01  0.36586706742E+02  0.00000000000E+00 0.  1.
</event>
<event>
 8    1  0.6901948E-009  0.1147931E+03  0.7561462E-02  0.1251943E+00
          1   -1    0    0  501    0  0.00000000000E+00  0.00000000000E+00  0.30898842365E+03  0.30898842365E+03  0.00000000000E+00 0.  1.
         -1   -1    0    0    0  501 -0.00000000000E+00 -0.00000000000E+00 -0.59089436942E+02  0.59089436942E+02  0.00000000000E+00 0. -1.
         25    2    1    2    0    0 -0.13671713406E+02  0.66673272161E+02  0.17920944440E+03  0.22890198520E+03  0.12509137819E+03 0.  0.
         23    2    1    2    0    0  0.13671713406E+02 -0.66673272161E+02  0.70689542313E+02  0.13917587540E+03  0.98694842480E+02 0.  0.
          5    1    3    3  502    0 -0.45818117281E+02  0.89734521287E+02  0.11122966060E+03  0.15013691744E+03  0.41800000000E+01 0. -1.
         -5    1    3    3    0  502  0.32146403875E+02 -0.23061249126E+02  0.67979783796E+02  0.78765067754E+02  0.41800000000E+01 0. -1.
        -11    1    4    4    0    0 -0.22593944826E+02 -0.27135867044E+02 -0.14766780693E+02  0.38274004690E+02  0.00000000000E+00 0. -1.
         11    1    4    4    0    0  0.36265658232E+02 -0.39537405117E+02  0.85456323006E+02  0.10090187071E+03  0.00000000000E+00 0.  1.
</event>
<event>
 7    1  0.6901948E-009  0.1078296E+03  0.7561462E-02  0.1264643E+00
         -3   -1    0    0    0  501 -0.00000000000E+00  0.00000000000E+00  0.24483511007E+03  0.24483511007E+03  0.00000000000E+00 0.  1.
          3   -1    0    0  501    0  0.00000000000E+00 -0.00000000000E+00 -0.73679311906E+02  0.73679311906E+02  0.00000000000E+00 0. -1.
         23    2    1    2    0    0 -0.19682321773E+02  0.56988282411E+02  0.10681640867E+02  0.10638939944E+03  0.87003153615E+02 0.  0.
          5    1    1    2  502    0  0.11803604404E+02  0.39052401425E+02  0.61544880567E+02  0.73957148795E+02  0.41800000000E+01 0. -1.
         -5    1    1    2    0  502  0.78787173689E+01 -0.96040683837E+02  0.98929276726E+02  0.13816787374E+03  0.41800000000E+01 0. -1.
        -11    1    3    3    0    0 -0.25262545731E+02  0.48071010127E+01  0.39032457566E+02  0.46742241929E+02  0.00000000000E+00 0.  1.
         11    1    3    3    0    0  0.55802239580E+01  0.52181181399E+02 -0.28350816698E+02  0.59647157510E+02  0.00000000000E+00 0. -1.
</event>
<event>
 8    1  0.6901948E-009  0.1013013E+03  0.7561462E-02  0.1277583E+00
         -2   -1    0    0    0  501 -0.00000000000E+00  0.00000000000E+00  0.12886039765E+03  0.12886039765E+03  0.00000000000E+00 0. -1.
          2   -1    0    0  501    0  0.00000000000E+00 -0.00000000000E+00 -0.21745395605E+03  0.21745395605E+03  0.00000000000E+00 0.  1.
         25    2    1    2    0    0 -0.24868201064E+02 -0.52615804647E+02 -0.16437112200E+03  0.21459869613E+03  0.12509150375E+03 0.  0.
         23    2    1    2    0    0  0.24868201064E+02  0.52615804647E+02  0.75777563594E+02  0.13171565757E+03  0.90663801936E+02 0.  0.
          5    1    3    3  502    0 -0.67477850578E+02 -0.93917383198E+01 -0.12411979677E+03  0.14164978439E+03  0.41800000000E+01 0. -1.
         -5    1    3    3    0  502  0.42609649513E+02 -0.43224066328E+02 -0.40251325229E+02  0.72948911741E+02  0.41800000000E+01 0. -1.
        -11    1    4    4    0    0  0.27523949587E+02  0.77930386423E+01 -0.13614345338E+02  0.31680430097E+02  0.00000000000E+00 0. -1.
         11    1    4    4    0    0 -0.26557485227E+01  0.44822766005E+02  0.89391908932E+02  0.10003522747E+03  0.00000000000E+00 0.  1.
</event>
<event>
 8    1  0.6901948E-009  0.1132198E+03  0.7561462E-02  0.1254721E+00
          1   -1    0    0  501    0  0.00000000000E+00  0.00000000000E+00  0.40587750480E+02  0.40587750480E+02  0.00000000000E+00 0. -1.
         -1   -1    0    0    0  501 -0.00000000000E+00 -0.00000000000E+00 -0.36549483573E+03  0.36549483573E+03  0.00000000000E+00 0.  1.
         25    2    1    2    0    0  0.37267496783E+02 -0.28831380593E+02 -0.23062862633E+03  0.26656708039E+03  0.12509328616E+03 0.  0.
         23    2    1    2    0    0 -0.37267496783E+02  0.28831380593E+02 -0.94278458925E+02  0.13951550583E+03  0.91411343525E+02 0.  0.
          5    1    3    3  502    0  0.56084775317E+01 -0.72710163884E+02 -0.17095634626E+03  0.18590795486E+03  0.41800000000E+01 0. -1.
         -5    1    3    3    0  502  0.31659019252E+02  0.43878783290E+02 -0.59672280066E+02  0.80659125530E+02  0.41800000000E+01 0. -1.
        -11    1    4    4    0    0 -0.67083075044E+01  0.57101819529E+02 -0.72507316393E+02  0.92536101677E+02  0.00000000000E+00 0.  1.
         11    1    4    4    0    0 -0.30559189279E+02 -0.28270438936E+02 -0.21771142532E+02  0.46979404149E+02  0.00000000000E+00 0. -1.
</event>
<event>
 8    1  0.6901948E-009  0.1044187E+03  0.7561462E-02  0.1271269E+00
          2   -1    0    0  501    0  0.00000000000E+00  0.00000000000E+00  0.82633040144E+03  0.82633040144E+03  0.00000000000E+00 0. -1.
         -2   -1    0    0    0  501 -0.00000000000E+00 -0.00000000000E+00 -0.24311329416E+02  0.24311329416E+02  0.00000000000E+00 0.  1.
         25    2    1    2    0    0 -0.75645989725E+02 -0.51046619204E+02  0.45040213254E+03  0.47627386838E+03  0.12508654450E+03 0.  0.
         23    2    1    2    0    0  0.75645989725E+02  0.51046619204E+02  0.35161693948E+03  0.37436786247E+03  0.90491719103E+02 0.  0.
          5    1    3    3  502    0 -0.23015284789E+02 -0.17333509670E+02  0.90352124435E+01  0.30483788401E+02  0.41800000000E+01 0.  1.
         -5    1    3    3    0  502 -0.52630704935E+02 -0.33713109534E+02  0.44136692010E+03  0.44579007998E+03  0.41800000000E+01 0.  1.
        -11    1    4    4    0    0  0.16809888907E+02 -0.19154682744E+02  0.27223317975E+02  0.37290525306E+02  0.00000000000E+00 0.  1.
         11    1    4    4    0    0  0.58836100818E+02  0.70201301948E+02  0.32439362151E+03  0.33707733717E+03  0.00000000000E+00 0. -1.
</event>
<event>
 8    1  0.6901948E-009  0.2481355E+03  0.7561462E-02  0.1114489E+00
          2   -1    0    0  501    0  0.00000000000E+00  0.00000000000E+00  0.31221258445E+03  0.31221258445E+03  0.00000000000E+00 0. -1.
         -2   -1    0    0    0  501 -0.00000000000E+00 -0.00000000000E+00 -0.25152401587E+03  0.25152401587E+03  0.00000000000E+00 0.  1.
         25    2    1    2    0    0 -0.66619545894E+02 -0.22309298533E+03 -0.80754079545E+02  0.27636425323E+03  0.12508930848E+03 0.  0.
         23    2    1    2    0    0  0.66619545894E+02  0.22309298533E+03  0.14144264812E+03  0.28737234709E+03  0.91477861600E+02 0.  0.
          5    1    3    3  502    0  0.18775169215E+02 -0.12765659311E+03 -0.72274258733E+02  0.14795186251E+03  0.41800000000E+01 0.  1.
         -5    1    3    3    0  502 -0.85394715108E+02 -0.95436392221E+02 -0.84798208127E+01  0.12841239072E+03  0.41800000000E+01 0.  1.
        -11    1    4    4    0    0 -0.83361558608E+01  0.45833370974E+02 -0.30903261436E+01  0.46687680442E+02  0.00000000000E+00 0.  1.
         11    1    4    4    0    0  0.74955701755E+02  0.17725961436E+03  0.14453297427E+03  0.24068466665E+03  0.00000000000E+00 0. -1.
</event>
<event>
 7    1  0.6901948E-009  0.1856255E+03  0.7561462E-02  0.1162467E+00
          2   -1    0    0  501    0  0.00000000000E+00  0.00000000000E+00  0.55825714544E+02  0.55825714544E+02  0.00000000000E+00 0.  1.
         -2   -1    0    0    0  501 -0.00000000000E+00 -0.00000000000E+00 -0.81755033648E+03  0.81755033648E+03  0.00000000000E+00 0. -1.
         25    2    1    2    0    0  0.10995152198E+03 -0.13142696488E+03 -0.39186056780E+03  0.44560934455E+03  0.12510235439E+03 0.  0.
          5    1    3    3  502    0  0.11429603999E+03 -0.73943928157E+02 -0.17829604333E+03  0.22436185223E+03  0.41800000000E+01 0.  1.
         -5    1    3    3    0  502 -0.43445180066E+01 -0.57483036719E+02 -0.21356452447E+03  0.22124749232E+03  0.41800000000E+01 0.  1.
        -11    1    1    2    0    0 -0.32919546665E+02  0.11790086088E+02 -0.39860469034E+01  0.35193625168E+02  0.00000000000E+00 0.  1.
         11    1    1    2    0    0 -0.77031975320E+02  0.11963687879E+03 -0.36587800723E+03  0.39257308130E+03  0.00000000000E+00 0. -1.
</event>
<event>
 8    1  0.6901948E-009  0.9943761E+02  0.7561462E-02  0.1281483E+00
          1   -1    0    0  501    0  0.00000000000E+00  0.00000000000E+00  0.23290469047E+03  0.23290469047E+03  0.00000000000E+00 0. -1.
         -1   -1    0    0    0  501 -0.00000000000E+00 -0.00000000000E+00 -0.58207250814E+02  0.58207250814E+02  0.00000000000E+00 0.  1.
         25    2    1    2    0    0 -0.24409649419E+01  0.28428597842E+02  0.60500316956E+02  0.14184652819E+03  0.12508399467E+03 0.  0.
         23    2    1    2    0    0  0.24409649419E+01 -0.28428597842E+02  0.11419712270E+03  0.14926541310E+03  0.91788001554E+02 0.  0.
          5    1    3    3  502    0  0.99449416466E+01 -0.48614031036E+02  0.28739851283E+02  0.57495020043E+02  0.41800000000E+01 0.  1.
         -5    1    3    3    0  502 -0.12385906589E+02  0.77042628878E+02  0.31760465673E+02  0.84351508145E+02  0.41800000000E+01 0.  1.
        -11    1    4    4    0    0 -0.29331891325E+02 -0.16429727097E+01  0.18013362407E+01  0.29433043001E+02  0.00000000000E+00 0.  1.
         11    1    4    4    0    0  0.31772856267E+02 -0.26785625132E+02  0.11239578646E+03  0.11983237010E+03  0.00000000000E+00 0. -1.
</event>
<event>
 8    1  0.6901948E-009  0.2420902E+03  0.7561462E-02  0.1118408E+00
         -2   -1    0    0    0  501 -0.00000000000E+00  0.00000000000E+00  0.31660997952E+03  0.31660997952E+03  0.00000000000E+00 0.  1.
          2   -1    0    0  501    0  0.00000000000E+00 -0.00000000000E+00 -0.20960988153E+03  0.20960988153E+03  0.00000000000E+00 0. -1.
         25    2    1    2    0    0  0.22163618329E+03 -0.67172527572E+02  0.80381203730E+02  0.27521379856E+03  0.12508697294E+03 0.  0.
         23    2    1    2    0    0 -0.22163618329E+03  0.67172527572E+02  0.26618894269E+02  0.25100606249E+03  0.93063052136E+02 0.  0.
          5    1    3    3  502    0  0.60799560872E+02 -0.57079725865E+02  0.77587601354E+02  0.11398241088E+03  0.41800000000E+01 0.  1.
         -5    1    3    3    0  502  0.16083662242E+03 -0.10092801707E+02  0.27936023757E+01  0.16123138767E+03  0.41800000000E+01 0.  1.
        -11    1    4    4    0    0 -0.14516315204E+03  0.73554841202E+02  0.50913219006E+02  0.17051337556E+03  0.00000000000E+00 0.  1.
         11    1    4    4    0    0 -0.76473031248E+02 -0.63823136299E+01 -0.24294324737E+02  0.80492686935E+02  0.00000000000E+00 0. -1.
</event>
<event>
 8    1  0.6901948E-009  0.8606742E+02  0.7561462E-02  0.1312664E+00
         -1   -1    0    0    0  501 -0.00000000000E+00  0.00000000000E+00  0.23181573922E+02  0.23181573922E+02  0.00000000000E+00 0.  1.
          1   -1    0    0  501    0  0.00000000000E+00 -0.00000000000E+00 -0.54160576064E+03  0.54160576064E+03  0.00000000000E+00 0. -1.
         25    2    1    2    0    0  0.17808400967E+02  0.10103566340E+02 -0.34055504663E+03  0.36337987630E+03  0.12509186031E+03 0.  0.
         23    2    1    2    0    0 -0.17808400967E+02 -0.10103566340E+02 -0.17786914008E+03  0.20140745826E+03  0.92240511981E+02 0.  0.
          5    1    3    3  502    0 -0.27279654075E+02 -0.11586562610E+02 -0.14099969638E+02  0.33086394536E+02  0.41800000000E+01 0.  1.
         -5    1    3    3    0  502  0.45088055042E+02  0.21690128951E+02 -0.32645507699E+03  0.33029348176E+03  0.41800000000E+01 0.  1.
        -11    1    4    4    0    0 -0.34642904386E+02 -0.42893531281E+02 -0.83148882644E+02  0.99768344353E+02  0.00000000000E+00 0.  1.
         11    1    4    4    0    0  0.16834503419E+02  0.32789964940E+02 -0.94720257441E+02  0.10163911391E+03  0.00000000000E+00 0. -1.
</event>
<event>
 8    1  0.6901948E-009  0.7760413E+02  0.7561462E-02  0.1335991E+00
          1   -1    0    0  501    0  0.00000000000E+00  0.00000000000E+00  0.52326195822E+02  0.52326195822E+02  0.00000000000E+00 0.  1.
         -1   -1    0    0    0  501 -0.00000000000E+00 -0.00000000000E+00 -0.24742598707E+03  0.24742598707E+03  0.00000000000E+00 0. -1.
         25    2    1    2    0    0  0.22872078525E+02 -0.20220546859E+01 -0.14171589793E+03  0.19041523578E+03  0.12508935052E+03 0.  0.
         23    2    1    2    0    0 -0.22872078525E+02  0.20220546859E+01 -0.53383893327E+02  0.10933694711E+03  0.92614832807E+02 0.  0.
          5    1    3    3  502    0  0.84316978605E+01  0.43485810871E+02 -0.13484867252E+03  0.14199910618E+03  0.41800000000E+01 0. -1.
         -5    1    3    3    0  502  0.14440380665E+02 -0.45507865557E+02 -0.68672254100E+01  0.48416129607E+02  0.41800000000E+01 0. -1.
        -11    1    4    4    0    0 -0.30953919063E+02  0.24131498513E+02  0.11019330664E+02  0.40766407422E+02  0.00000000000E+00 0.  1.
         11    1    4    4    0    0  0.80818405374E+01 -0.22109443827E+02 -0.64403223992E+02  0.68570539690E+02  0.00000000000E+00 0. -1.
</event>
<event>
 8    1  0.6901948E-009  0.1326547E+03  0.7561462E-02  0.1223569E+00
          1   -1    0    0  501    0  0.00000000000E+00  0.00000000000E+00  0.32206398337E+03  0.32206398337E+03  0.00000000000E+00 0. -1.
         -1   -1    0    0    0  501 -0.00000000000E+00 -0.00000000000E+00 -0.14278249050E+03  0.14278249050E+03  0.00000000000E+00 0.  1.
         25    2    1    2    0    0  0.62735452836E+02 -0.10748411002E+03  0.24122771457E+03  0.29887596878E+03  0.12508982167E+03 0.  0.
         23    2    1    2    0    0 -0.62735452836E+02  0.10748411002E+03 -0.61946221704E+02  0.16597050510E+03  0.90665887908E+02 0.  0.
          5    1    3    3  502    0  0.50273175055E+02 -0.56355591256E+02  0.30362228965E+02  0.81502651145E+02  0.41800000000E+01 0.  1.
         -5    1    3    3    0  502  0.12462277781E+02 -0.51128518760E+02  0.21086548561E+03  0.21737331763E+03  0.41800000000E+01 0.  1.
        -11    1    4    4    0    0 -0.51221325453E+02  0.31719069034E+02  0.97445151804E+01  0.61030149087E+02  0.00000000000E+00 0. -1.
         11    1    4    4    0    0 -0.11514127383E+02  0.75765040982E+02 -0.71690736885E+02  0.10494035601E+03  0.00000000000E+00 0.  1.
</event>
<event>
 8    1  0.6901948E-009  0.1404078E+03  0.7561462E-02  0.1212781E+00
         -1   -1    0    0    0  501 -0.00000000000E+00  0.00000000000E+00  0.47504422608E+02  0.47504422608E+02  0.00000000000E+00 0.  1.
          1   -1    0    0  501    0  0.00000000000E+00 -0.00000000000E+00 -0.67245005144E+03  0.67245005144E+03  0.00000000000E+00 0. -1.
         25    2    1    2    0    0 -0.10125414233E+03 -0.23299428512E+02 -0.51520471847E+03  0.54025841337E+03  0.12509191255E+03 0.  0.
         23    2    1    2    0    0  0.10125414233E+03  0.23299428512E+02 -0.10974091036E+03  0.17969606067E+03  0.97223156222E+02 0.  0.
          5    1    3    3  502    0 -0.45696729053E+02 -0.57386559163E+02 -0.40922035877E+03  0.41576457599E+03  0.41800000000E+01 0.  1.
         -5    1    3    3    0  502 -0.55557413275E+02  0.34087130652E+02 -0.10598435970E+03  0.12449383738E+03  0.41800000000E+01 0.  1.
        -11    1    4    4    0    0  0.16648633249E+02  0.50483766796E+02 -0.35767867409E+02  0.64071273110E+02  0.00000000000E+00 0.  1.
         11    1    4    4    0    0  0.84605509080E+02 -0.27184338285E+02 -0.73973042956E+02  0.11562478756E+03  0.00000000000E+00 0. -1.
</event>
<event>
 8    1  0.6901948E-009  0.1215437E+03  0.7561462E-02  0.1240572E+00
         -2   -1    0    0    0  501 -0.00000000000E+00  0.00000000000E+00  0.81355238697E+02  0.81355238697E+02  0.00000000000E+00 0.  1.
          2   -1    0    0  501    0  0.00000000000E+00 -0.00000000000E+00 -0.21944217940E+03  0.21944217940E+03  0.00000000000E+00 0. -1.
         25    2    1    2    0    0 -0.64523235962E+02 -0.40825487478E+02 -0.82402003645E+02  0.16812853550E+03  0.12508855198E+03 0.  0.
         23    2    1    2    0    0  0.64523235962E+02  0.40825487478E+02 -0.55684937060E+02  0.13266888260E+03  0.93114186829E+02 0.  0.
          5    1    3    3  502    0 -0.67705351372E+02 -0.67578348541E+02 -0.16969761796E+02  0.97243472847E+02  0.41800000000E+01 0. -1.
         -5    1    3    3    0  502  0.31821154102E+01  0.26752861063E+02 -0.65432241849E+02  0.70885062650E+02  0.41800000000E+01 0. -1.
        -11    1    4    4    0    0  0.79949058488E+02  0.38884265330E+01 -0.41797477132E+02  0.90299506691E+02  0.00000000000E+00 0.  1.
         11    1    4    4    0    0 -0.15425822527E+02  0.36937060945E+02 -0.13887459929E+02  0.42369375912E+02  0.00000000000E+00 0. -1.
</event>
<event>
 8    1  0.6901948E-009  0.7807842E+02  0.7561462E-02  0.1334595E+00
         -2   -1    0    0    0  501 -0.00000000000E+00  0.00000000000E+00  0.10989332713E+02  0.10989332713E+02  0.00000000000E+00 0. -1.
          2   -1    0    0  501    0  0.00000000000E+00 -0.00000000000E+00 -0.12442003586E+04  0.12442003586E+04  0.00000000000E+00 0.  1.
         25    2    1    2    0    0  0.20226120425E+02  0.17308182625E+02 -0.83985175930E+03  0.84953339482E+03  0.12508933680E+03 0.  0.
         23    2    1    2    0    0 -0.20226120425E+02 -0.17308182625E+02 -0.39335926659E+03  0.40565629650E+03  0.95482192806E+02 0.  0.
          5    1    3    3  502    0 -0.69427037440E+01  0.27879776193E+02 -0.79704626273E+03  0.79757488701E+03  0.41800000000E+01 0.  1.
         -5    1    3    3    0  502  0.27168824169E+02 -0.10571593568E+02 -0.42805496573E+02  0.51958507813E+02  0.41800000000E+01 0.  1.
        -11    1    4    4    0    0 -0.19946063602E+02 -0.55759450834E+02 -0.20346227035E+03  0.21190530259E+03  0.00000000000E+00 0. -1.
         11    1    4    4    0    0 -0.28005682269E+00  0.38451268209E+02 -0.18989699624E+03  0.19375099391E+03  0.00000000000E+00 0.  1.
</event>
<event>
 8    1  0.6901948E-009  0.1609141E+03  0.7561462E-02  0.1187669E+00
         -1   -1    0    0    0  501 -0.00000000000E+00  0.00000000000E+00  0.70862540684E+03  0.70862540684E+03  0.00000000000E+00 0.  1.
          1   -1    0    0  501    0  0.00000000000E+00 -0.00000000000E+00 -0.51764880701E+02  0.51764880701E+02  0.00000000000E+00 0. -1.
         25    2    1    2    0    0 -0.60816701929E+02 -0.12926154315E+03  0.47365895358E+03  0.51030303975E+03  0.12509664385E+03 0.  0.
         23    2    1    2    0    0  0.60816701929E+02  0.12926154315E+03  0.18320157256E+03  0.25008724779E+03  0.92593723050E+02 0.  0.
          5    1    3    3  502    0 -0.57742608981E+02 -0.55739626058E+02  0.39261697959E+03  0.40075763233E+03  0.41800000000E+01 0.  1.
         -5    1    3    3    0  502 -0.30740929485E+01 -0.73521917088E+02  0.81041973987E+02  0.10954540742E+03  0.41800000000E+01 0.  1.
        -11    1    4    4    0    0  0.56345015214E+02  0.14279261509E+03  0.17767087097E+03  0.23480083061E+03  0.00000000000E+00 0.  1.
         11    1    4    4    0    0  0.44716867156E+01 -0.13531071946E+02  0.55307015927E+01  0.15286417180E+02  0.00000000000E+00 0. -1.
</event>
<event>
 8    1  0.6901948E-009  0.1631796E+03  0.7561462E-02  0.1185153E+00
         -1   -1    0    0    0  501 -0.00000000000E+00  0.00000000000E+00  0.10767255571E+03  0.10767255571E+03  0.00000000000E+00 0.  1.
          1   -1    0    0  501    0  0.00000000000E+00 -0.00000000000E+00 -0.72391421347E+03  0.72391421347E+03  0.00000000000E+00 0. -1.
         25    2    1    2    0    0 -0.53873614445E+02 -0.12688919873E+03  0.76787270389E+01  0.18630775776E+03  0.12509349569E+03 0.  0.
         23    2    1    2    0    0  0.53873614445E+02  0.12688919873E+03 -0.62392038479E+03  0.64527901143E+03  0.90028445171E+02 0.  0.
          5    1    3    3  502    0 -0.72895272602E+02 -0.17557148413E+02  0.31883980585E+01  0.75163904305E+02  0.41800000000E+01 0. -1.
         -5    1    3    3    0  502  0.19021658157E+02 -0.10933205032E+03  0.44903289804E+01  0.11114385345E+03  0.41800000000E+01 0. -1.
        -11    1    4    4    0    0  0.27338497374E+02  0.94306074825E+02 -0.56157592048E+03  0.57009520578E+03  0.00000000000E+00 0.  1.
         11    1    4    4    0    0  0.26535117071E+02  0.32583123906E+02 -0.62344464313E+02  0.75183805650E+02  0.00000000000E+00 0. -1.
</event>
<event>
 8    1  0.6901948E-009  0.9188957E+02  0.7561462E-02  0.1298339E+00
          2   -1    0    0  501    0  0.00000000000E+00  0.00000000000E+00  0.16610115827E+04  0.16610115827E+04  0.00000000000E+00 0. -1.
         -2   -1    0    0    0  501 -0.00000000000E+00 -0.00000000000E+00 -0.84961764886E+01  0.84961764886E+01  0.00000000000E+00 0.  1.
         25    2    1    2    0    0  0.14075884211E+02  0.54286186727E+01  0.12625779456E+04  0.12688480859E+04  0.12507915890E+03 0.  0.
         23    2    1    2    0    0 -0.14075884211E+02 -0.54286186727E+01  0.38993746055E+03  0.40065967322E+03  0.90825933431E+02 0.  0.
          5    1    3    3  502    0 -0.18850100949E+02 -0.36971980992E+02  0.17362758707E+03  0.17856725645E+03  0.41800000000E+01 0.  1.
         -5    1    3    3    0  502  0.32925985160E+02  0.42400599664E+02  0.10889503586E+04  0.10902808295E+04  0.41800000000E+01 0.  1.
        -11    1    4    4    0    0  0.14481737990E+02  0.35486247034E+02  0.22834726202E+03  0.23154150068E+03  0.00000000000E+00 0. -1.
         11    1    4    4    0    0 -0.28557622201E+02 -0.40914865707E+02  0.16159019853E+03  0.16911817254E+03  0.00000000000E+00 0.  1.
</event>
<event>
 8    1  0.6901948E-009  0.1225170E+03  0.7561462E-02  0.1239002E+00
          2   -1    0    0  501    0  0.00000000000E+00  0.00000000000E+00  0.12555479018E+03  0.12555479018E+03  0.00000000000E+00 0. -1.
         -2   -1    0    0    0  501 -0.00000000000E+00 -0.00000000000E+00 -0.18458921775E+03  0.18458921775E+03  0.00000000000E+00 0.  1.
         25    2    1    2    0    0 -0.82834645319E+02 -0.64465896812E+02 -0.48124693125E+02  0.17023679361E+03  0.12508856660E+03 0.  0.
         23    2    1    2    0    0  0.82834645319E+02  0.64465896812E+02 -0.10909734446E+02  0.13990721432E+03  0.91856279030E+02 0.  0.
          5    1    3    3  502    0 -0.95174015262E+02 -0.25623944264E+02  0.99647401553E+01  0.99153659272E+02  0.41800000000E+01 0.  1.
         -5    1    3    3    0  502  0.12339369943E+02 -0.38841952548E+02 -0.58089433280E+02  0.71083134337E+02  0.41800000000E+01 0.  1.
        -11    1    4    4    0    0  0.62302508313E+02  0.53586152749E+02 -0.48715381154E+02  0.95531495694E+02  0.00000000000E+00 0.  1.
         11    1    4    4    0    0  0.20532137005E+02  0.10879744063E+02  0.37805646708E+02  0.44375718630E+02  0.00000000000E+00 0. -1.
</event>
<event>
 8    1  0.6901948E-009  0.2102380E+03  0.7561462E-02  0.1141378E+00
         -1   -1    0    0    0  501 -0.00000000000E+00  0.00000000000E+00  0.11942121303E+03  0.11942121303E+03  0.00000000000E+00 0.  1.
          1   -1    0    0  501    0  0.00000000000E+00 -0.00000000000E+00 -0.45983611457E+03  0.45983611457E+03  0.00000000000E+00 0. -1.
         25    2    1    2    0    0  0.15212938731E+03 -0.11911289807E+03 -0.26845430761E+03  0.35361906210E+03  0.12508993897E+03 0.  0.
         23    2    1    2    0    0 -0.15212938731E+03  0.11911289807E+03 -0.71960593929E+02  0.22563826551E+03  0.91668243203E+02 0.  0.
          5    1    3    3  502    0  0.43013532756E+01  0.20746306272E+02 -0.79265958210E+01  0.23004655730E+02  0.41800000000E+01 0. -1.
         -5    1    3    3    0  502  0.14782803404E+03 -0.13985920434E+03 -0.26052771179E+03  0.33061440637E+03  0.41800000000E+01 0. -1.
        -11    1    4    4    0    0 -0.10804419464E+03  0.10022610062E+03 -0.10594124849E+02  0.14775335774E+03  0.00000000000E+00 0.  1.
         11    1    4    4    0    0 -0.44085192674E+02  0.18886797442E+02 -0.61366469080E+02  0.77884907768E+02  0.00000000000E+00 0. -1.
</event>
<event>
 8    1  0.6901948E-009  0.1056899E+03  0.7561462E-02  0.1268766E+00
         -1   -1    0    0    0  501 -0.00000000000E+00  0.00000000000E+00  0.18211562994E+02  0.18211562994E+02  0.00000000000E+00 0.  1.
          1   -1    0    0  501    0  0.00000000000E+00 -0.00000000000E+00 -0.74627490426E+03  0.74627490426E+03  0.00000000000E+00 0. -1.
         25    2    1    2    0    0  0.34877384011E+02 -0.17847649688E+02 -0.47451917984E+03  0.49229134312E+03  0.12508934390E+03 0.  0.
         23    2    1    2    0    0 -0.34877384011E+02  0.17847649688E+02 -0.25354416142E+03  0.27219512413E+03  0.90942692370E+02 0.  0.
          5    1    3    3  502    0 -0.12293971644E+02  0.44560778846E+02 -0.10899363714E+03  0.11846472086E+03  0.41800000000E+01 0. -1.
         -5    1    3    3    0  502  0.47171355655E+02 -0.62408428533E+02 -0.36552554270E+03  0.37382662226E+03  0.41800000000E+01 0. -1.
        -11    1    4    4    0    0 -0.52381159104E+02  0.34291632629E+02 -0.10926449457E+03  0.12593026511E+03  0.00000000000E+00 0.  1.
         11    1    4    4    0    0  0.17503775093E+02 -0.16443982941E+02 -0.14427966685E+03  0.14626485902E+03  0.00000000000E+00 0. -1.
</event>
<event>
 8    1  0.6901948E-009  0.8517242E+02  0.7561462E-02  0.1314982E+00
         -1   -1    0    0    0  501 -0.00000000000E+00  0.00000000000E+00  0.30541842367E+02  0.30541842367E+02  0.00000000000E+00 0.  1.
          1   -1    0    0  501    0  0.00000000000E+00 -0.00000000000E+00 -0.57174302234E+03  0.57174302234E+03  0.00000000000E+00 0. -1.
         25    2    1    2    0    0  0.62720945332E+01 -0.66229498247E+02 -0.21621629066E+03  0.25850027694E+03  0.12508886131E+03 0.  0.
         23    2    1    2    0    0 -0.62720945332E+01  0.66229498247E+02 -0.32498488931E+03  0.34378458776E+03  0.90260616516E+02 0.  0.
          5    1    3    3  502    0 -0.92313985227E+01 -0.13637164017E+01  0.14813900935E+02  0.18000069501E+02  0.41800000000E+01 0.  1.
         -5    1    3    3    0  502  0.15503493056E+02 -0.64865781846E+02 -0.23103019159E+03  0.24050020744E+03  0.41800000000E+01 0.  1.
        -11    1    4    4    0    0 -0.93037687881E+01 -0.11901450214E+02 -0.76003740571E+01  0.16910656896E+02  0.00000000000E+00 0.  1.
         11    1    4    4    0    0  0.30316742549E+01  0.78130948461E+02 -0.31738451526E+03  0.32687393087E+03  0.00000000000E+00 0. -1.
</event>
<event>
 8    1  0.6901948E-009  0.1212674E+03  0.7561462E-02  0.1241021E+00
         -1   -1    0    0    0  501 -0.00000000000E+00  0.00000000000E+00  0.89399154128E+02  0.89399154128E+02  0.00000000000E+00 0.  1.
          1   -1    0    0  501    0  0.00000000000E+00 -0.00000000000E+00 -0.29531390672E+03  0.29531390672E+03  0.00000000000E+00 0. -1.
         25    2    1    2    0    0  0.73598818329E+02 -0.20657620180E+02 -0.20208803762E+00  0.14659819899E+03  0.12508983882E+03 0.  0.
         23    2    1    2    0    0 -0.73598818329E+02  0.20657620180E+02 -0.20571266456E+03  0.23811486186E+03  0.92398396900E+02 0.  0.
          5    1    3    3  502    0 -0.14367022984E+02 -0.47797217513E+02 -0.17072862422E+02  0.52914462888E+02  0.41800000000E+01 0. -1.
         -5    1    3    3    0  502  0.87965841313E+02  0.27139597333E+02  0.16870774385E+02  0.93683736100E+02  0.41800000000E+01 0. -1.
        -11    1    4    4    0    0 -0.79856775248E+02  0.12073388676E+01 -0.20217555739E+03  0.21737874373E+03  0.00000000000E+00 0. -1.
         11    1    4    4    0    0  0.62579569187E+01  0.19450281312E+02 -0.35371071631E+01  0.20736118128E+02  0.00000000000E+00 0.  1.
</event>
<event>
 8    1  0.6901948E-009  0.1413393E+03  0.7561462E-02  0.1211538E+00
          2   -1    0    0  501    0  0.00000000000E+00  0.00000000000E+00  0.43212450163E+03  0.43212450163E+03  0.00000000000E+00 0. -1.
         -2   -1    0    0    0  501 -0.00000000000E+00 -0.00000000000E+00 -0.73829391626E+02  0.73829391626E+02  0.00000000000E+00 0.  1.
         25    2    1    2    0    0  0.11616543438E+03  0.33210822102E+02  0.29150868443E+03  0.33944428233E+03  0.12509093035E+03 0.  0.
         23    2    1    2    0    0 -0.11616543438E+03 -0.33210822102E+02  0.66786425566E+02  0.16650961092E+03  0.93100252636E+02 0.  0.
          5    1    3    3  502    0  0.11293127508E+03  0.50171871954E+02  0.29628350614E+03  0.32104840451E+03  0.41800000000E+01 0.  1.
         -5    1    3    3    0  502  0.32341592952E+01 -0.16961049852E+02 -0.47748217052E+01  0.18395877820E+02  0.41800000000E+01 0.  1.
        -11    1    4    4    0    0 -0.71419498208E+02 -0.56275906604E+02  0.71886473357E+02  0.11591111871E+03  0.00000000000E+00 0. -1.
         11    1    4    4    0    0 -0.44745936172E+02  0.23065084502E+02 -0.51000477917E+01  0.50598492216E+02  0.00000000000E+00 0.  1.
</event>
<event>
 8    1  0.6901948E-009  0.1007466E+03  0.7561462E-02  0.1278734E+00
          1   -1    0    0  501    0  0.00000000000E+00  0.00000000000E+00  0.43740246468E+02  0.43740246468E+02  0.00000000000E+00 0. -1.
         -1   -1    0    0    0  501 -0.00000000000E+00 -0.00000000000E+00 -0.41905206877E+03  0.41905206877E+03  0.00000000000E+00 0.  1.
         25    2    1    2    0    0  0.11775740600E+02 -0.29012026548E+02 -0.32927748078E+03  0.35362387380E+03  0.12508324835E+03 0.  0.
         23    2    1    2    0    0 -0.11775740600E+02  0.29012026548E+02 -0.46034341517E+02  0.10916844144E+03  0.93905389922E+02 0.  0.
          5    1    3    3  502    0 -0.16028210083E+01 -0.68841794901E+02 -0.28164412927E+03  0.28997008416E+03  0.41800000000E+01 0.  1.
         -5    1    3    3    0  502  0.13378561608E+02  0.39829768353E+02 -0.47633351518E+02  0.63653789633E+02  0.41800000000E+01 0.  1.
        -11    1    4    4    0    0  0.33726367410E+02 -0.41457196218E+01  0.35239181138E+01  0.34162447932E+02  0.00000000000E+00 0. -1.
         11    1    4    4    0    0 -0.45502108010E+02  0.33157746170E+02 -0.49558259631E+02  0.75005993508E+02  0.00000000000E+00 0.  1.
</event>
<event>
 8    1  0.6901948E-009  0.1038028E+03  0.7561462E-02  0.1272496E+00
          2   -1    0    0  501    0  0.00000000000E+00  0.00000000000E+00  0.77569890178E+03  0.77569890178E+03  0.00000000000E+00 0. -1.
         -2   -1    0    0    0  501 -0.00000000000E+00 -0.00000000000E+00 -0.24488938316E+02  0.24488938316E+02  0.00000000000E+00 0.  1.
         25    2    1    2    0    0  0.32484859486E+02 -0.74725774604E+02  0.36225039877E+03  0.39180643872E+03  0.12509087309E+03 0.  0.
         23    2    1    2    0    0 -0.32484859486E+02  0.74725774604E+02  0.38895956470E+03  0.40838140138E+03  0.94056464603E+02 0.  0.
          5    1    3    3  502    0  0.26407057948E+02  0.11838838906E+02  0.24031000970E+03  0.24208234958E+03  0.41800000000E+01 0.  1.
         -5    1    3    3    0  502  0.60778015382E+01 -0.86564613510E+02  0.12194038907E+03  0.14972408914E+03  0.41800000000E+01 0.  1.
        -11    1    4    4    0    0 -0.20392141476E+02  0.53726234794E+01  0.10739377324E+02  0.23665137700E+02  0.00000000000E+00 0.  1.
         11    1    4    4    0    0 -0.12092718010E+02  0.69353151124E+02  0.37822018737E+03  0.38471626368E+03  0.00000000000E+00 0. -1.
</event>
<event>
 8    1  0.6901948E-009  0.1724414E+03  0.7561462E-02  0.1175326E+00
         -1   -1    0    0    0  501 -0.00000000000E+00  0.00000000000E+00  0.17908140241E+03  0.17908140241E+03  0.00000000000E+00 0.  1.
          1   -1    0    0  501    0  0.00000000000E+00 -0.00000000000E+00 -0.43302804185E+03  0.43302804185E+03  0.00000000000E+00 0. -1.
         25    2    1    2    0    0 -0.10074638982E+03 -0.11350752383E+03  0.96899337985E+02  0.21924839824E+03  0.12508631180E+03 0.  0.
         23    2    1    2    0    0  0.10074638982E+03  0.11350752383E+03 -0.35084597743E+03  0.39286104602E+03  0.90626202475E+02 0.  0.
          5    1    3    3  502    0 -0.80163943548E+02 -0.16860744979E+02  0.18033038766E+01  0.82044298226E+02  0.41800000000E+01 0.  1.
         -5    1    3    3    0  502 -0.20582446268E+02 -0.96646778853E+02  0.95096034109E+02  0.13720410001E+03  0.41800000000E+01 0.  1.
        -11    1    4    4    0    0  0.19506462962E+02  0.68202409363E+02 -0.22794310411E+03  0.23872605524E+03  0.00000000000E+00 0. -1.
         11    1    4    4    0    0  0.81239926855E+02  0.45305114470E+02 -0.12290287332E+03  0.15413499078E+03  0.00000000000E+00 0.  1.
</event>
<event>
 8    1  0.6901948E-009  0.1021052E+03  0.7561462E-02  0.1275930E+00
         -2   -1    0    0    0  501 -0.00000000000E+00  0.00000000000E+00  0.31493732547E+02  0.31493732547E+02  0.00000000000E+00 0.  1.
          2   -1    0    0  501    0  0.00000000000E+00 -0.00000000000E+00 -0.38432941614E+03  0.38432941614E+03  0.00000000000E+00 0. -1.
         25    2    1    2    0    0 -0.41805972674E+01 -0.61600400019E+01 -0.26687996890E+03  0.29483538268E+03  0.12509021383E+03 0.  0.
         23    2    1    2    0    0  0.41805972674E+01  0.61600400019E+01 -0.85955714693E+02  0.12098776600E+03  0.84818813643E+02 0.  0.
          5    1    3    3  502    0 -0.16085820218E+02 -0.60816200915E+02 -0.94856075860E+02  0.11389693338E+03  0.41800000000E+01 0. -1.
         -5    1    3    3    0  502  0.11905222951E+02  0.54656160913E+02 -0.17202389304E+03  0.18093844930E+03  0.41800000000E+01 0. -1.
        -11    1    4    4    0    0  0.14298226197E+02  0.43810265631E+02 -0.49078348750E+02  0.67323569150E+02  0.00000000000E+00 0. -1.
         11    1    4    4    0    0 -0.10117628930E+02 -0.37650225629E+02 -0.36877365942E+02  0.53664196853E+02  0.00000000000E+00 0.  1.
</event>
<event>
 8    1  0.6901948E-009  0.1051086E+03  0.7561462E-02  0.1269906E+00
         -3   -1    0    0    0  501 -0.00000000000E+00  0.00000000000E+00  0.69690243310E+03  0.69690243310E+03  0.00000000000E+00 0.  1.
          3   -1    0    0  501    0  0.00000000000E+00 -0.00000000000E+00 -0.83453325929E+02  0.83453325929E+02  0.00000000000E+00 0. -1.
         25    2    1    2    0    0  0.25039038395E+02  0.71236135545E+01  0.65878346937E+03  0.67105912149E+03  0.12508791189E+03 0.  0.
         23    2    1    2    0    0 -0.25039038395E+02 -0.71236135545E+01 -0.45334362203E+02  0.10929663754E+03  0.95983598949E+02 0.  0.
          5    1    3    3  502    0  0.66679781963E+02  0.24234838846E+02  0.25390760639E+03  0.26366658058E+03  0.41800000000E+01 0. -1.
         -5    1    3    3    0  502 -0.41640743568E+02 -0.17111225291E+02  0.40487586299E+03  0.40739254091E+03  0.41800000000E+01 0. -1.
        -11    1    4    4    0    0 -0.26159499786E+02 -0.47134530272E+02 -0.43428990046E+02  0.69224710540E+02  0.00000000000E+00 0. -1.
         11    1    4    4    0    0  0.11204613907E+01  0.40010916718E+02 -0.19053721575E+01  0.40071926999E+02  0.00000000000E+00 0.  1.
</event>
<event>
 7    1  0.6901948E-009  0.1640212E+03  0.7561462E-02  0.1184230E+00
         -1   -1    0    0    0  501 -0.00000000000E+00  0.00000000000E+00  0.80962197954E+02  0.80962197954E+02  0.00000000000E+00 0.  1.
          1   -1    0    0  501    0  0.00000000000E+00 -0.00000000000E+00 -0.47927498585E+03  0.47927498585E+03  0.00000000000E+00 0. -1.
         25    2    1    2    0    0 -0.39978863815E+02  0.44077883881E+01 -0.10429770554E+03  0.16775933139E+03  0.12508974273E+03 0.  0.
          5    1    3    3  502    0 -0.54832246055E+02 -0.23606631119E+01 -0.12762197966E+03  0.13898557490E+03  0.41800000000E+01 0.  1.
         -5    1    3    3    0  502  0.14853382240E+02  0.67684515000E+01  0.23324274116E+02  0.28773756493E+02  0.41800000000E+01 0.  1.
        -11    1    1    2    0    0 -0.85671413103E+02  0.69551765754E+02 -0.93978934338E+02  0.14494509044E+03  0.00000000000E+00 0.  1.
         11    1    1    2    0    0  0.12565027692E+03 -0.73959554142E+02 -0.20003614802E+03  0.24753276198E+03  0.00000000000E+00 0. -1.
</event>
<event>
 8    1  0.6901948E-009  0.3069634E+03  0.7561462E-02  0.1081811E+00
          2   -1    0    0  501    0  0.00000000000E+00  0.00000000000E+00  0.20878885852E+03  0.20878885852E+03  0.00000000000E+00 0.  1.
         -2   -1    0    0    0  501 -0.00000000000E+00 -0.00000000000E+00 -0.54652305937E+03  0.54652305937E+03  0.00000000000E+00 0. -1.
         25    2    1    2    0    0 -0.18696500756E+03 -0.22493349172E+03 -0.31476690679E+03  0.44752245534E+03  0.12508857932E+03 0.  0.
         23    2    1    2    0    0  0.18696500756E+03  0.22493349172E+03 -0.22967294062E+02  0.30778946256E+03  0.93036911582E+02 0.  0.
          5    1    3    3  502    0 -0.20411732048E+03 -0.19006602858E+03 -0.27239560002E+03  0.38987922623E+03  0.41800000000E+01 0. -1.
         -5    1    3    3    0  502  0.17152312921E+02 -0.34867463145E+02 -0.42371306769E+02  0.57643229108E+02  0.41800000000E+01 0. -1.
        -11    1    4    4    0    0  0.13757163598E+03  0.13196971536E+03 -0.53825935291E+02  0.19808884902E+03  0.00000000000E+00 0. -1.
         11    1    4    4    0    0  0.49393371579E+02  0.92963776360E+02  0.30858641229E+02  0.10970061353E+03  0.00000000000E+00 0.  1.
</event>
<event>
 8    1  0.6901948E-009  0.1137842E+03  0.7561462E-02  0.1253718E+00
         -1   -1    0    0    0  501 -0.00000000000E+00  0.00000000000E+00  0.12480394482E+03  0.12480394482E+03  0.00000000000E+00 0.  1.
          1   -1    0    0  501    0  0.00000000000E+00 -0.00000000000E+00 -0.15312549550E+03  0.15312549550E+03  0.00000000000E+00 0. -1.
         25    2    1    2    0    0  0.56729557547E+02 -0.18549802606E+02  0.45676622270E+02  0.14593400119E+03  0.12509213007E+03 0.  0.
         23    2    1    2    0    0 -0.56729557547E+02  0.18549802606E+02 -0.73998172947E+02  0.13199543912E+03  0.91568162989E+02 0.  0.
          5    1    3    3  502    0  0.86652461082E+02  0.53492285038E+01  0.59135934322E+02  0.10512751488E+03  0.41800000000E+01 0. -1.
         -5    1    3    3    0  502 -0.29922903536E+02 -0.23899031110E+02 -0.13459312052E+02  0.40806486309E+02  0.41800000000E+01 0. -1.
        -11    1    4    4    0    0  0.11282302353E+02 -0.20720011526E+02 -0.39952675858E+02  0.46398550971E+02  0.00000000000E+00 0. -1.
         11    1    4    4    0    0 -0.68011859900E+02  0.39269814132E+02 -0.34045497090E+02  0.85596888151E+02  0.00000000000E+00 0.  1.
</event>
<event>
 8    1  0.6901948E-009  0.2747326E+03  0.7561462E-02  0.1098601E+00
          1   -1    0    0  501    0  0.00000000000E+00  0.00000000000E+00  0.81364175460E+03  0.81364175460E+03  0.00000000000E+00 0. -1.
         -1   -1    0    0    0  501 -0.00000000000E+00 -0.00000000000E+00 -0.10260548952E+03  0.10260548952E+03  0.00000000000E+00 0.  1.
         25    2    1    2    0    0 -0.13787920087E+03  0.22581939522E+03  0.30684758384E+03  0.42403447764E+03  0.12507887605E+03 0.  0.
         23    2    1    2    0    0  0.13787920087E+03 -0.22581939522E+03  0.40418868124E+03  0.49221276648E+03  0.94338985344E+02 0.  0.
          5    1    3    3  502    0 -0.45505129345E+02  0.35328001875E+02  0.14936449048E+03  0.16014371024E+03  0.41800000000E+01 0. -1.
         -5    1    3    3    0  502 -0.92374071522E+02  0.19049139334E+03  0.15748309336E+03  0.26389076740E+03  0.41800000000E+01 0. -1.
        -11    1    4    4    0    0  0.17457649247E+01 -0.81658170993E+02  0.10014701138E+03  0.12923052454E+03  0.00000000000E+00 0.  1.
         11    1    4    4    0    0  0.13613343594E+03 -0.14416122422E+03  0.30404166986E+03  0.36298224194E+03  0.00000000000E+00 0. -1.
</event>
<event>
 8    1  0.6901948E-009  0.1583288E+03  0.7561462E-02  0.1190597E+00
         -2   -1    0    0    0  501 -0.00000000000E+00  0.00000000000E+00  0.66760179029E+02  0.66760179029E+02  0.00000000000E+00 0. -1.
          2   -1    0    0  501    0  0.00000000000E+00 -0.00000000000E+00 -0.53523619308E+03  0.53523619308E+03  0.00000000000E+00 0.  1.
         25    2    1    2    0    0  0.43385950109E+02  0.14688915436E+03 -0.21967632067E+03  0.29557425490E+03  0.12509072691E+03 0.  0.
         23    2    1    2    0    0 -0.43385950109E+02 -0.14688915436E+03 -0.24879969338E+03  0.30642211722E+03  0.92382152808E+02 0.  0.
          5    1    3    3  502    0  0.18301774151E+02  0.95639231881E+02 -0.21747882737E+03  0.23831980691E+03  0.41800000000E+01 0. -1.
         -5    1    3    3    0  502  0.25084175958E+02  0.51249922478E+02 -0.21974933046E+01  0.57254447987E+02  0.41800000000E+01 0. -1.
        -11    1    4    4    0    0 -0.50654694703E+02 -0.79935560117E+02 -0.20580826816E+03  0.22652292403E+03  0.00000000000E+00 0.  1.
         11    1    4    4    0    0  0.72687445941E+01 -0.66953594242E+02 -0.42991425224E+02  0.79899193191E+02  0.00000000000E+00 0. -1.
</event>
<event>
 8    1  0.6901948E-009  0.1153941E+03  0.7561462E-02  0.1250895E+00
         -1   -1    0    0    0  501 -0.00000000000E+00  0.00000000000E+00  0.18754727838E+03  0.18754727838E+03  0.00000000000E+00 0.  1.
          1   -1    0    0  501    0  0.00000000000E+00 -0.00000000000E+00 -0.10088112871E+03  0.10088112871E+03  0.00000000000E+00 0. -1.
         25    2    1    2    0    0 -0.69009172344E+02  0.99792533408E+00 -0.46938662330E+01  0.14294111718E+03  0.12508744492E+03 0.  0.
         23    2    1    2    0    0  0.69009172344E+02 -0.99792533408E+00  0.91360015901E+02  0.14548728991E+03  0.89758772824E+02 0.  0.
          5    1    3    3  502    0 -0.92195703523E+02  0.32005716548E+02 -0.22311518967E+02  0.10019825307E+03  0.41800000000E+01 0. -1.
         -5    1    3    3    0  502  0.23186531179E+02 -0.31007791214E+02  0.17617652734E+02  0.42742864105E+02  0.41800000000E+01 0. -1.
        -11    1    4    4    0    0  0.21937708321E+02  0.30466751612E+02 -0.53862770769E+00  0.37546985498E+02  0.00000000000E+00 0. -1.
         11    1    4    4    0    0  0.47071464023E+02 -0.31464676946E+02  0.91898643608E+02  0.10794030442E+03  0.00000000000E+00 0.  1.
</event>
<event>
 8    1  0.6901948E-009  0.1316411E+03  0.7561462E-02  0.1225041E+00
         -2   -1    0    0    0  501 -0.00000000000E+00  0.00000000000E+00  0.75377469154E+02  0.75377469154E+02  0.00000000000E+00 0.  1.
          2   -1    0    0  501    0  0.00000000000E+00 -0.00000000000E+00 -0.23729510981E+03  0.23729510981E+03  0.00000000000E+00 0. -1.
         25    2    1    2    0    0 -0.67329763880E+02 -0.41907932400E+02 -0.10973203485E+03  0.18433124290E+03  0.12508923109E+03 0.  0.
         23    2    1    2    0    0  0.67329763880E+02  0.41907932400E+02 -0.52185605800E+02  0.12834133606E+03  0.86363123995E+02 0.  0.
          5    1    3    3  502    0 -0.10135604096E+03 -0.14541612821E+02 -0.89353296775E+02  0.13596319203E+03  0.41800000000E+01 0. -1.
         -5    1    3    3    0  502  0.34026277082E+02 -0.27366319579E+02 -0.20378738077E+02  0.48368050870E+02  0.41800000000E+01 0. -1.
        -11    1    4    4    0    0 -0.10862978600E+02 -0.16208924314E+02 -0.12313439671E+02  0.23072804945E+02  0.00000000000E+00 0. -1.
         11    1    4    4    0    0  0.78192742480E+02  0.58116856714E+02 -0.39872166130E+02  0.10526853111E+03  0.00000000000E+00 0.  1.
</event>
<event>
 8    1  0.6901948E-009  0.1899156E+03  0.7561462E-02  0.1158537E+00
          1   -1    0    0  501    0  0.00000000000E+00  0.00000000000E+00  0.72285898342E+03  0.72285898342E+03  0.00000000000E+00 0. -1.
         -1   -1    0    0    0  501 -0.00000000000E+00 -0.00000000000E+00 -0.75093139329E+02  0.75093139329E+02  0.00000000000E+00 0.  1.
         25    2    1    2    0    0  0.81851497524E+02 -0.15528115807E+03  0.15085707457E+03  0.26309041739E+03  0.12508718990E+03 0.  0.
         23    2    1    2    0    0 -0.81851497524E+02  0.15528115807E+03  0.49690876952E+03  0.53486170536E+03  0.91360893905E+02 0.  0.
          5    1    3    3  502    0  0.76166663705E+02 -0.66657895761E+02  0.14103447937E+03  0.17364570970E+03  0.41800000000E+01 0.  1.
         -5    1    3    3    0  502  0.56848338195E+01 -0.88623262308E+02  0.98225952081E+01  0.89444707693E+02  0.41800000000E+01 0.  1.
        -11    1    4    4    0    0  0.13460284518E+02  0.21451539861E+02  0.26817566234E+02  0.36885358618E+02  0.00000000000E+00 0.  1.
         11    1    4    4    0    0 -0.95311782042E+02  0.13382961821E+03  0.47009120329E+03  0.49797634674E+03  0.00000000000E+00 0. -1.
</event>
<event>
 8    1  0.6901948E-009  0.8435680E+02  0.7561462E-02  0.1317123E+00
         -1   -1    0    0    0  501 -0.00000000000E+00  0.00000000000E+00  0.30469298210E+03  0.30469298210E+03  0.00000000000E+00 0.  1.
          1   -1    0    0  501    0  0.00000000000E+00 -0.00000000000E+00 -0.42473058900E+02  0.42473058900E+02  0.00000000000E+00 0. -1.
         25    2    1    2    0    0  0.32324463841E+02  0.35286526573E+01  0.16081722191E+03  0.20633023309E+03  0.12511060654E+03 0.  0.
         23    2    1    2    0    0 -0.32324463841E+02 -0.35286526573E+01  0.10140270129E+03  0.14083580791E+03  0.92167752549E+02 0.  0.
          5    1    3    3  502    0 -0.54439871385E+01 -0.41707612788E+02  0.13570639083E+03  0.14213676116E+03  0.41800000000E+01 0.  1.
         -5    1    3    3    0  502  0.37768450979E+02  0.45236265445E+02  0.25110831085E+02  0.64193471931E+02  0.41800000000E+01 0.  1.
        -11    1    4    4    0    0 -0.48642757836E+02  0.50967592052E+01  0.11006805119E+03  0.12044530185E+03  0.00000000000E+00 0.  1.
         11    1    4    4    0    0  0.16318293996E+02 -0.86254118625E+01 -0.86653499018E+01  0.20390506066E+02  0.00000000000E+00 0. -1.
</event>
<event>
 8    1  0.6901948E-009  0.1346228E+03  0.7561462E-02  0.1220753E+00
          2   -1    0    0  501    0  0.00000000000E+00  0.00000000000E+00  0.65684605732E+03  0.65684605732E+03  0.00000000000E+00 0. -1.
         -2   -1    0    0    0  501 -0.00000000000E+00 -0.00000000000E+00 -0.32708048072E+02  0.32708048072E+02  0.00000000000E+00 0.  1.
         25    2    1    2    0    0 -0.38129306019E+02  0.10013118107E+03  0.33627143481E+03  0.37444247338E+03  0.12509432681E+03 0.  0.
         23    2    1    2    0    0  0.38129306019E+02 -0.10013118107E+03  0.28786657444E+03  0.31511163202E+03  0.70342579944E+02 0.  0.
          5    1    3    3  502    0 -0.13889230457E+02  0.11552986968E+03  0.32138421331E+03  0.34182648592E+03  0.41800000000E+01 0. -1.
         -5    1    3    3    0  502 -0.24240075562E+02 -0.15398688606E+02  0.14887221505E+02  0.32615987463E+02  0.41800000000E+01 0. -1.
        -11    1    4    4    0    0  0.11125638086E+02  0.71075978817E+01  0.64876449393E+02  0.66206128540E+02  0.00000000000E+00 0. -1.
         11    1    4    4    0    0  0.27003667934E+02 -0.10723877895E+03  0.22299012505E+03  0.24890550348E+03  0.00000000000E+00 0.  1.
</event>
<event>
 8    1  0.6901948E-009  0.1189814E+03  0.7561462E-02  0.1244787E+00
          2   -1    0    0  501    0  0.00000000000E+00  0.00000000000E+00  0.29090451928E+03  0.29090451928E+03  0.00000000000E+00 0. -1.
         -2   -1    0    0    0  501 -0.00000000000E+00 -0.00000000000E+00 -0.50036901920E+02  0.50036901920E+02  0.00000000000E+00 0.  1.
         25    2    1    2    0    0  0.42855189216E+02 -0.26690379025E+02  0.11270979116E+03  0.17578030854E+03  0.12508507613E+03 0.  0.
         23    2    1    2    0    0 -0.42855189216E+02  0.26690379025E+02  0.12815782620E+03  0.16516111266E+03  0.91130791416E+02 0.  0.
          5    1    3    3  502    0 -0.19953905383E+02  0.38928570086E+02  0.37979158454E+02  0.58081673408E+02  0.41800000000E+01 0. -1.
         -5    1    3    3    0  502  0.62809094599E+02 -0.65618949111E+02  0.74730632703E+02  0.11769863513E+03  0.41800000000E+01 0. -1.
        -11    1    4    4    0    0  0.27810054630E+02  0.14556547087E+02  0.28545870910E+02  0.42428280046E+02  0.00000000000E+00 0.  1.
         11    1    4    4    0    0 -0.70665243846E+02  0.12133831938E+02  0.99611955291E+02  0.12273283262E+03  0.00000000000E+00 0. -1.
</event>
<event>
 8    1  0.6901948E-009  0.1624494E+03  0.7561462E-02  0.1185959E+00
         -2   -1    0    0    0  501 -0.00000000000E+00  0.00000000000E+00  0.26260696850E+02  0.26260696850E+02  0.00000000000E+00 0.  1.
          2   -1    0    0  501    0  0.00000000000E+00 -0.00000000000E+00 -0.13187162771E+04  0.13187162771E+04  0.00000000000E+00 0. -1.
         25    2    1    2    0    0 -0.11140903830E+03 -0.88533595843E+02 -0.49856886606E+03  0.53334405415E+03  0.12503917181E+03 0.  0.
         23    2    1    2    0    0  0.11140903830E+03  0.88533595843E+02 -0.79388671416E+03  0.81163291977E+03  0.90783864891E+02 0.  0.
          5    1    3    3  502    0 -0.81862179031E+02 -0.11595061846E+03 -0.43821866348E+03  0.46065066124E+03  0.41800000000E+01 0.  1.
         -5    1    3    3    0  502 -0.29546859265E+02  0.27417022618E+02 -0.60350202577E+02  0.72693392910E+02  0.41800000000E+01 0.  1.
        -11    1    4    4    0    0  0.10330865723E+03  0.80509868705E+02 -0.78798223946E+03  0.79879316930E+03  0.00000000000E+00 0. -1.
         11    1    4    4    0    0  0.81003810618E+01  0.80237271387E+01 -0.59044746987E+01  0.12839750465E+02  0.00000000000E+00 0.  1.
</event>
<event>
 8    1  0.6901948E-009  0.7150792E+02  0.7561462E-02  0.1355039E+00
         -1   -1    0    0    0  501 -0.00000000000E+00  0.00000000000E+00  0.70104840964E+02  0.70104840964E+02  0.00000000000E+00 0.  1.
          1   -1    0    0  501    0  0.00000000000E+00 -0.00000000000E+00 -0.24048971625E+03  0.24048971625E+03  0.00000000000E+00 0. -1.
         25    2    1    2    0    0  0.47210965719E+01 -0.21940134653E+02 -0.17505101239E+03  0.21631876025E+03  0.12508913156E+03 0.  0.
         23    2    1    2    0    0 -0.47210965719E+01  0.21940134653E+02  0.46661371046E+01  0.94275796967E+02  0.91446677342E+02 0.  0.
          5    1    3    3  502    0  0.51212406611E+02 -0.96337776235E+01 -0.15581908874E+03  0.16435504580E+03  0.41800000000E+01 0.  1.
         -5    1    3    3    0  502 -0.46491310039E+02 -0.12306357030E+02 -0.19231923650E+02  0.51963714453E+02  0.41800000000E+01 0.  1.
        -11    1    4    4    0    0 -0.51138497039E+01 -0.96235317463E+01 -0.38944118131E+02  0.40440180008E+02  0.00000000000E+00 0. -1.
         11    1    4    4    0    0  0.39275313199E+00  0.31563666399E+02  0.43610255236E+02  0.53835616959E+02  0.00000000000E+00 0.  1.
</event>
<event>
 8    1  0.6901948E-009  0.1407690E+03  0.7561462E-02  0.1212298E+00
         -2   -1    0    0    0  501 -0.00000000000E+00  0.00000000000E+00  0.82118862426E+02  0.82118862426E+02  0.00000000000E+00 0.  1.
          2   -1    0    0  501    0  0.00000000000E+00 -0.00000000000E+00 -0.64208672477E+03  0.64208672477E+03  0.00000000000E+00 0. -1.
         25    2    1    2    0    0  0.97827345759E+02  0.50859483289E+02 -0.55590352401E+03  0.58037332871E+03  0.12509035155E+03 0.  0.
         23    2    1    2    0    0 -0.97827345759E+02 -0.50859483289E+02 -0.40643383314E+01  0.14383225848E+03  0.92273089881E+02 0.  0.
          5    1    3    3  502    0  0.19677731250E+02  0.73178387141E+02 -0.36568170924E+03  0.37347406111E+03  0.41800000000E+01 0.  1.
         -5    1    3    3    0  502  0.78149614509E+02 -0.22318903852E+02 -0.19022181477E+03  0.20689926760E+03  0.41800000000E+01 0.  1.
        -11    1    4    4    0    0 -0.16227837448E+02  0.12881667348E+02  0.28547485067E+02  0.35273771638E+02  0.00000000000E+00 0.  1.
         11    1    4    4    0    0 -0.81599508311E+02 -0.63741150637E+02 -0.32611823399E+02  0.10855848685E+03  0.00000000000E+00 0. -1.
</event>
<event>
 8    1  0.6901948E-009  0.8202164E+02  0.7561462E-02  0.1323410E+00
          2   -1    0    0  501    0  0.00000000000E+00  0.00000000000E+00  0.23372500514E+03  0.23372500514E+03  0.00000000000E+00 0.  1.
         -2   -1    0    0    0  501 -0.00000000000E+00 -0.00000000000E+00 -0.52312023476E+02  0.52312023476E+02  0.00000000000E+00 0. -1.
         25    2    1    2    0    0  0.78430547751E+01  0.12173693360E+02  0.12673244101E+03  0.17865777085E+03  0.12509106747E+03 0.  0.
         23    2    1    2    0    0 -0.78430547751E+01 -0.12173693360E+02  0.54680540660E+02  0.10737925777E+03  0.91272291275E+02 0.  0.
          5    1    3    3  502    0  0.33474734938E+02 -0.44026139750E+02  0.28028306016E+02  0.62144325554E+02  0.41800000000E+01 0.  1.
         -5    1    3    3    0  502 -0.25631680163E+02  0.56199833110E+02  0.98704134990E+02  0.11651344529E+03  0.41800000000E+01 0.  1.
        -11    1    4    4    0    0  0.54349088161E+01  0.15255317090E+02  0.70991205091E+02  0.72814930706E+02  0.00000000000E+00 0.  1.
         11    1    4    4    0    0 -0.13277963591E+02 -0.27429010449E+02 -0.16310664431E+02  0.34564327066E+02  0.00000000000E+00 0. -1.
</event>
<event>
 8    1  0.6901948E-009  0.2133956E+03  0.7561462E-02  0.1138905E+00
         -1   -1    0    0    0  501 -0.00000000000E+00  0.00000000000E+00  0.35515137127E+03  0.35515137127E+03  0.00000000000E+00 0.  1.
          1   -1    0    0  501    0  0.00000000000E+00 -0.00000000000E+00 -0.14316347295E+03  0.14316347295E+03  0.00000000000E+00 0. -1.
         25    2    1    2    0    0  0.15786850244E+03 -0.12044331272E+03  0.11632874791E+03  0.26193501064E+03  0.12509403090E+03 0.  0.
         23    2    1    2    0    0 -0.15786850244E+03  0.12044331272E+03  0.95659150402E+02  0.23637983358E+03  0.85414852474E+02 0.  0.
          5    1    3    3  502    0  0.56386968839E+02 -0.11091293704E+03  0.97657883388E+02  0.15822675010E+03  0.41800000000E+01 0. -1.
         -5    1    3    3    0  502  0.10148153360E+03 -0.95303756789E+01  0.18670864525E+02  0.10370826054E+03  0.41800000000E+01 0. -1.
        -11    1    4    4    0    0 -0.30511212582E+02  0.11230645167E+02 -0.14579337366E+02  0.35631707258E+02  0.00000000000E+00 0. -1.
         11    1    4    4    0    0 -0.12735728986E+03  0.10921266756E+03  0.11023848777E+03  0.20074812632E+03  0.00000000000E+00 0.  1.
</event>
<event>
 8    1  0.6901948E-009  0.1546566E+03  0.7561462E-02  0.1194865E+00
          2   -1    0    0  501    0  0.00000000000E+00  0.00000000000E+00  0.48632820666E+03  0.48632820666E+03  0.00000000000E+00 0. -1.
         -2   -1    0    0    0  501 -0.00000000000E+00 -0.00000000000E+00 -0.58279560864E+02  0.58279560864E+02  0.00000000000E+00 0.  1.
         25    2    1    2    0    0  0.67535208750E+02 -0.90950241430E+02  0.32466004962E+03  0.36590258855E+03  0.12509038991E+03 0.  0.
         23    2    1    2    0    0 -0.67535208750E+02  0.90950241430E+02  0.10338859617E+03  0.17870517897E+03  0.91724524185E+02 0.  0.
          5    1    3    3  502    0 -0.18468080375E+02  0.19099774489E+02  0.76736438610E+02  0.81313128023E+02  0.41800000000E+01 0. -1.
         -5    1    3    3    0  502  0.86003289126E+02 -0.11005001592E+03  0.24792361101E+03  0.28458946052E+03  0.41800000000E+01 0. -1.
        -11    1    4    4    0    0 -0.86213504270E+02  0.55258845659E+02  0.56744038999E+02  0.11707345687E+03  0.00000000000E+00 0.  1.
         11    1    4    4    0    0  0.18678295520E+02  0.35691395771E+02  0.46644557170E+02  0.61631722101E+02  0.00000000000E+00 0. -1.
</event>
<event>
 8    1  0.6901948E-009  0.9406813E+02  0.7561462E-02  0.1293289E+00
         -2   -1    0    0    0  501 -0.00000000000E+00  0.00000000000E+00  0.29224754203E+03  0.29224754203E+03  0.00000000000E+00 0.  1.
          2   -1    0    0  501    0  0.00000000000E+00 -0.00000000000E+00 -0.46955281415E+02  0.46955281415E+02  0.00000000000E+00 0. -1.
         25    2    1    2    0    0 -0.31549253084E+02  0.21887260330E+02  0.18429664647E+03  0.22602606623E+03  0.12509245054E+03 0.  0.
         23    2    1    2    0    0  0.31549253084E+02 -0.21887260330E+02  0.60995614149E+02  0.11317675722E+03  0.87258844214E+02 0.  0.
          5    1    3    3  502    0 -0.53317502487E+02 -0.12593242407E+02  0.17577088656E+03  0.18415814614E+03  0.41800000000E+01 0. -1.
         -5    1    3    3    0  502  0.21768249403E+02  0.34480502737E+02  0.85257599063E+01  0.41867920095E+02  0.41800000000E+01 0. -1.
        -11    1    4    4    0    0  0.39515884317E+02  0.23596935671E+02  0.16065502283E+02  0.48748547158E+02  0.00000000000E+00 0. -1.
         11    1    4    4    0    0 -0.79666312326E+01 -0.45484196001E+02  0.44930111866E+02  0.64428210058E+02  0.00000000000E+00 0.  1.
</event>
<event>
 8    1  0.6901948E-009  0.1152267E+03  0.7561462E-02  0.1251186E+00
         -2   -1    0    0    0  501 -0.00000000000E+00  0.00000000000E+00  0.24025568818E+02  0.24025568818E+02  0.00000000000E+00 0.  1.
          2   -1    0    0  501    0  0.00000000000E+00 -0.00000000000E+00 -0.64397911048E+03  0.64397911048E+03  0.00000000000E+00 0. -1.
         25    2    1    2    0    0  0.22055672259E+01 -0.58350271831E+02 -0.38699982098E+03  0.41088471641E+03  0.12509104680E+03 0.  0.
         23    2    1    2    0    0 -0.22055672259E+01  0.58350271831E+02 -0.23295372068E+03  0.25711996289E+03  0.91834746085E+02 0.  0.
          5    1    3    3  502    0  0.56708349218E+02 -0.12189055330E+02 -0.24589003826E+03  0.25267329352E+03  0.41800000000E+01 0.  1.
         -5    1    3    3    0  502 -0.54502781992E+02 -0.46161216500E+02 -0.14110978272E+03  0.15821142289E+03  0.41800000000E+01 0.  1.
        -11    1    4    4    0    0  0.33660802744E+01  0.79149280054E+02 -0.13243608055E+03  0.15432191828E+03  0.00000000000E+00 0.  1.
         11    1    4    4    0    0 -0.55716475003E+01 -0.20799008223E+02 -0.10051764013E+03  0.10279804461E+03  0.00000000000E+00 0. -1.
</event>
<event>
 8    1  0.6901948E-009  0.1031029E+03  0.7561462E-02  0.1273903E+00
         -2   -1    0    0    0  501 -0.00000000000E+00  0.00000000000E+00  0.29848897177E+02  0.29848897177E+02  0.00000000000E+00 0.  1.
          2   -1    0    0  501    0  0.00000000000E+00 -0.00000000000E+00 -0.48047004732E+03  0.48047004732E+03  0.00000000000E+00 0. -1.
         25    2    1    2    0    0  0.28531769315E+02  0.26629016958E+02 -0.18419413438E+03  0.22605002033E+03  0.12509183085E+03 0.  0.
         23    2    1    2    0    0 -0.28531769315E+02 -0.26629016958E+02 -0.26642701576E+03  0.28426892417E+03  0.91116958440E+02 0.  0.
          5    1    3    3  502    0 -0.33300115308E+02 -0.10248258624E+02 -0.84630208411E+01  0.36097362869E+02  0.41800000000E+01 0. -1.
         -5    1    3    3    0  502  0.61831884623E+02  0.36877275582E+02 -0.17573111354E+03  0.18995265746E+03  0.41800000000E+01 0. -1.
        -11    1    4    4    0    0  0.32805325967E+02 -0.16876637399E+02 -0.10624343222E+03  0.11246633804E+03  0.00000000000E+00 0.  1.
         11    1    4    4    0    0 -0.61337095282E+02 -0.97523795590E+01 -0.16018358355E+03  0.17180258613E+03  0.00000000000E+00 0. -1.
</event>
<event>
 8    1  0.6901948E-009  0.9507317E+02  0.7561462E-02  0.1291011E+00
         -2   -1    0    0    0  501 -0.00000000000E+00  0.00000000000E+00  0.48834255344E+02  0.48834255344E+02  0.00000000000E+00 0.  1.
          2   -1    0    0  501    0  0.00000000000E+00 -0.00000000000E+00 -0.27988085391E+03  0.27988085391E+03  0.00000000000E+00 0. -1.
         25    2    1    2    0    0 -0.31155490179E+02 -0.23227796316E+02 -0.10288666419E+03  0.16656174738E+03  0.12508778890E+03 0.  0.
         23    2    1    2    0    0  0.31155490179E+02  0.23227796316E+02 -0.12815993437E+03  0.16215336187E+03  0.91425099932E+02 0.  0.
          5    1    3    3  502    0  0.74513097675E+01  0.45268322779E+02 -0.63697221818E+02  0.78610123596E+02  0.41800000000E+01 0. -1.
         -5    1    3    3    0  502 -0.38606799946E+02 -0.68496119095E+02 -0.39189442374E+02  0.87951623787E+02  0.41800000000E+01 0. -1.
        -11    1    4    4    0    0  0.39151293278E+02 -0.16737230139E+01 -0.90668271252E+01  0.40222288202E+02  0.00000000000E+00 0.  1.
         11    1    4    4    0    0 -0.79958030990E+01  0.24901519330E+02 -0.11909310725E+03  0.12193107367E+03  0.00000000000E+00 0. -1.
</event>
<event>
 8    1  0.6901948E-009  0.1389934E+03  0.7561462E-02  0.1214690E+00
         -2   -1    0    0    0  501 -0.00000000000E+00  0.00000000000E+00  0.17260269390E+02  0.17260269390E+02  0.00000000000E+00 0.  1.
          2   -1    0    0  501    0  0.00000000000E+00 -0.00000000000E+00 -0.23897035589E+04  0.23897035589E+04  0.00000000000E+00 0. -1.
         25    2    1    2    0    0  0.10632873253E+03 -0.16722756190E+02 -0.20348731373E+04  0.20415535486E+04  0.12508699727E+03 0.  0.
         23    2    1    2    0    0 -0.10632873253E+03  0.16722756190E+02 -0.33757015216E+03  0.36541027966E+03  0.89362267840E+02 0.  0.
          5    1    3    3  502    0  0.61987686674E+02  0.34985994953E+02 -0.48860420170E+03  0.49377933478E+03  0.41800000000E+01 0. -1.
         -5    1    3    3    0  502  0.44341045859E+02 -0.51708751144E+02 -0.15462689356E+04  0.15477742138E+04  0.41800000000E+01 0. -1.
        -11    1    4    4    0    0 -0.18266570304E+02 -0.32700513058E+02 -0.69506971631E+02  0.78957015206E+02  0.00000000000E+00 0.  1.
         11    1    4    4    0    0 -0.88062162229E+02  0.49423269248E+02 -0.26806318053E+03  0.28645326445E+03  0.00000000000E+00 0. -1.
</event>
<event>
 8    1  0.6901948E-009  0.1098083E+03  0.7561462E-02  0.1260925E+00
         -2   -1    0    0    0  501 -0.00000000000E+00  0.00000000000E+00  0.38159529007E+02  0.38159529007E+02  0.00000000000E+00 0.  1.
          2   -1    0    0  501    0  0.00000000000E+00 -0.00000000000E+00 -0.43713059239E+03  0.43713059239E+03  0.00000000000E+00 0. -1.
         25    2    1    2    0    0 -0.45991543043E+02 -0.39405602523E+02 -0.16332058667E+03  0.21445399126E+03  0.12509547072E+03 0.  0.
         23    2    1    2    0    0  0.45991543043E+02  0.39405602523E+02 -0.23565047671E+03  0.26083613014E+03  0.94001681209E+02 0.  0.
          5    1    3    3  502    0 -0.36920027601E+02 -0.77280959454E+02 -0.15054444026E+03  0.17325280957E+03  0.41800000000E+01 0.  1.
         -5    1    3    3    0  502 -0.90715154427E+01  0.37875356930E+02 -0.12776146411E+02  0.41201181684E+02  0.41800000000E+01 0.  1.
        -11    1    4    4    0    0  0.23455122307E+02  0.59842105322E+02 -0.21413719357E+03  0.22357539668E+03  0.00000000000E+00 0. -1.
         11    1    4    4    0    0  0.22536420737E+02 -0.20436502799E+02 -0.21513283143E+02  0.37260733459E+02  0.00000000000E+00 0.  1.
</event>
<event>
 8    1  0.6901948E-009  0.1127312E+03  0.7561462E-02  0.1255594E+00
         -2   -1    0    0    0  501 -0.00000000000E+00  0.00000000000E+00  0.39732083894E+02  0.39732083894E+02  0.00000000000E+00 0.  1.
          2   -1    0    0  501    0  0.00000000000E+00 -0.00000000000E+00 -0.38795392406E+03  0.38795392406E+03  0.00000000000E+00 0. -1.
         25    2    1    2    0    0  0.52113337760E+02 -0.26207623724E+02 -0.22286293682E+03  0.26213973687E+03  0.12508682394E+03 0.  0.
         23    2    1    2    0    0 -0.52113337760E+02  0.26207623724E+02 -0.12535890335E+03  0.16554627109E+03  0.91038858234E+02 0.  0.
          5    1    3    3  502    0 -0.74519597697E+01  0.34614523216E+02 -0.17345857439E+02  0.39649061681E+02  0.41800000000E+01 0. -1.
         -5    1    3    3    0  502  0.59565297530E+02 -0.60822146940E+02 -0.20551707938E+03  0.22249067519E+03  0.41800000000E+01 0. -1.
        -11    1    4    4    0    0 -0.74315268759E+02  0.60055322769E+01 -0.10681650201E+03  0.13026354321E+03  0.00000000000E+00 0. -1.
         11    1    4    4    0    0  0.22201930999E+02  0.20202091447E+02 -0.18542401338E+02  0.35282727875E+02  0.00000000000E+00 0.  1.
</event>
<event>
 8    1  0.6901948E-009  0.1059009E+03  0.7561462E-02  0.1268355E+00
          3   -1    0    0  501    0  0.00000000000E+00  0.00000000000E+00  0.40459831830E+02  0.40459831830E+02  0.00000000000E+00 0. -1.
         -3   -1    0    0    0  501 -0.00000000000E+00 -0.00000000000E+00 -0.70258091877E+03  0.70258091877E+03  0.00000000000E+00 0.  1.
         25    2    1    2    0    0 -0.83087817875E+02  0.40292234987E+02 -0.56376510346E+03  0.58481259641E+03  0.12509049267E+03 0.  0.
         23    2    1    2    0    0  0.83087817875E+02 -0.40292234987E+02 -0.98355983479E+02  0.15822815419E+03  0.82675266037E+02 0.  0.
          5    1    3    3  502    0  0.10486843457E+02 -0.68025875177E+01 -0.30950700497E+03  0.30978752010E+03  0.41800000000E+01 0. -1.
         -5    1    3    3    0  502 -0.93574661332E+02  0.47094822505E+02 -0.25425809849E+03  0.27502507630E+03  0.41800000000E+01 0. -1.
        -11    1    4    4    0    0  0.35828105548E+02 -0.26455475046E+02 -0.99455533795E+02  0.10897223733E+03  0.00000000000E+00 0.  1.
         11    1    4    4    0    0  0.47259712327E+02 -0.13836759941E+02  0.10995503161E+01  0.49255916861E+02  0.00000000000E+00 0. -1.
</event>
<event>
 8    1  0.6901948E-009  0.7519462E+02  0.7561462E-02  0.1343269E+00
          2   -1    0    0  501    0  0.00000000000E+00  0.00000000000E+00  0.44839914368E+03  0.44839914368E+03  0.00000000000E+00 0.  1.
         -2   -1    0    0    0  501 -0.00000000000E+00 -0.00000000000E+00 -0.28214822160E+02  0.28214822160E+02  0.00000000000E+00 0. -1.
         25    2    1    2    0    0 -0.24516995337E+02  0.46970013772E+01  0.20009276685E+03  0.23729481301E+03  0.12509423670E+03 0.  0.
         23    2    1    2    0    0  0.24516995337E+02 -0.46970013772E+01  0.22009155467E+03  0.23931915283E+03  0.90610262060E+02 0.  0.
          5    1    3    3  502    0 -0.13154364660E+02  0.27396796139E+02  0.20810141782E+03  0.21035040824E+03  0.41800000000E+01 0. -1.
         -5    1    3    3    0  502 -0.11362630677E+02 -0.22699794762E+02 -0.80086509703E+01  0.26944404771E+02  0.41800000000E+01 0. -1.
        -11    1    4    4    0    0  0.93956448909E+00  0.41821981845E+02  0.98414339649E+02  0.10693616411E+03  0.00000000000E+00 0.  1.
         11    1    4    4    0    0  0.23577430847E+02 -0.46518983222E+02  0.12167721502E+03  0.13238298871E+03  0.00000000000E+00 0. -1.
</event>
<event>
 8    1  0.6901948E-009  0.1151415E+03  0.7561462E-02  0.1251334E+00
         -1   -1    0    0    0  501 -0.00000000000E+00  0.00000000000E+00  0.29833431427E+03  0.29833431427E+03  0.00000000000E+00 0.  1.
          1   -1    0    0  501    0  0.00000000000E+00 -0.00000000000E+00 -0.62053275566E+02  0.62053275566E+02  0.00000000000E+00 0. -1.
         25    2    1    2    0    0  0.75252835665E+02  0.87596664926E+01  0.16001583604E+03  0.21677744613E+03  0.12509065646E+03 0.  0.
         23    2    1    2    0    0 -0.75252835665E+02 -0.87596664926E+01  0.76265202667E+02  0.14361014371E+03  0.95224845528E+02 0.  0.
          5    1    3    3  502    0  0.10183338449E+03 -0.21847658852E+02  0.12721304929E+03  0.16446273348E+03  0.41800000000E+01 0. -1.
         -5    1    3    3    0  502 -0.26580548828E+02  0.30607325345E+02  0.32802786745E+02  0.52314712643E+02  0.41800000000E+01 0. -1.
        -11    1    4    4    0    0 -0.27644599395E+02  0.15678621251E+02 -0.17030135323E+02  0.36056463349E+02  0.00000000000E+00 0. -1.
         11    1    4    4    0    0 -0.47608236270E+02 -0.24438287744E+02  0.93295337990E+02  0.10755368036E+03  0.00000000000E+00 0.  1.
</event>
<event>
 8    1  0.6901948E-009  0.1120327E+03  0.7561462E-02  0.1256851E+00
         -3   -1    0    0    0  501 -0.00000000000E+00  0.00000000000E+00  0.13865256276E+03  0.13865256276E+03  0.00000000000E+00 0.  1.
          3   -1    0    0  501    0  0.00000000000E+00 -0.00000000000E+00 -0.99739817977E+02  0.99739817977E+02  0.00000000000E+00 0. -1.
         25    2    1    2    0    0  0.13384394995E+02  0.42994395653E+02  0.14767859783E+02  0.13376830450E+03  0.12509280363E+03 0.  0.
         23    2    1    2    0    0 -0.13384394995E+02 -0.42994395653E+02  0.24144884997E+02  0.10462407623E+03  0.91299297747E+02 0.  0.
          5    1    3    3  502    0  0.25123942999E+02 -0.35288454705E+02  0.30252387770E+02  0.53001574628E+02  0.41800000000E+01 0.  1.
         -5    1    3    3    0  502 -0.11739548004E+02  0.78282850358E+02 -0.15484527987E+02  0.80766729873E+02  0.41800000000E+01 0.  1.
        -11    1    4    4    0    0 -0.29465670241E+02  0.20423764257E+02  0.13649568083E+02  0.38362306735E+02  0.00000000000E+00 0.  1.
         11    1    4    4    0    0  0.16081275246E+02 -0.63418159910E+02  0.10495316914E+02  0.66261769498E+02  0.00000000000E+00 0. -1.
</event>
<event>
 8    1  0.6901948E-009  0.1019137E+03  0.7561462E-02  0.1276322E+00
         -1   -1    0    0    0  501 -0.00000000000E+00  0.00000000000E+00  0.14779391079E+03  0.14779391079E+03  0.00000000000E+00 0.  1.
          1   -1    0    0  501    0  0.00000000000E+00 -0.00000000000E+00 -0.97748976558E+02  0.97748976558E+02  0.00000000000E+00 0. -1.
         25    2    1    2    0    0  0.20571346736E+02  0.35230056300E+02  0.61134292617E+02  0.14508285661E+03  0.12508915370E+03 0.  0.
         23    2    1    2    0    0 -0.20571346736E+02 -0.35230056300E+02 -0.11089358388E+02  0.10046003074E+03  0.91131261008E+02 0.  0.
          5    1    3    3  502    0  0.71552957906E+02  0.10343784961E+02  0.47439243695E+02  0.86572362303E+02  0.41800000000E+01 0.  1.
         -5    1    3    3    0  502 -0.50981611170E+02  0.24886271339E+02  0.13695048922E+02  0.58510494304E+02  0.41800000000E+01 0.  1.
        -11    1    4    4    0    0 -0.31304595508E+02  0.60398214840E+01 -0.38332148594E+02  0.49857905686E+02  0.00000000000E+00 0. -1.
         11    1    4    4    0    0  0.10733248773E+02 -0.41269877784E+02  0.27242790206E+02  0.50602125052E+02  0.00000000000E+00 0.  1.
</event>
<event>
 8    1  0.6901948E-009  0.7728901E+02  0.7561462E-02  0.1336926E+00
         -2   -1    0    0    0  501 -0.00000000000E+00  0.00000000000E+00  0.99604069973E+02  0.99604069973E+02  0.00000000000E+00 0.  1.
          2   -1    0    0  501    0  0.00000000000E+00 -0.00000000000E+00 -0.14452038781E+03  0.14452038781E+03  0.00000000000E+00 0. -1.
         25    2    1    2    0    0 -0.22918963771E+02  0.37929708396E+02 -0.40807529571E+02  0.13883869141E+03  0.12508791342E+03 0.  0.
         23    2    1    2    0    0  0.22918963771E+02 -0.37929708396E+02 -0.41087882704E+01  0.10528576638E+03  0.95416292010E+02 0.  0.
          5    1    3    3  502    0 -0.73146117591E+01  0.72009831846E+02  0.12467377399E+02  0.73565123033E+02  0.41800000000E+01 0.  1.
         -5    1    3    3    0  502 -0.15604352012E+02 -0.34080123450E+02 -0.53274906970E+02  0.65273568378E+02  0.41800000000E+01 0.  1.
        -11    1    4    4    0    0  0.53344448803E+01 -0.10547615556E+02  0.44915005952E+02  0.46444227367E+02  0.00000000000E+00 0.  1.
         11    1    4    4    0    0  0.17584518891E+02 -0.27382092840E+02 -0.49023794222E+02  0.58841539009E+02  0.00000000000E+00 0. -1.
</event>
<event>
 8    1  0.6901948E-009  0.9755763E+02  0.7561462E-02  0.1285517E+00
         -2   -1    0    0    0  501 -0.00000000000E+00  0.00000000000E+00  0.22124298421E+02  0.22124298421E+02  0.00000000000E+00 0.  1.
          2   -1    0    0  501    0  0.00000000000E+00 -0.00000000000E+00 -0.71471232903E+03  0.71471232903E+03  0.00000000000E+00 0. -1.
         25    2    1    2    0    0  0.22271663211E+02  0.59745897564E+02 -0.36373127381E+03  0.38988897155E+03  0.12508945332E+03 0.  0.
         23    2    1    2    0    0 -0.22271663211E+02 -0.59745897564E+02 -0.32885675679E+03  0.34694765589E+03  0.90334435204E+02 0.  0.
          5    1    3    3  502    0  0.43761869130E+02  0.32595255653E+02 -0.49698819695E+02  0.73925617751E+02  0.41800000000E+01 0.  1.
         -5    1    3    3    0  502 -0.21490205918E+02  0.27150641911E+02 -0.31403245412E+03  0.31596335380E+03  0.41800000000E+01 0.  1.
        -11    1    4    4    0    0 -0.54504577073E+02 -0.41190493262E+02 -0.15881716474E+03  0.17288810680E+03  0.00000000000E+00 0. -1.
         11    1    4    4    0    0  0.32232913862E+02 -0.18555404302E+02 -0.17003959205E+03  0.17405954909E+03  0.00000000000E+00 0.  1.
</event>
<event>
 8    1  0.6901948E-009  0.1049941E+03  0.7561462E-02  0.1270131E+00
          1   -1    0    0  501    0  0.00000000000E+00  0.00000000000E+00  0.91150995493E+02  0.91150995493E+02  0.00000000000E+00 0. -1.
         -1   -1    0    0    0  501 -0.00000000000E+00 -0.00000000000E+00 -0.14278679160E+03  0.14278679160E+03  0.00000000000E+00 0.  1.
         25    2    1    2    0    0 -0.25028715109E+02 -0.23999069248E+02 -0.13987305554E+02  0.13056532135E+03  0.12509702841E+03 0.  0.
         23    2    1    2    0    0  0.25028715109E+02  0.23999069248E+02 -0.37648490550E+02  0.10337246574E+03  0.89811279517E+02 0.  0.
          5    1    3    3  502    0  0.13716338861E+02 -0.66415440737E+02 -0.24081799140E+02  0.72087129017E+02  0.41800000000E+01 0.  1.
         -5    1    3    3    0  502 -0.38745053971E+02  0.42416371489E+02  0.10094493586E+02  0.58478192330E+02  0.41800000000E+01 0.  1.
        -11    1    4    4    0    0 -0.24302419149E+02 -0.80656633411E+01 -0.36423533252E+02  0.44523435135E+02  0.00000000000E+00 0. -1.
         11    1    4    4    0    0  0.49331134258E+02  0.32064732589E+02 -0.12249572987E+01  0.58849030609E+02  0.00000000000E+00 0.  1.
</event>
<event>
 8    1  0.6901948E-009  0.1214032E+03  0.7561462E-02  0.1240800E+00
          3   -1    0    0  501    0  0.00000000000E+00  0.00000000000E+00  0.48046824185E+02  0.48046824185E+02  0.00000000000E+00 0. -1.
         -3   -1    0    0    0  501 -0.00000000000E+00 -0.00000000000E+00 -0.39425330517E+03  0.39425330517E+03  0.00000000000E+00 0.  1.
         25    2    1    2    0    0  0.33969061371E+02 -0.71076287779E+02 -0.23945012856E+03  0.28140693846E+03  0.12509102738E+03 0.  0.
         23    2    1    2    0    0 -0.33969061371E+02  0.71076287779E+02 -0.10675635242E+03  0.16089319089E+03  0.91016285788E+02 0.  0.
          5    1    3    3  502    0 -0.17335801701E+02 -0.68895450767E+02 -0.55130068423E+02  0.90021719609E+02  0.41800000000E+01 0. -1.
         -5    1    3    3    0  502  0.51304863072E+02 -0.21808370120E+01 -0.18432006014E+03  0.19138521885E+03  0.41800000000E+01 0. -1.
        -11    1    4    4    0    0 -0.63762030075E+02  0.33070067414E+02 -0.58673878572E+02  0.92746158221E+02  0.00000000000E+00 0.  1.
         11    1    4    4    0    0  0.29792968704E+02  0.38006220365E+02 -0.48082473848E+02  0.68147032672E+02  0.00000000000E+00 0. -1.
</event>
<event>
 8    1  0.6901948E-009  0.9933096E+02  0.7561462E-02  0.1281709E+00
         -2   -1    0    0    0  501 -0.00000000000E+00  0.00000000000E+00  0.43284129439E+02  0.43284129439E+02  0.00000000000E+00 0.  1.
          2   -1    0    0  501    0  0.00000000000E+00 -0.00000000000E+00 -0.47424291098E+03  0.47424291098E+03  0.00000000000E+00 0. -1.
         25    2    1    2    0    0 -0.57022715608E+02  0.22166197333E+02 -0.36297660341E+03  0.38876106639E+03  0.12506087207E+03 0.  0.
         23    2    1    2    0    0  0.57022715608E+02 -0.22166197333E+02 -0.67982178135E+02  0.12876597403E+03  0.90643086463E+02 0.  0.
          5    1    3    3  502    0 -0.84192661627E+02  0.45123718994E+02 -0.31298609265E+03  0.32726490933E+03  0.41800000000E+01 0. -1.
         -5    1    3    3    0  502  0.27169946019E+02 -0.22957521662E+02 -0.49990510755E+02  0.61496157059E+02  0.41800000000E+01 0. -1.
        -11    1    4    4    0    0  0.25596755761E+02  0.45347107498E+01 -0.81360666114E+02  0.85412619077E+02  0.00000000000E+00 0. -1.
         11    1    4    4    0    0  0.31425959847E+02 -0.26700908083E+02  0.13378487979E+02  0.43353354949E+02  0.00000000000E+00 0.  1.
</event>
<event>
 8    1  0.6901948E-009  0.1851311E+03  0.7561462E-02  0.1162928E+00
         -1   -1    0    0    0  501 -0.00000000000E+00  0.00000000000E+00  0.32996666094E+02  0.32996666094E+02  0.00000000000E+00 0.  1.
          1   -1    0    0  501    0  0.00000000000E+00 -0.00000000000E+00 -0.11730565912E+04  0.11730565912E+04  0.00000000000E+00 0. -1.
         25    2    1    2    0    0  0.73891398082E+02 -0.13058734791E+03 -0.79473332971E+03  0.81838915902E+03  0.12508699415E+03 0.  0.
         23    2    1    2    0    0 -0.73891398082E+02  0.13058734791E+03 -0.34532659536E+03  0.38766409824E+03  0.92303853963E+02 0.  0.
          5    1    3    3  502    0  0.71398074750E+02 -0.15485186204E+03 -0.68942943360E+03  0.71021630548E+03  0.41800000000E+01 0.  1.
         -5    1    3    3    0  502  0.24933233312E+01  0.24264514131E+02 -0.10530389611E+03  0.10817285354E+03  0.41800000000E+01 0.  1.
        -11    1    4    4    0    0 -0.50272237918E+02  0.89848635091E+01 -0.12251571418E+03  0.13273328858E+03  0.00000000000E+00 0. -1.
         11    1    4    4    0    0 -0.23619160164E+02  0.12160248440E+03 -0.22281088119E+03  0.25493080966E+03  0.00000000000E+00 0.  1.
</event>
<event>
 8    1  0.6901948E-009  0.1560969E+03  0.7561462E-02  0.1193175E+00
         -1   -1    0    0    0  501 -0.00000000000E+00  0.00000000000E+00  0.16926858184E+02  0.16926858184E+02  0.00000000000E+00 0.  1.
          1   -1    0    0  501    0  0.00000000000E+00 -0.00000000000E+00 -0.18036542682E+04  0.18036542682E+04  0.00000000000E+00 0. -1.
         25    2    1    2    0    0  0.11437532823E+03  0.61179192714E+02 -0.11564700378E+04  0.11704244328E+04  0.12508315335E+03 0.  0.
         23    2    1    2    0    0 -0.11437532823E+03 -0.61179192714E+02 -0.63025737217E+03  0.65015669353E+03  0.93030971407E+02 0.  0.
          5    1    3    3  502    0  0.77646211387E+02 -0.47683360888E+01 -0.89099710526E+03  0.89439643624E+03  0.41800000000E+01 0.  1.
         -5    1    3    3    0  502  0.36729116844E+02  0.65947528802E+02 -0.26547293257E+03  0.27602799660E+03  0.41800000000E+01 0.  1.
        -11    1    4    4    0    0 -0.42787901013E+02 -0.74460265212E+02 -0.30576384925E+03  0.31759513075E+03  0.00000000000E+00 0.  1.
         11    1    4    4    0    0 -0.71587427218E+02  0.13281072498E+02 -0.32449352292E+03  0.33256156278E+03  0.00000000000E+00 0. -1.
</event>
<event>
 8    1  0.6901948E-009  0.9798773E+02  0.7561462E-02  0.1284585E+00
         -2   -1    0    0    0  501 -0.00000000000E+00  0.00000000000E+00  0.21374785649E+02  0.21374785649E+02  0.00000000000E+00 0.  1.
          2   -1    0    0  501    0  0.00000000000E+00 -0.00000000000E+00 -0.72690255416E+03  0.72690255416E+03  0.00000000000E+00 0. -1.
         25    2    1    2    0    0 -0.37836330200E+02 -0.37455299689E+02 -0.30837165945E+03  0.33700905998E+03  0.12509012272E+03 0.  0.
         23    2    1    2    0    0  0.37836330200E+02  0.37455299689E+02 -0.39715610907E+03  0.41126827983E+03  0.92596628817E+02 0.  0.
          5    1    3    3  502    0  0.23773802484E+02  0.52036817209E+01 -0.21862611562E+03  0.22001618763E+03  0.41800000000E+01 0. -1.
         -5    1    3    3    0  502 -0.61610132684E+02 -0.42658981410E+02 -0.89745543827E+02  0.11699287235E+03  0.41800000000E+01 0. -1.
        -11    1    4    4    0    0  0.17430929413E+02  0.61945687182E+02 -0.33798690102E+03  0.34405849898E+03  0.00000000000E+00 0. -1.
         11    1    4    4    0    0  0.20405400787E+02 -0.24490387493E+02 -0.59169208044E+02  0.67209780846E+02  0.00000000000E+00 0.  1.
</event>
<event>
 7    1  0.6901948E-009  0.1434909E+03  0.7561462E-02  0.1208707E+00
          2   -1    0    0  501    0  0.00000000000E+00  0.00000000000E+00  0.11710525930E+03  0.11710525930E+03  0.00000000000E+00 0. -1.
         -2   -1    0    0    0  501 -0.00000000000E+00 -0.00000000000E+00 -0.23311641881E+03  0.23311641881E+03  0.00000000000E+00 0.  1.
         23    2    1    2    0    0 -0.41773316026E+01 -0.10954020230E+03  0.59187807757E+01  0.14407649916E+03  0.93308625673E+02 0.  0.
          5    1    1    2  502    0 -0.59517541314E+02  0.53707359766E+02 -0.71354653851E+02  0.10740473567E+03  0.41800000000E+01 0.  1.
         -5    1    1    2    0  502  0.63694872917E+02  0.55832842536E+02 -0.50575286434E+02  0.98740443281E+02  0.41800000000E+01 0.  1.
        -11    1    3    3    0    0 -0.22299523597E+02 -0.97795570313E+02 -0.27753366569E+02  0.10407445259E+03  0.00000000000E+00 0.  1.
         11    1    3    3    0    0  0.18122191995E+02 -0.11744631990E+02  0.33672147345E+02  0.40002046574E+02  0.00000000000E+00 0. -1.
</event>
<event>
 8    1  0.6901948E-009  0.1400284E+03  0.7561462E-02  0.1213291E+00
         -2   -1    0    0    0  501 -0.00000000000E+00  0.00000000000E+00  0.59449628055E+02  0.59449628055E+02  0.00000000000E+00 0.  1.
          2   -1    0    0  501    0  0.00000000000E+00 -0.00000000000E+00 -0.33417204928E+03  0.33417204928E+03  0.00000000000E+00 0. -1.
         25    2    1    2    0    0  0.87877061037E+02  0.38906300111E+02 -0.15622370011E+03  0.22201069884E+03  0.12508728105E+03 0.  0.
         23    2    1    2    0    0 -0.87877061037E+02 -0.38906300111E+02 -0.11849872111E+03  0.17161097849E+03  0.78564005680E+02 0.  0.
          5    1    3    3  502    0 -0.29842165482E+02  0.21476472107E+02 -0.24168253985E+02  0.44196952333E+02  0.41800000000E+01 0.  1.
         -5    1    3    3    0  502  0.11771922652E+03  0.17429828003E+02 -0.13205544612E+03  0.17781374651E+03  0.41800000000E+01 0.  1.
        -11    1    4    4    0    0 -0.32212072149E+02  0.23857622481E+02 -0.34375932852E+02  0.52806330132E+02  0.00000000000E+00 0. -1.
         11    1    4    4    0    0 -0.55664988888E+02 -0.62763922592E+02 -0.84122788262E+02  0.11880464836E+03  0.00000000000E+00 0.  1.
</event>
<event>
 8    1  0.6901948E-009  0.1278540E+03  0.7561462E-02  0.1230675E+00
          1   -1    0    0  501    0  0.00000000000E+00  0.00000000000E+00  0.51493747008E+03  0.51493747008E+03  0.00000000000E+00 0. -1.
         -1   -1    0    0    0  501 -0.00000000000E+00 -0.00000000000E+00 -0.46610094463E+02  0.46610094463E+02  0.00000000000E+00 0.  1.
         25    2    1    2    0    0  0.10839078875E+03  0.74859543654E+01  0.28545738830E+03  0.33005790478E+03  0.12509075655E+03 0.  0.
         23    2    1    2    0    0 -0.10839078875E+03 -0.74859543654E+01  0.18286998733E+03  0.23148965977E+03  0.91331416927E+02 0.  0.
          5    1    3    3  502    0  0.58319469579E+02 -0.25960349517E+02  0.25411925837E+03  0.26204803024E+03  0.41800000000E+01 0.  1.
         -5    1    3    3    0  502  0.50071319171E+02  0.33446303883E+02  0.31338129927E+02  0.68009874535E+02  0.41800000000E+01 0.  1.
        -11    1    4    4    0    0 -0.38530618554E+02  0.32913815235E+02  0.30710879199E+02  0.59254416719E+02  0.00000000000E+00 0.  1.
         11    1    4    4    0    0 -0.69860170196E+02 -0.40399769600E+02  0.15215910813E+03  0.17223524305E+03  0.00000000000E+00 0. -1.
</event>
<event>
 8    1  0.6901948E-009  0.1313828E+03  0.7561462E-02  0.1225418E+00
         -2   -1    0    0    0  501 -0.00000000000E+00  0.00000000000E+00  0.26855884494E+02  0.26855884494E+02  0.00000000000E+00 0.  1.
          2   -1    0    0  501    0  0.00000000000E+00 -0.00000000000E+00 -0.10058287439E+04  0.10058287439E+04  0.00000000000E+00 0. -1.
         25    2    1    2    0    0 -0.12075393821E+03 -0.99141982741E+01 -0.49313820444E+03  0.52298495772E+03  0.12509265530E+03 0.  0.
         23    2    1    2    0    0  0.12075393821E+03  0.99141982741E+01 -0.48583465498E+03  0.50969967069E+03  0.95281883874E+02 0.  0.
          5    1    3    3  502    0 -0.30109098490E+02  0.72873977906E+01 -0.35764545593E+03  0.35900892541E+03  0.41800000000E+01 0. -1.
         -5    1    3    3    0  502 -0.90644839716E+02 -0.17201596065E+02 -0.13549274851E+03  0.16397603231E+03  0.41800000000E+01 0. -1.
        -11    1    4    4    0    0  0.85814662292E+02  0.38452799938E+02 -0.41647548331E+03  0.42695971974E+03  0.00000000000E+00 0.  1.
         11    1    4    4    0    0  0.34939275914E+02 -0.28538601664E+02 -0.69359171678E+02  0.82739950944E+02  0.00000000000E+00 0. -1.
</event>
<event>
 8    1  0.6901948E-009  0.1071529E+03  0.7561462E-02  0.1265935E+00
          2   -1    0    0  501    0  0.00000000000E+00  0.00000000000E+00  0.35631336250E+02  0.35631336250E+02  0.00000000000E+00 0. -1.
         -2   -1    0    0    0  501 -0.00000000000E+00 -0.00000000000E+00 -0.38716426472E+03  0.38716426472E+03  0.00000000000E+00 0.  1.
         25    2    1    2    0    0 -0.78736127958E+01 -0.36032220523E+01 -0.19772313270E+03  0.23412853265E+03  0.12508699218E+03 0.  0.
         23    2    1    2    0    0  0.78736127958E+01  0.36032220523E+01 -0.15380979578E+03  0.18866706832E+03  0.10891663052E+03 0.  0.
          5    1    3    3  502    0  0.38372701612E+02 -0.39757671007E+02 -0.14457708529E+03  0.15483262777E+03  0.41800000000E+01 0.  1.
         -5    1    3    3    0  502 -0.46246314408E+02  0.36154448955E+02 -0.53146047407E+02  0.79295904879E+02  0.41800000000E+01 0.  1.
        -11    1    4    4    0    0  0.44385142745E+02 -0.27385102046E+02 -0.41759138645E+02  0.66811753239E+02  0.00000000000E+00 0. -1.
         11    1    4    4    0    0 -0.36511529949E+02  0.30988324098E+02 -0.11205065713E+03  0.12185531508E+03  0.00000000000E+00 0.  1.
</event>
<event>
 8    1  0.6901948E-009  0.1818946E+03  0.7561462E-02  0.1165982E+00
         -2   -1    0    0    0  501 -0.00000000000E+00  0.00000000000E+00  0.11425272534E+03  0.11425272534E+03  0.00000000000E+00 0.  1.
          2   -1    0    0  501    0  0.00000000000E+00 -0.00000000000E+00 -0.43637359450E+03  0.43637359450E+03  0.00000000000E+00 0. -1.
         25    2    1    2    0    0  0.16832104817E+03 -0.10691813203E+02 -0.47368835137E+02  0.21526260055E+03  0.12509152859E+03 0.  0.
         23    2    1    2    0    0 -0.16832104817E+03  0.10691813203E+02 -0.27475203403E+03  0.33536371930E+03  0.92378860628E+02 0.  0.
          5    1    3    3  502    0  0.13923518433E+03  0.28019700344E+02 -0.73617206837E+02  0.16002657812E+03  0.41800000000E+01 0. -1.
         -5    1    3    3    0  502  0.29085863836E+02 -0.38711513547E+02  0.26248371699E+02  0.55236022423E+02  0.41800000000E+01 0. -1.
        -11    1    4    4    0    0 -0.56282513290E+01  0.87405132025E+01  0.51547570687E+01  0.11603676336E+02  0.00000000000E+00 0.  1.
         11    1    4    4    0    0 -0.16269279684E+03  0.19513000009E+01 -0.27990679110E+03  0.32376004296E+03  0.00000000000E+00 0. -1.
</event>
<event>
 8    1  0.6901948E-009  0.8385050E+02  0.7561462E-02  0.1318466E+00
          2   -1    0    0  501    0  0.00000000000E+00  0.00000000000E+00  0.44922888950E+03  0.44922888950E+03  0.00000000000E+00 0. -1.
         -2   -1    0    0    0  501 -0.00000000000E+00 -0.00000000000E+00 -0.34409461749E+02  0.34409461749E+02  0.00000000000E+00 0.  1.
         25    2    1    2    0    0 -0.83857366754E+01 -0.37332303319E+02  0.32628216945E+03  0.35152755018E+03  0.12509013943E+03 0.  0.
         23    2    1    2    0    0  0.83857366754E+01  0.37332303319E+02  0.88537258297E+02  0.13211080107E+03  0.90279544755E+02 0.  0.
          5    1    3    3  502    0 -0.65973019143E+02 -0.17435479055E+02  0.14677205844E+03  0.16191338649E+03  0.41800000000E+01 0. -1.
         -5    1    3    3    0  502  0.57587282467E+02 -0.19896824264E+02  0.17951011101E+03  0.18961416369E+03  0.41800000000E+01 0. -1.
        -11    1    4    4    0    0  0.46494336362E+01  0.19897233698E+02 -0.16069568930E+02  0.25995157002E+02  0.00000000000E+00 0.  1.
         11    1    4    4    0    0  0.37363030392E+01  0.17435069621E+02  0.10460682723E+03  0.10611564407E+03  0.00000000000E+00 0. -1.
</event>
<event>
 8    1  0.6901948E-009  0.9743663E+02  0.7561462E-02  0.1285781E+00
          2   -1    0    0  501    0  0.00000000000E+00  0.00000000000E+00  0.26496003319E+03  0.26496003319E+03  0.00000000000E+00 0. -1.
         -2   -1    0    0    0  501 -0.00000000000E+00 -0.00000000000E+00 -0.51314100773E+02  0.51314100773E+02  0.00000000000E+00 0.  1.
         25    2    1    2    0    0  0.13436697261E+02  0.33700434561E+02  0.10400832176E+03  0.16667817767E+03  0.12509044645E+03 0.  0.
         23    2    1    2    0    0 -0.13436697261E+02 -0.33700434561E+02  0.10963761065E+03  0.14959595629E+03  0.95090905690E+02 0.  0.
          5    1    3    3  502    0  0.52948653760E+02  0.51324330873E+02  0.98125356846E+02  0.12281614279E+03  0.41800000000E+01 0. -1.
         -5    1    3    3    0  502 -0.39511956499E+02 -0.17623896311E+02  0.58829649143E+01  0.43862034879E+02  0.41800000000E+01 0. -1.
        -11    1    4    4    0    0  0.28136208547E+02 -0.15965814048E+02  0.14913019893E+01  0.32384833352E+02  0.00000000000E+00 0.  1.
         11    1    4    4    0    0 -0.41572905808E+02 -0.17734620513E+02  0.10814630866E+03  0.11721112293E+03  0.00000000000E+00 0. -1.
</event>
<event>
 8    1  0.6901948E-009  0.1370087E+03  0.7561462E-02  0.1217412E+00
         -2   -1    0    0    0  501 -0.00000000000E+00  0.00000000000E+00  0.15434024934E+02  0.15434024934E+02  0.00000000000E+00 0.  1.
          2   -1    0    0  501    0  0.00000000000E+00 -0.00000000000E+00 -0.24711138695E+04  0.24711138695E+04  0.00000000000E+00 0. -1.
         25    2    1    2    0    0  0.41355335589E+02 -0.78644861492E+02 -0.21492814789E+04  0.21547515576E+04  0.12509245185E+03 0.  0.
         23    2    1    2    0    0 -0.41355335589E+02  0.78644861492E+02 -0.30639836573E+03  0.33179633688E+03  0.91178794800E+02 0.  0.
          5    1    3    3  502    0 -0.31127618650E+02 -0.71040825341E+02 -0.13102739266E+04  0.13125741741E+04  0.41800000000E+01 0.  1.
         -5    1    3    3    0  502  0.72482954239E+02 -0.76040361513E+01 -0.83900755232E+03  0.84217738350E+03  0.41800000000E+01 0.  1.
        -11    1    4    4    0    0 -0.67618818078E+02  0.47670463417E+02 -0.16351193818E+03  0.18325100700E+03  0.00000000000E+00 0.  1.
         11    1    4    4    0    0  0.26263482489E+02  0.30974398075E+02 -0.14288642755E+03  0.14854532988E+03  0.00000000000E+00 0. -1.
</event>
<event>
 8    1  0.6901948E-009  0.1382756E+03  0.7561462E-02  0.1215668E+00
         -1   -1    0    0    0  501 -0.00000000000E+00  0.00000000000E+00  0.46780198549E+02  0.46780198549E+02  0.00000000000E+00 0.  1.
          1   -1    0    0  501    0  0.00000000000E+00 -0.00000000000E+00 -0.55852168666E+03  0.55852168666E+03  0.00000000000E+00 0. -1.
         25    2    1    2    0    0  0.65019999217E+02  0.10016147940E+03 -0.26056293073E+03  0.31272968713E+03  0.12508754569E+03 0.  0.
         23    2    1    2    0    0 -0.65019999217E+02 -0.10016147940E+03 -0.25117855738E+03  0.29257219808E+03  0.90817956087E+02 0.  0.
          5    1    3    3  502    0  0.74322091081E+01  0.91522652567E+02 -0.22811143795E+03  0.24593481695E+03  0.41800000000E+01 0.  1.
         -5    1    3    3    0  502  0.57587790109E+02  0.86388268325E+01 -0.32451492784E+02  0.66794870181E+02  0.41800000000E+01 0.  1.
        -11    1    4    4    0    0 -0.48430107511E+02 -0.37000627402E+02 -0.20151431608E+03  0.21052919353E+03  0.00000000000E+00 0. -1.
         11    1    4    4    0    0 -0.16589891705E+02 -0.63160851998E+02 -0.49664241294E+02  0.82043004548E+02  0.00000000000E+00 0.  1.
</event>
<event>
 8    1  0.6901948E-009  0.1390307E+03  0.7561462E-02  0.1214639E+00
          2   -1    0    0  501    0  0.00000000000E+00  0.00000000000E+00  0.30805108076E+03  0.30805108076E+03  0.00000000000E+00 0. -1.
         -2   -1    0    0    0  501 -0.00000000000E+00 -0.00000000000E+00 -0.70441338164E+02  0.70441338164E+02  0.00000000000E+00 0.  1.
         25    2    1    2    0    0  0.67663236194E+02 -0.64915570793E+02  0.11261525817E+03  0.19267104629E+03  0.12509033073E+03 0.  0.
         23    2    1    2    0    0 -0.67663236194E+02  0.64915570793E+02  0.12499448442E+03  0.18582137263E+03  0.10056647815E+03 0.  0.
          5    1    3    3  502    0  0.95969421154E+02 -0.48751062803E+02  0.11754500105E+03  0.15943994353E+03  0.41800000000E+01 0. -1.
         -5    1    3    3    0  502 -0.28306184960E+02 -0.16164507990E+02 -0.49297428811E+01  0.33231102757E+02  0.41800000000E+01 0. -1.
        -11    1    4    4    0    0 -0.88967882916E+02  0.72596090599E+02  0.10309818231E+03  0.15432015991E+03  0.00000000000E+00 0. -1.
         11    1    4    4    0    0  0.21304646723E+02 -0.76805198052E+01  0.21896302118E+02  0.31501212721E+02  0.00000000000E+00 0.  1.
</event>
<event>
 8    1  0.6901948E-009  0.1341830E+03  0.7561462E-02  0.1221378E+00
          1   -1    0    0  501    0  0.00000000000E+00  0.00000000000E+00  0.47930358018E+03  0.47930358018E+03  0.00000000000E+00 0. -1.
         -1   -1    0    0    0  501 -0.00000000000E+00 -0.00000000000E+00 -0.50396320441E+02  0.50396320441E+02  0.00000000000E+00 0.  1.
         25    2    1    2    0    0 -0.90875879521E+02  0.46502775499E+02  0.30749102288E+03  0.34730246125E+03  0.12508931544E+03 0.  0.
         23    2    1    2    0    0  0.90875879521E+02 -0.46502775499E+02  0.12141623686E+03  0.18239743937E+03  0.90033269993E+02 0.  0.
          5    1    3    3  502    0 -0.30062954775E+01  0.67147161696E+02  0.95493615292E+02  0.11685153871E+03  0.41800000000E+01 0.  1.
         -5    1    3    3    0  502 -0.87869584043E+02 -0.20644386197E+02  0.21199740758E+03  0.23045092255E+03  0.41800000000E+01 0.  1.
        -11    1    4    4    0    0  0.81060794865E+02 -0.21590667474E+02  0.33218105253E+02  0.90224452909E+02  0.00000000000E+00 0.  1.
         11    1    4    4    0    0  0.98150846561E+01 -0.24912108025E+02  0.88198131610E+02  0.92172986458E+02  0.00000000000E+00 0. -1.
</event>
<event>
 8    1  0.6901948E-009  0.9636631E+02  0.7561462E-02  0.1288128E+00
          2   -1    0    0  501    0  0.00000000000E+00  0.00000000000E+00  0.15176792100E+03  0.15176792100E+03  0.00000000000E+00 0. -1.
         -2   -1    0    0    0  501 -0.00000000000E+00 -0.00000000000E+00 -0.12796778014E+03  0.12796778014E+03  0.00000000000E+00 0.  1.
         25    2    1    2    0    0 -0.36138336716E+02  0.75001491853E+02  0.39710733184E+02  0.15542046403E+03  0.12508946857E+03 0.  0.
         23    2    1    2    0    0  0.36138336716E+02 -0.75001491853E+02 -0.15910592330E+02  0.12431523712E+03  0.90939144875E+02 0.  0.
          5    1    3    3  502    0 -0.47142982994E+02  0.68294683652E+02 -0.26984696294E+02  0.87362869085E+02  0.41800000000E+01 0.  1.
         -5    1    3    3    0  502  0.11004646278E+02  0.67068082018E+01  0.66695429479E+02  0.68057594942E+02  0.41800000000E+01 0.  1.
        -11    1    4    4    0    0  0.16564735949E+02 -0.74703063373E+02 -0.45360760946E+02  0.88952441158E+02  0.00000000000E+00 0.  1.
         11    1    4    4    0    0  0.19573600767E+02 -0.29842847987E+00  0.29450168616E+02  0.35362795959E+02  0.00000000000E+00 0. -1.
</event>
<event>
 8    1  0.6901948E-009  0.1559488E+03  0.7561462E-02  0.1193348E+00
          2   -1    0    0  501    0  0.00000000000E+00  0.00000000000E+00  0.23711790509E+03  0.23711790509E+03  0.00000000000E+00 0. -1.
         -2   -1    0    0    0  501 -0.00000000000E+00 -0.00000000000E+00 -0.11358551034E+03  0.11358551034E+03  0.00000000000E+00 0.  1.
         25    2    1    2    0    0  0.13793263525E+02  0.12180524549E+03  0.76896168704E+02  0.19127571302E+03  0.12508639288E+03 0.  0.
         23    2    1    2    0    0 -0.13793263525E+02 -0.12180524549E+03  0.46636226053E+02  0.15942770240E+03  0.90639300333E+02 0.  0.
          5    1    3    3  502    0  0.40362305859E+02 -0.38436672435E+01 -0.14387598412E+01  0.40785192681E+02  0.41800000000E+01 0.  1.
         -5    1    3    3    0  502 -0.26569042334E+02  0.12564891274E+03  0.78334928546E+02  0.15049052034E+03  0.41800000000E+01 0.  1.
        -11    1    4    4    0    0 -0.38985372334E+02 -0.35468526616E+02  0.45272956194E+02  0.69480329582E+02  0.00000000000E+00 0. -1.
         11    1    4    4    0    0  0.25192108809E+02 -0.86336718878E+02  0.13632698598E+01  0.89947372822E+02  0.00000000000E+00 0.  1.
</event>
<event>
 8    1  0.6901948E-009  0.1008520E+03  0.7561462E-02  0.1278514E+00
         -2   -1    0    0    0  501 -0.00000000000E+00  0.00000000000E+00  0.50335964175E+02  0.50335964175E+02  0.00000000000E+00 0.  1.
          2   -1    0    0  501    0  0.00000000000E+00 -0.00000000000E+00 -0.28954951571E+03  0.28954951571E+03  0.00000000000E+00 0. -1.
         25    2    1    2    0    0  0.50290256734E+02 -0.47208163192E+01 -0.16793512059E+03  0.21541019526E+03  0.12509177217E+03 0.  0.
         23    2    1    2    0    0 -0.50290256734E+02  0.47208163192E+01 -0.71278430944E+02  0.12447528462E+03  0.88668403253E+02 0.  0.
          5    1    3    3  502    0 -0.67725486179E+01  0.37601659176E+02 -0.64949525646E+01  0.38979597181E+02  0.41800000000E+01 0. -1.
         -5    1    3    3    0  502  0.57062805352E+02 -0.42322475495E+02 -0.16144016803E+03  0.17643059808E+03  0.41800000000E+01 0. -1.
        -11    1    4    4    0    0 -0.37924867887E+02  0.39758696322E+02 -0.67635456038E+02  0.87141290161E+02  0.00000000000E+00 0. -1.
         11    1    4    4    0    0 -0.12365388847E+02 -0.35037880003E+02 -0.36429749061E+01  0.37333994463E+02  0.00000000000E+00 0.  1.
</event>
<event>
 8    1  0.6901948E-009  0.9719860E+02  0.7561462E-02  0.1286300E+00
          2   -1    0    0  501    0  0.00000000000E+00  0.00000000000E+00  0.12247127910E+04  0.12247127910E+04  0.00000000000E+00 0. -1.
         -2   -1    0    0    0  501 -0.00000000000E+00 -0.00000000000E+00 -0.10961380861E+02  0.10961380861E+02  0.00000000000E+00 0.  1.
         25    2    1    2    0    0 -0.35410538747E+02 -0.16926635593E+02  0.72494551657E+03  0.73670672718E+03  0.12510148933E+03 0.  0.
         23    2    1    2    0    0  0.35410538747E+02  0.16926635593E+02  0.48880589360E+03  0.49896744471E+03  0.92178587622E+02 0.  0.
          5    1    3    3  502    0 -0.50586861507E+02 -0.42004941563E+02  0.19296697984E+03  0.20390481451E+03  0.41800000000E+01 0. -1.
         -5    1    3    3    0  502  0.15176322760E+02  0.25078305970E+02  0.53197853673E+03  0.53280191267E+03  0.41800000000E+01 0. -1.
        -11    1    4    4    0    0  0.27503906569E+01  0.51365660008E+02  0.21419298442E+03  0.22028306846E+03  0.00000000000E+00 0.  1.
         11    1    4    4    0    0  0.32660148090E+02 -0.34439024416E+02  0.27461290918E+03  0.27868437625E+03  0.00000000000E+00 0. -1.
</event>
<event>
 8    1  0.6901948E-009  0.1225338E+03  0.7561462E-02  0.1238975E+00
         -2   -1    0    0    0  501 -0.00000000000E+00  0.00000000000E+00  0.30017037385E+02  0.30017037385E+02  0.00000000000E+00 0.  1.
          2   -1    0    0  501    0  0.00000000000E+00 -0.00000000000E+00 -0.62199383769E+03  0.62199383769E+03  0.00000000000E+00 0. -1.
         25    2    1    2    0    0  0.22672980903E+02  0.63246427215E+02 -0.44563880972E+03  0.46771300577E+03  0.12508929777E+03 0.  0.
         23    2    1    2    0    0 -0.22672980903E+02 -0.63246427215E+02 -0.14633799059E+03  0.18429786931E+03  0.89647769210E+02 0.  0.
          5    1    3    3  502    0 -0.13292523534E+02 -0.32466892880E+02 -0.17139615454E+03  0.17499972716E+03  0.41800000000E+01 0.  1.
         -5    1    3    3    0  502  0.35965504437E+02  0.95713320094E+02 -0.27424265519E+03  0.29271327861E+03  0.41800000000E+01 0.  1.
        -11    1    4    4    0    0 -0.50223581155E+02 -0.15998375531E+02 -0.45722145532E+02  0.69777293697E+02  0.00000000000E+00 0.  1.
         11    1    4    4    0    0  0.27550600253E+02 -0.47248051684E+02 -0.10061584505E+03  0.11452057561E+03  0.00000000000E+00 0. -1.
</event>
<event>
 8    1  0.6901948E-009  0.8745936E+02  0.7561462E-02  0.1309124E+00
         -2   -1    0    0    0  501 -0.00000000000E+00  0.00000000000E+00  0.96233258996E+02  0.96233258996E+02  0.00000000000E+00 0.  1.
          2   -1    0    0  501    0  0.00000000000E+00 -0.00000000000E+00 -0.17992290807E+03  0.17992290807E+03  0.00000000000E+00 0. -1.
         25    2    1    2    0    0  0.37047622061E+02  0.19502863740E+02  0.16348227155E+02  0.13291914283E+03  0.12508935209E+03 0.  0.
         23    2    1    2    0    0 -0.37047622061E+02 -0.19502863740E+02 -0.10003787623E+03  0.14323702423E+03  0.93575533320E+02 0.  0.
          5    1    3    3  502    0  0.23035532625E+02  0.63062379987E+02  0.42965027003E+02  0.79818327960E+02  0.41800000000E+01 0.  1.
         -5    1    3    3    0  502  0.14012089437E+02 -0.43559516247E+02 -0.26616799849E+02  0.53100814874E+02  0.41800000000E+01 0.  1.
        -11    1    4    4    0    0  0.93347634857E+01 -0.11204794988E+02  0.13772043045E+02  0.20058773883E+02  0.00000000000E+00 0.  1.
         11    1    4    4    0    0 -0.46382385547E+02 -0.82980687520E+01 -0.11380991927E+03  0.12317825035E+03  0.00000000000E+00 0. -1.
</event>
<event>
 8    1  0.6901948E-009  0.1135200E+03  0.7561462E-02  0.1254187E+00
          2   -1    0    0  501    0  0.00000000000E+00  0.00000000000E+00  0.34216060936E+03  0.34216060936E+03  0.00000000000E+00 0. -1.
         -2   -1    0    0    0  501 -0.00000000000E+00 -0.00000000000E+00 -0.64495008784E+02  0.64495008784E+02  0.00000000000E+00 0.  1.
         25    2    1    2    0    0 -0.31684203636E+02  0.33089262297E+02  0.27152649950E+03  0.30245158494E+03  0.12510608804E+03 0.  0.
         23    2    1    2    0    0  0.31684203636E+02 -0.33089262297E+02  0.61391010775E+01  0.10420403320E+03  0.93391669512E+02 0.  0.
          5    1    3    3  502    0 -0.58001129200E+02 -0.23494659015E+02  0.84417907993E+02  0.10516646605E+03  0.41800000000E+01 0. -1.
         -5    1    3    3    0  502  0.26316925564E+02  0.56583921312E+02  0.18710859150E+03  0.19728511889E+03  0.41800000000E+01 0. -1.
        -11    1    4    4    0    0  0.53795494693E+02 -0.50384104016E+02 -0.52893244902E+01  0.73895129341E+02  0.00000000000E+00 0.  1.
         11    1    4    4    0    0 -0.22111291058E+02  0.17294841719E+02  0.11428425568E+02  0.30308903861E+02  0.00000000000E+00 0. -1.
</event>
<event>
 8    1  0.6901948E-009  0.7953935E+02  0.7561462E-02  0.1330364E+00
         -2   -1    0    0    0  501 -0.00000000000E+00  0.00000000000E+00  0.20647635423E+02  0.20647635423E+02  0.00000000000E+00 0. -1.
          2   -1    0    0  501    0  0.00000000000E+00 -0.00000000000E+00 -0.63709304849E+03  0.63709304849E+03  0.00000000000E+00 0.  1.
         25    2    1    2    0    0  0.16866709776E+02  0.15500443758E+02 -0.26321738625E+03  0.29233305858E+03  0.12510185873E+03 0.  0.
         23    2    1    2    0    0 -0.16866709776E+02 -0.15500443758E+02 -0.35322802681E+03  0.36540762533E+03  0.90708015459E+02 0.  0.
          5    1    3    3  502    0  0.19239528788E+02  0.40468279518E+02 -0.26308503070E+03  0.26690643846E+03  0.41800000000E+01 0. -1.
         -5    1    3    3    0  502 -0.23728190116E+01 -0.24967835759E+02 -0.13235555312E+00  0.25426620117E+02  0.41800000000E+01 0. -1.
        -11    1    4    4    0    0 -0.29059472776E+02  0.29867235852E+02 -0.22542137461E+03  0.22924070508E+03  0.00000000000E+00 0. -1.
         11    1    4    4    0    0  0.12192763000E+02 -0.45367679610E+02 -0.12780665221E+03  0.13616692025E+03  0.00000000000E+00 0.  1.
</event>
<event>
 8    1  0.6901948E-009  0.1251042E+03  0.7561462E-02  0.1234906E+00
          4   -1    0    0  501    0  0.00000000000E+00  0.00000000000E+00  0.15866936486E+03  0.15866936486E+03  0.00000000000E+00 0.  1.
         -4   -1    0    0    0  501 -0.00000000000E+00 -0.00000000000E+00 -0.22528175728E+03  0.22528175728E+03  0.00000000000E+00 0. -1.
         25    2    1    2    0    0 -0.21335749316E+02 -0.87542683783E+02 -0.16089664392E+03  0.22283131237E+03  0.12508848093E+03 0.  0.
         23    2    1    2    0    0  0.21335749316E+02  0.87542683783E+02  0.94284251500E+02  0.16111980977E+03  0.94610450463E+02 0.  0.
          5    1    3    3  502    0  0.31198101356E+01 -0.10322643203E+03 -0.16342958213E+03  0.19337044811E+03  0.41800000000E+01 0.  1.
         -5    1    3    3    0  502 -0.24455559451E+02  0.15683748242E+02  0.25329382108E+01  0.29460864261E+02  0.41800000000E+01 0.  1.
        -11    1    4    4    0    0  0.49845084708E+02  0.54483922308E+02  0.22664307657E+02  0.77244424401E+02  0.00000000000E+00 0.  1.
         11    1    4    4    0    0 -0.28509335392E+02  0.33058761475E+02  0.71619943843E+02  0.83875385369E+02  0.00000000000E+00 0. -1.
</event>
<event>
 8    1  0.6901948E-009  0.1112846E+03  0.7561462E-02  0.1258209E+00
         -2   -1    0    0    0  501 -0.00000000000E+00  0.00000000000E+00  0.16192646430E+02  0.16192646430E+02  0.00000000000E+00 0.  1.
          2   -1    0    0  501    0  0.00000000000E+00 -0.00000000000E+00 -0.85103469698E+03  0.85103469698E+03  0.00000000000E+00 0. -1.
         25    2    1    2    0    0  0.40566197493E+02 -0.65665371022E+01 -0.40348030541E+03  0.42441986067E+03  0.12508847066E+03 0.  0.
         23    2    1    2    0    0 -0.40566197493E+02  0.65665371022E+01 -0.43136174514E+03  0.44280748274E+03  0.91196358526E+02 0.  0.
          5    1    3    3  502    0  0.84941637043E+01  0.55294041552E+02 -0.24340803129E+03  0.24978895881E+03  0.41800000000E+01 0. -1.
         -5    1    3    3    0  502  0.32072033789E+02 -0.61860578654E+02 -0.16007227412E+03  0.17463090186E+03  0.41800000000E+01 0. -1.
        -11    1    4    4    0    0  0.23673581750E+02 -0.16003945432E+02 -0.81050965204E+02  0.85940815116E+02  0.00000000000E+00 0.  1.
         11    1    4    4    0    0 -0.64239779243E+02  0.22570482534E+02 -0.35031077994E+03  0.35686666762E+03  0.00000000000E+00 0. -1.
</event>
<event>
 8    1  0.6901948E-009  0.8179889E+02  0.7561462E-02  0.1324023E+00
          2   -1    0    0  501    0  0.00000000000E+00  0.00000000000E+00  0.24878348087E+03  0.24878348087E+03  0.00000000000E+00 0.  1.
         -2   -1    0    0    0  501 -0.00000000000E+00 -0.00000000000E+00 -0.48125834775E+02  0.48125834775E+02  0.00000000000E+00 0. -1.
         25    2    1    2    0    0  0.24264083987E+02  0.34900312522E+02  0.18146162073E+03  0.22446181735E+03  0.12509200640E+03 0.  0.
         23    2    1    2    0    0 -0.24264083987E+02 -0.34900312522E+02  0.19196025364E+02  0.72447498291E+02  0.55438028762E+02 0.  0.
          5    1    3    3  502    0 -0.34755497538E+02  0.11653403358E+02  0.54160422599E+01  0.37290110388E+02  0.41800000000E+01 0.  1.
         -5    1    3    3    0  502  0.59019581526E+02  0.23246909164E+02  0.17604557847E+03  0.18717170696E+03  0.41800000000E+01 0.  1.
        -11    1    4    4    0    0 -0.37843416496E+02 -0.19402939655E+02  0.27044382541E+02  0.50398381585E+02  0.00000000000E+00 0. -1.
         11    1    4    4    0    0  0.13579332509E+02 -0.15497372867E+02 -0.78483571771E+01  0.22049116707E+02  0.00000000000E+00 0.  1.
</event>
<event>
 8    1  0.6901948E-009  0.1480369E+03  0.7561462E-02  0.1202906E+00
          2   -1    0    0  501    0  0.00000000000E+00  0.00000000000E+00  0.66005836514E+03  0.66005836514E+03  0.00000000000E+00 0. -1.
         -2   -1    0    0    0  501 -0.00000000000E+00 -0.00000000000E+00 -0.56491743033E+02  0.56491743033E+02  0.00000000000E+00 0.  1.
         25    2    1    2    0    0 -0.12559932753E+03  0.66899257253E+02  0.18459518365E+03  0.26453163256E+03  0.12510356151E+03 0.  0.
         23    2    1    2    0    0  0.12559932753E+03 -0.66899257253E+02  0.41897143846E+03  0.45201847562E+03  0.92373883511E+02 0.  0.
          5    1    3    3  502    0 -0.77547450279E+02  0.61385172448E+02  0.19142525321E+03  0.21550602406E+03  0.41800000000E+01 0.  1.
         -5    1    3    3    0  502 -0.48051877248E+02  0.55140848047E+01 -0.68300695621E+01  0.49025608497E+02  0.41800000000E+01 0.  1.
        -11    1    4    4    0    0  0.96977290742E+02 -0.29350428830E+02  0.37148632643E+03  0.38505601322E+03  0.00000000000E+00 0. -1.
         11    1    4    4    0    0  0.28622036785E+02 -0.37548828423E+02  0.47485112038E+02  0.66962462402E+02  0.00000000000E+00 0.  1.
</event>
<event>
 8    1  0.6901948E-009  0.8922232E+02  0.7561462E-02  0.1304746E+00
          1   -1    0    0  501    0  0.00000000000E+00  0.00000000000E+00  0.13819226237E+03  0.13819226237E+03  0.00000000000E+00 0. -1.
         -1   -1    0    0    0  501 -0.00000000000E+00 -0.00000000000E+00 -0.90815282613E+02  0.90815282613E+02  0.00000000000E+00 0.  1.
         25    2    1    2    0    0  0.24553262919E+02  0.79885565940E+01  0.40905073116E+02  0.13412120596E+03  0.12509433690E+03 0.  0.
         23    2    1    2    0    0 -0.24553262919E+02 -0.79885565940E+01  0.64719066378E+01  0.94886339021E+02  0.91076078093E+02 0.  0.
          5    1    3    3  502    0 -0.42993743335E+01  0.55685996486E+02  0.52795313285E+02  0.76969034872E+02  0.41800000000E+01 0. -1.
         -5    1    3    3    0  502  0.28852637253E+02 -0.47697439892E+02 -0.11890240169E+02  0.57152171087E+02  0.41800000000E+01 0. -1.
        -11    1    4    4    0    0 -0.11432292405E+02  0.26917384294E+02  0.36668893076E+02  0.46902565029E+02  0.00000000000E+00 0. -1.
         11    1    4    4    0    0 -0.13120970515E+02 -0.34905940888E+02 -0.30196986439E+02  0.47983773992E+02  0.00000000000E+00 0.  1.
</event>
<event>
 8    1  0.6901948E-009  0.1030583E+03  0.7561462E-02  0.1273993E+00
         -1   -1    0    0    0  501 -0.00000000000E+00  0.00000000000E+00  0.23044744309E+02  0.23044744309E+02  0.00000000000E+00 0.  1.
          1   -1    0    0  501    0  0.00000000000E+00 -0.00000000000E+00 -0.54799044872E+03  0.54799044872E+03  0.00000000000E+00 0. -1.
         25    2    1    2    0    0 -0.40575806894E+01 -0.28831464658E+02 -0.32471958766E+03  0.34919878178E+03  0.12509700743E+03 0.  0.
         23    2    1    2    0    0  0.40575806894E+01  0.28831464658E+02 -0.20022611675E+03  0.22183641125E+03  0.90957012998E+02 0.  0.
          5    1    3    3  502    0  0.25872600825E+02 -0.70164948441E+02 -0.15917815029E+03  0.17591949123E+03  0.41800000000E+01 0. -1.
         -5    1    3    3    0  502 -0.29930181514E+02  0.41333483783E+02 -0.16554143737E+03  0.17327929055E+03  0.41800000000E+01 0. -1.
        -11    1    4    4    0    0 -0.34542912683E+02  0.56913852516E+01 -0.31109317074E+02  0.46833687572E+02  0.00000000000E+00 0.  1.
         11    1    4    4    0    0  0.38600493373E+02  0.23140079407E+02 -0.16911679967E+03  0.17500272368E+03  0.00000000000E+00 0. -1.
</event>
<event>
 8    1  0.6901948E-009  0.8188738E+02  0.7561462E-02  0.1323779E+00
          2   -1    0    0  501    0  0.00000000000E+00  0.00000000000E+00  0.48403877169E+02  0.48403877169E+02  0.00000000000E+00 0. -1.
         -2   -1    0    0    0  501 -0.00000000000E+00 -0.00000000000E+00 -0.24593940194E+03  0.24593940194E+03  0.00000000000E+00 0.  1.
         25    2    1    2    0    0  0.10555225350E+02  0.31296008920E+01 -0.10327678071E+03  0.16258885859E+03  0.12509131193E+03 0.  0.
         23    2    1    2    0    0 -0.10555225350E+02 -0.31296008920E+01 -0.94258744066E+02  0.13175442052E+03  0.91396440359E+02 0.  0.
          5    1    3    3  502    0  0.58713419891E+02  0.20677886971E+02 -0.21505542377E+02  0.65990919359E+02  0.41800000000E+01 0.  1.
         -5    1    3    3    0  502 -0.48158194540E+02 -0.17548286079E+02 -0.81771238332E+02  0.96597939233E+02  0.41800000000E+01 0.  1.
        -11    1    4    4    0    0 -0.84331418642E+01  0.22611026847E+02 -0.10198045648E+03  0.10479689843E+03  0.00000000000E+00 0.  1.
         11    1    4    4    0    0 -0.21220834861E+01 -0.25740627739E+02  0.77217124139E+01  0.26957522092E+02  0.00000000000E+00 0. -1.
</event>
<event>
 8    1  0.6901948E-009  0.1179187E+03  0.7561462E-02  0.1246571E+00
          1   -1    0    0  501    0  0.00000000000E+00  0.00000000000E+00  0.44500875572E+02  0.44500875572E+02  0.00000000000E+00 0. -1.
         -1   -1    0    0    0  501 -0.00000000000E+00 -0.00000000000E+00 -0.42231417301E+03  0.42231417301E+03  0.00000000000E+00 0.  1.
         25    2    1    2    0    0 -0.79845003664E+02 -0.23670737233E+02 -0.19502252571E+03  0.24620363392E+03  0.12508763092E+03 0.  0.
         23    2    1    2    0    0  0.79845003664E+02  0.23670737233E+02 -0.18279077173E+03  0.22061141467E+03  0.91221716936E+02 0.  0.
          5    1    3    3  502    0  0.33479788900E+01  0.39725691448E+02 -0.27310343410E+02  0.48504296519E+02  0.41800000000E+01 0. -1.
         -5    1    3    3    0  502 -0.83192982554E+02 -0.63396428681E+02 -0.16771218230E+03  0.19769933740E+03  0.41800000000E+01 0. -1.
        -11    1    4    4    0    0  0.51152492602E+02 -0.38746805540E+01 -0.23492059757E+02  0.56422225412E+02  0.00000000000E+00 0. -1.
         11    1    4    4    0    0  0.28692511062E+02  0.27545417787E+02 -0.15929871197E+03  0.16418918926E+03  0.00000000000E+00 0.  1.
</event>
<event>
 8    1  0.6901948E-009  0.1084994E+03  0.7561462E-02  0.1263374E+00
         -4   -1    0    0    0  501 -0.00000000000E+00  0.00000000000E+00  0.98896922699E+02  0.98896922699E+02  0.00000000000E+00 0.  1.
          4   -1    0    0  501    0  0.00000000000E+00 -0.00000000000E+00 -0.14695797968E+03  0.14695797968E+03  0.00000000000E+00 0. -1.
         25    2    1    2    0    0  0.25365108670E+02  0.15435566960E+00 -0.75976623043E+02  0.14853844932E+03  0.12509121117E+03 0.  0.
         23    2    1    2    0    0 -0.25365108670E+02 -0.15435566960E+00  0.27915566063E+02  0.97316453061E+02  0.89709534857E+02 0.  0.
          5    1    3    3  502    0  0.26644454109E+02  0.60301910772E+02 -0.50133475133E+02  0.82928192470E+02  0.41800000000E+01 0.  1.
         -5    1    3    3    0  502 -0.12793454387E+01 -0.60147555102E+02 -0.25843147910E+02  0.65610256846E+02  0.41800000000E+01 0.  1.
        -11    1    4    4    0    0 -0.57524949457E+02  0.61813948305E+01  0.28583300810E+02  0.64531655311E+02  0.00000000000E+00 0.  1.
         11    1    4    4    0    0  0.32159840786E+02 -0.63357505001E+01 -0.66773474690E+00  0.32784797750E+02  0.00000000000E+00 0. -1.
</event>
<event>
 8    1  0.6901948E-009  0.9066635E+02  0.7561462E-02  0.1301246E+00
          1   -1    0    0  501    0  0.00000000000E+00  0.00000000000E+00  0.67328321495E+03  0.67328321495E+03  0.00000000000E+00 0.  1.
         -1   -1    0    0    0  501 -0.00000000000E+00 -0.00000000000E+00 -0.21768426358E+02  0.21768426358E+02  0.00000000000E+00 0. -1.
         25    2    1    2    0    0 -0.78863616615E+01 -0.38544701088E+02  0.26127499167E+03  0.29233645459E+03  0.12509233679E+03 0.  0.
         23    2    1    2    0    0  0.78863616615E+01  0.38544701088E+02  0.39023979692E+03  0.40271518672E+03  0.91348419988E+02 0.  0.
          5    1    3    3  502    0  0.12171064308E+02 -0.55823672459E+02  0.41026472375E+02  0.70463189317E+02  0.41800000000E+01 0. -1.
         -5    1    3    3    0  502 -0.20057425969E+02  0.17278971371E+02  0.22024851930E+03  0.22187326527E+03  0.41800000000E+01 0. -1.
        -11    1    4    4    0    0  0.36375457040E+02  0.53787339017E+02  0.29763369471E+03  0.30463431839E+03  0.00000000000E+00 0.  1.
         11    1    4    4    0    0 -0.28489095378E+02 -0.15242637929E+02  0.92606102206E+02  0.98080868329E+02  0.00000000000E+00 0. -1.
</event>
<event>
 8    1  0.6901948E-009  0.1156742E+03  0.7561462E-02  0.1250409E+00
          1   -1    0    0  501    0  0.00000000000E+00  0.00000000000E+00  0.11974274243E+04  0.11974274243E+04  0.00000000000E+00 0. -1.
         -1   -1    0    0    0  501 -0.00000000000E+00 -0.00000000000E+00 -0.12407743550E+02  0.12407743550E+02  0.00000000000E+00 0.  1.
         25    2    1    2    0    0 -0.44748179383E+02  0.20081060795E+02  0.76057352784E+03  0.77234973363E+03  0.12508545573E+03 0.  0.
         23    2    1    2    0    0  0.44748179383E+02 -0.20081060795E+02  0.42444615290E+03  0.43748543420E+03  0.93985742899E+02 0.  0.
          5    1    3    3  502    0 -0.68800534651E+02 -0.25646597174E+02  0.57459131540E+03  0.57927878750E+03  0.41800000000E+01 0.  1.
         -5    1    3    3    0  502  0.24052355269E+02  0.45727657969E+02  0.18598221244E+03  0.19307094613E+03  0.41800000000E+01 0.  1.
        -11    1    4    4    0    0  0.31872203408E+02 -0.57858600017E+02  0.27078109981E+03  0.27872183079E+03  0.00000000000E+00 0.  1.
         11    1    4    4    0    0  0.12875975975E+02  0.37777539222E+02  0.15366505309E+03  0.15876360341E+03  0.00000000000E+00 0. -1.
</event>
<event>
 8    1  0.6901948E-009  0.4066794E+03  0.7561462E-02  0.1041491E+00
         -1   -1    0    0    0  501 -0.00000000000E+00  0.00000000000E+00  0.10710542249E+03  0.10710542249E+03  0.00000000000E+00 0. -1.
          1   -1    0    0  501    0  0.00000000000E+00 -0.00000000000E+00 -0.16997183851E+04  0.16997183851E+04  0.00000000000E+00 0.  1.
         25    2    1    2    0    0  0.23200277843E+03  0.33207738471E+03 -0.62290399997E+03  0.75349722874E+03  0.12509197378E+03 0.  0.
         23    2    1    2    0    0 -0.23200277843E+03 -0.33207738471E+03 -0.96970896259E+03  0.10533265788E+04  0.71138813988E+02 0.  0.
          5    1    3    3  502    0  0.14995687719E+03  0.19871489409E+03 -0.26934664512E+03  0.36679662183E+03  0.41800000000E+01 0.  1.
         -5    1    3    3    0  502  0.82045901236E+02  0.13336249063E+03 -0.35355735485E+03  0.38670060691E+03  0.41800000000E+01 0.  1.
        -11    1    4    4    0    0 -0.22856361852E+01 -0.20549433205E+02 -0.88038292644E+02  0.90433645893E+02  0.00000000000E+00 0.  1.
         11    1    4    4    0    0 -0.22971714224E+03 -0.31152795151E+03 -0.88167066994E+03  0.96289293291E+03  0.00000000000E+00 0. -1.
</event>
<event>
 8    1  0.6901948E-009  0.1709999E+03  0.7561462E-02  0.1176809E+00
         -2   -1    0    0    0  501 -0.00000000000E+00  0.00000000000E+00  0.30520338779E+02  0.30520338779E+02  0.00000000000E+00 0.  1.
          2   -1    0    0  501    0  0.00000000000E+00 -0.00000000000E+00 -0.11600669869E+04  0.11600669869E+04  0.00000000000E+00 0. -1.
         25    2    1    2    0    0  0.14909862082E+03 -0.85223558177E+01 -0.70944125032E+03  0.73570161364E+03  0.12508775872E+03 0.  0.
         23    2    1    2    0    0 -0.14909862082E+03  0.85223558177E+01 -0.42010539782E+03  0.45488571205E+03  0.90163387677E+02 0.  0.
          5    1    3    3  502    0 -0.18949070899E+02 -0.27387209934E+01 -0.15711304032E+03  0.15833050155E+03  0.41800000000E+01 0.  1.
         -5    1    3    3    0  502  0.16804769172E+03 -0.57836348243E+01 -0.55232821000E+03  0.57737111210E+03  0.41800000000E+01 0.  1.
        -11    1    4    4    0    0 -0.85106815145E+02  0.23882397756E+02 -0.12863646574E+03  0.15607972073E+03  0.00000000000E+00 0.  1.
         11    1    4    4    0    0 -0.63991805673E+02 -0.15360041938E+02 -0.29146893208E+03  0.29880599132E+03  0.00000000000E+00 0. -1.
</event>
<event>
 8    1  0.6901948E-009  0.9981707E+02  0.7561462E-02  0.1280681E+00
          2   -1    0    0  501    0  0.00000000000E+00  0.00000000000E+00  0.81512210189E+03  0.81512210189E+03  0.00000000000E+00 0. -1.
         -2   -1    0    0    0  501 -0.00000000000E+00 -0.00000000000E+00 -0.15029800343E+02  0.15029800343E+02  0.00000000000E+00 0.  1.
         25    2    1    2    0    0  0.86385752115E+01  0.13399974362E+02  0.51389016857E+03  0.52914001298E+03  0.12510740859E+03 0.  0.
         23    2    1    2    0    0 -0.86385752115E+01 -0.13399974362E+02  0.28620213297E+03  0.30101188926E+03  0.91882056243E+02 0.  0.
          5    1    3    3  502    0  0.97115439145E+01  0.61448611401E+02  0.15577765022E+03  0.16779271330E+03  0.41800000000E+01 0. -1.
         -5    1    3    3    0  502 -0.10729687030E+01 -0.48048637039E+02  0.35811251836E+03  0.36134729968E+03  0.41800000000E+01 0. -1.
        -11    1    4    4    0    0 -0.26132631058E+02  0.31455378949E+02  0.17707521950E+03  0.18173604110E+03  0.00000000000E+00 0. -1.
         11    1    4    4    0    0  0.17494055846E+02 -0.44855353311E+02  0.10912691347E+03  0.11927584816E+03  0.00000000000E+00 0.  1.
</event>
<event>
 8    1  0.6901948E-009  0.1346104E+03  0.7561462E-02  0.1220771E+00
         -1   -1    0    0    0  501 -0.00000000000E+00  0.00000000000E+00  0.27810715952E+03  0.27810715952E+03  0.00000000000E+00 0.  1.
          1   -1    0    0  501    0  0.00000000000E+00 -0.00000000000E+00 -0.11125397270E+03  0.11125397270E+03  0.00000000000E+00 0. -1.
         25    2    1    2    0    0 -0.12790640676E+03  0.24058530365E+02  0.35718507702E+02  0.18401606124E+03  0.12508891728E+03 0.  0.
         23    2    1    2    0    0  0.12790640676E+03 -0.24058530365E+02  0.13113467912E+03  0.20534507098E+03  0.89618258925E+02 0.  0.
          5    1    3    3  502    0 -0.94745725595E+01  0.14210364985E+02  0.60107606722E+02  0.62626661926E+02  0.41800000000E+01 0.  1.
         -5    1    3    3    0  502 -0.11843183420E+03  0.98481653799E+01 -0.24389099019E+02  0.12138939931E+03  0.41800000000E+01 0.  1.
        -11    1    4    4    0    0  0.35511880452E+02  0.50113635746E+01  0.95713293310E+02  0.10221175047E+03  0.00000000000E+00 0. -1.
         11    1    4    4    0    0  0.92394526310E+02 -0.29069893940E+02  0.35421385807E+02  0.10313332050E+03  0.00000000000E+00 0.  1.
</event>
<event>
 8    1  0.6901948E-009  0.7917525E+02  0.7561462E-02  0.1331408E+00
          2   -1    0    0  501    0  0.00000000000E+00  0.00000000000E+00  0.78029717784E+03  0.78029717784E+03  0.00000000000E+00 0.  1.
         -2   -1    0    0    0  501 -0.00000000000E+00 -0.00000000000E+00 -0.21692270780E+02  0.21692270780E+02  0.00000000000E+00 0. -1.
         25    2    1    2    0    0 -0.34722108187E+02  0.80155254441E+01  0.57825897873E+03  0.59269534454E+03  0.12503780032E+03 0.  0.
         23    2    1    2    0    0  0.34722108187E+02 -0.80155254441E+01  0.18034592833E+03  0.20929410408E+03  0.10004746220E+03 0.  0.
          5    1    3    3  502    0 -0.38826236546E+02 -0.35258614468E+01  0.46694911228E+02  0.60973727768E+02  0.41800000000E+01 0. -1.
         -5    1    3    3    0  502  0.41041283595E+01  0.11541386891E+02  0.53156406750E+03  0.53172161677E+03  0.41800000000E+01 0. -1.
        -11    1    4    4    0    0  0.44228768214E+02 -0.47899841892E+02  0.10960835307E+03  0.12753262271E+03  0.00000000000E+00 0. -1.
         11    1    4    4    0    0 -0.95066600275E+01  0.39884316448E+02  0.70737575258E+02  0.81761481376E+02  0.00000000000E+00 0.  1.
</event>
<event>
 8    1  0.6901948E-009  0.3277970E+03  0.7561462E-02  0.1072116E+00
          2   -1    0    0  501    0  0.00000000000E+00  0.00000000000E+00  0.28927791868E+03  0.28927791868E+03  0.00000000000E+00 0. -1.
         -2   -1    0    0    0  501 -0.00000000000E+00 -0.00000000000E+00 -0.42567507114E+03  0.42567507114E+03  0.00000000000E+00 0.  1.
         25    2    1    2    0    0 -0.31769044206E+03 -0.16550943880E+02  0.28614960069E+02  0.34302574005E+03  0.12508673661E+03 0.  0.
         23    2    1    2    0    0  0.31769044206E+03  0.16550943880E+02 -0.16501211254E+03  0.37192724977E+03  0.99497392541E+02 0.  0.
          5    1    3    3  502    0 -0.99299892622E+02 -0.47312115127E+02 -0.31317864532E+02  0.11444293753E+03  0.41800000000E+01 0.  1.
         -5    1    3    3    0  502 -0.21839054944E+03  0.30761171246E+02  0.59932824601E+02  0.22858280251E+03  0.41800000000E+01 0.  1.
        -11    1    4    4    0    0  0.21701593142E+03 -0.19753804740E+02 -0.70178199031E+02  0.22893472195E+03  0.00000000000E+00 0. -1.
         11    1    4    4    0    0  0.10067451063E+03  0.36304748620E+02 -0.94833913505E+02  0.14299252783E+03  0.00000000000E+00 0.  1.
</event>
<event>
 7    1  0.6901948E-009  0.1132175E+03  0.7561462E-02  0.1254725E+00
         -2   -1    0    0    0  501 -0.00000000000E+00  0.00000000000E+00  0.30906969844E+03  0.30906969844E+03  0.00000000000E+00 0.  1.
          2   -1    0    0  501    0  0.00000000000E+00 -0.00000000000E+00 -0.65154611989E+02  0.65154611989E+02  0.00000000000E+00 0. -1.
         23    2    1    2    0    0 -0.64956068275E+02  0.37385625665E+02  0.32995203759E+02  0.11784835401E+03  0.84750075274E+02 0.  0.
          5    1    1    2  502    0  0.25044827582E+02 -0.77626504802E+02  0.83226573268E+02  0.11660725764E+03  0.41800000000E+01 0. -1.
         -5    1    1    2    0  502  0.39911240692E+02  0.40240879138E+02  0.12769330943E+03  0.13976869879E+03  0.41800000000E+01 0. -1.
        -11    1    3    3    0    0  0.55553422966E+01  0.11583637768E+02  0.40406390470E+02  0.42399515125E+02  0.00000000000E+00 0.  1.
         11    1    3    3    0    0 -0.70511410571E+02  0.25801987897E+02 -0.74111867116E+01  0.75448838882E+02  0.00000000000E+00 0. -1.
</event>
<event>
 8    1  0.6901948E-009  0.1001972E+03  0.7561462E-02  0.1279882E+00
         -1   -1    0    0    0  501 -0.00000000000E+00  0.00000000000E+00  0.14570164158E+03  0.14570164158E+03  0.00000000000E+00 0.  1.
          1   -1    0    0  501    0  0.00000000000E+00 -0.00000000000E+00 -0.11025728160E+03  0.11025728160E+03  0.00000000000E+00 0. -1.
         25    2    1    2    0    0 -0.36306677850E+02 -0.18637775880E+02  0.72042809974E+02  0.15001117270E+03  0.12509054289E+03 0.  0.
         23    2    1    2    0    0  0.36306677850E+02  0.18637775880E+02 -0.36598449994E+02  0.10594775047E+03  0.90663872308E+02 0.  0.
          5    1    3    3  502    0 -0.56659177764E+02 -0.51997952593E+02  0.11557324344E+02  0.77878711114E+02  0.41800000000E+01 0. -1.
         -5    1    3    3    0  502  0.20352499914E+02  0.33360176713E+02  0.60485485630E+02  0.72132461590E+02  0.41800000000E+01 0. -1.
        -11    1    4    4    0    0 -0.21829698618E+02  0.13606445935E+02 -0.39930970634E+02  0.47498984500E+02  0.00000000000E+00 0. -1.
         11    1    4    4    0    0  0.58136376468E+02  0.50313299452E+01  0.33325206399E+01  0.58448765972E+02  0.00000000000E+00 0.  1.
</event>
<event>
 8    1  0.6901948E-009  0.1926168E+03  0.7561462E-02  0.1156122E+00
          2   -1    0    0  501    0  0.00000000000E+00  0.00000000000E+00  0.82881777360E+03  0.82881777360E+03  0.00000000000E+00 0. -1.
         -2   -1    0    0    0  501 -0.00000000000E+00 -0.00000000000E+00 -0.10951694205E+03  0.10951694205E+03  0.00000000000E+00 0.  1.
         25    2    1    2    0    0 -0.98344207339E+02 -0.14966320461E+03  0.30350694934E+02  0.22054408962E+03  0.12509145795E+03 0.  0.
         23    2    1    2    0    0  0.98344207339E+02  0.14966320461E+03  0.68895013662E+03  0.71779062603E+03  0.92197798990E+02 0.  0.
          5    1    3    3  502    0 -0.45088338499E+02 -0.31282622061E+02 -0.44382019913E+02  0.70702169720E+02  0.41800000000E+01 0.  1.
         -5    1    3    3    0  502 -0.53255868840E+02 -0.11838058255E+03  0.74732714847E+02  0.14984191990E+03  0.41800000000E+01 0.  1.
        -11    1    4    4    0    0  0.38545253198E+01  0.86677604481E+02  0.26175783649E+03  0.27576263244E+03  0.00000000000E+00 0. -1.
         11    1    4    4    0    0  0.94489682019E+02  0.62985600125E+02  0.42719230013E+03  0.44202799359E+03  0.00000000000E+00 0.  1.
</event>
<event>
 8    1  0.6901948E-009  0.9234619E+02  0.7561462E-02  0.1297267E+00
         -1   -1    0    0    0  501 -0.00000000000E+00  0.00000000000E+00  0.79813780287E+02  0.79813780287E+02  0.00000000000E+00 0.  1.
          1   -1    0    0  501    0  0.00000000000E+00 -0.00000000000E+00 -0.21347151174E+03  0.21347151174E+03  0.00000000000E+00 0. -1.
         25    2    1    2    0    0  0.42573992900E+02 -0.39994851617E+02 -0.24851491738E+02  0.14027305886E+03  0.12508717510E+03 0.  0.
         23    2    1    2    0    0 -0.42573992900E+02  0.39994851617E+02 -0.10880623972E+03  0.15301223317E+03  0.90342751064E+02 0.  0.
          5    1    3    3  502    0 -0.21790088002E+02 -0.13133832761E+02 -0.57601743800E+02  0.63108943795E+02  0.41800000000E+01 0. -1.
         -5    1    3    3    0  502  0.64364080902E+02 -0.26861018856E+02  0.32750252062E+02  0.77164115069E+02  0.41800000000E+01 0. -1.
        -11    1    4    4    0    0 -0.32939299059E+02 -0.12825332963E+02 -0.44151916628E+01  0.35622752639E+02  0.00000000000E+00 0. -1.
         11    1    4    4    0    0 -0.96346938406E+01  0.52820184581E+02 -0.10439104806E+03  0.11738948053E+03  0.00000000000E+00 0.  1.
</event>
<event>
 8    1  0.6901948E-009  0.9059361E+02  0.7561462E-02  0.1301421E+00
         -4   -1    0    0    0  501 -0.00000000000E+00  0.00000000000E+00  0.88078721850E+03  0.88078721850E+03  0.00000000000E+00 0.  1.
          4   -1    0    0  501    0  0.00000000000E+00 -0.00000000000E+00 -0.14412432917E+02  0.14412432917E+02  0.00000000000E+00 0. -1.
         25    2    1    2    0    0  0.14859618377E+02 -0.16275218801E+02  0.58148697263E+03  0.59519768474E+03  0.12508994195E+03 0.  0.
         23    2    1    2    0    0 -0.14859618377E+02  0.16275218801E+02  0.28488781296E+03  0.30000196668E+03  0.91402532981E+02 0.  0.
          5    1    3    3  502    0 -0.23195847226E+02 -0.41426187700E+02  0.49535511522E+03  0.49764278246E+03  0.41800000000E+01 0.  1.
         -5    1    3    3    0  502  0.38055465603E+02  0.25150968899E+02  0.86131857407E+02  0.97554902282E+02  0.41800000000E+01 0.  1.
        -11    1    4    4    0    0  0.30851887641E+02  0.26736884220E+02  0.79981979503E+02  0.89798758310E+02  0.00000000000E+00 0. -1.
         11    1    4    4    0    0 -0.45711506017E+02 -0.10461665419E+02  0.20490583345E+03  0.21020320837E+03  0.00000000000E+00 0.  1.
</event>
<event>
 8    1  0.6901948E-009  0.1247418E+03  0.7561462E-02  0.1235473E+00
         -2   -1    0    0    0  501 -0.00000000000E+00  0.00000000000E+00  0.48498208672E+02  0.48498208672E+02  0.00000000000E+00 0.  1.
          2   -1    0    0  501    0  0.00000000000E+00 -0.00000000000E+00 -0.36559860139E+03  0.36559860139E+03  0.00000000000E+00 0. -1.
         25    2    1    2    0    0  0.56186940075E+02 -0.48030065227E+02 -0.15459597178E+03  0.21215825850E+03  0.12508937908E+03 0.  0.
         23    2    1    2    0    0 -0.56186940075E+02  0.48030065227E+02 -0.16250442094E+03  0.20193855156E+03  0.94380254193E+02 0.  0.
          5    1    3    3  502    0  0.49707304148E+02 -0.88975175703E+02 -0.94634364232E+02  0.13914213334E+03  0.41800000000E+01 0.  1.
         -5    1    3    3    0  502  0.64796359267E+01  0.40945110476E+02 -0.59961607545E+02  0.73016125158E+02  0.41800000000E+01 0.  1.
        -11    1    4    4    0    0 -0.54044259936E+02 -0.35775018562E+01 -0.35308159547E+02  0.64654827215E+02  0.00000000000E+00 0.  1.
         11    1    4    4    0    0 -0.21426801391E+01  0.51607567083E+02 -0.12719626140E+03  0.13728372435E+03  0.00000000000E+00 0. -1.
</event>
<event>
 8    1  0.6901948E-009  0.2861478E+03  0.7561462E-02  0.1092378E+00
          1   -1    0    0  501    0  0.00000000000E+00  0.00000000000E+00  0.47755322030E+02  0.47755322030E+02  0.00000000000E+00 0. -1.
         -1   -1    0    0    0  501 -0.00000000000E+00 -0.00000000000E+00 -0.19772000696E+04  0.19772000696E+04  0.00000000000E+00 0.  1.
         25    2    1    2    0    0  0.27912158061E+03 -0.28498809663E+02 -0.77806966745E+03  0.83651715451E+03  0.12508998149E+03 0.  0.
         23    2    1    2    0    0 -0.27912158061E+03  0.28498809663E+02 -0.11513750802E+04  0.11884382372E+04  0.89441765511E+02 0.  0.
          5    1    3    3  502    0  0.18533424711E+03 -0.42907249973E+02 -0.64865741574E+03  0.67599092497E+03  0.41800000000E+01 0.  1.
         -5    1    3    3    0  502  0.93787333496E+02  0.14408440309E+02 -0.12941225171E+03  0.16052622954E+03  0.41800000000E+01 0.  1.
        -11    1    4    4    0    0 -0.90720878181E+02  0.38081621632E+02 -0.53013765498E+03  0.53919052373E+03  0.00000000000E+00 0. -1.
         11    1    4    4    0    0 -0.18840070243E+03 -0.95828119689E+01 -0.62123742518E+03  0.64924771344E+03  0.00000000000E+00 0.  1.
</event>
<event>
 8    1  0.6901948E-009  0.1005365E+03  0.7561462E-02  0.1279172E+00
         -1   -1    0    0    0  501 -0.00000000000E+00  0.00000000000E+00  0.46394155287E+02  0.46394155287E+02  0.00000000000E+00 0.  1.
          1   -1    0    0  501    0  0.00000000000E+00 -0.00000000000E+00 -0.34999604116E+03  0.34999604116E+03  0.00000000000E+00 0. -1.
         25    2    1    2    0    0  0.37852498952E+02  0.18481656980E+02 -0.20459027284E+03  0.24347298498E+03  0.12509009295E+03 0.  0.
         23    2    1    2    0    0 -0.37852498952E+02 -0.18481656980E+02 -0.99011613031E+02  0.15291721146E+03  0.10865537596E+03 0.  0.
          5    1    3    3  502    0  0.61838186611E+02  0.48796125351E+02 -0.77560680226E+02  0.11062619351E+03  0.41800000000E+01 0.  1.
         -5    1    3    3    0  502 -0.23985687660E+02 -0.30314468371E+02 -0.12702959262E+03  0.13284679148E+03  0.41800000000E+01 0.  1.
        -11    1    4    4    0    0 -0.94610118857E+01  0.27603682789E+02  0.10294565522E+02  0.30942723356E+02  0.00000000000E+00 0.  1.
         11    1    4    4    0    0 -0.28391487066E+02 -0.46085339769E+02 -0.10930617855E+03  0.12197448811E+03  0.00000000000E+00 0. -1.
</event>
<event>
 8    1  0.6901948E-009  0.9447537E+02  0.7561462E-02  0.1292362E+00
          1   -1    0    0  501    0  0.00000000000E+00  0.00000000000E+00  0.26245833493E+03  0.26245833493E+03  0.00000000000E+00 0. -1.
         -1   -1    0    0    0  501 -0.00000000000E+00 -0.00000000000E+00 -0.59490105593E+02  0.59490105593E+02  0.00000000000E+00 0.  1.
         25    2    1    2    0    0 -0.66402477243E+00  0.48291517530E+02  0.63296693734E+02  0.14827339008E+03  0.12508403245E+03 0.  0.
         23    2    1    2    0    0  0.66402477243E+00 -0.48291517530E+02  0.13967153560E+03  0.17367505044E+03  0.91227044754E+02 0.  0.
          5    1    3    3  502    0 -0.11181109541E+02  0.78644782422E+02  0.27355245923E+01  0.79592553091E+02  0.41800000000E+01 0.  1.
         -5    1    3    3    0  502  0.10517084769E+02 -0.30353264892E+02  0.60561169141E+02  0.68680836988E+02  0.41800000000E+01 0.  1.
        -11    1    4    4    0    0  0.25421970932E+02 -0.32707744927E+01  0.11283450263E+03  0.11570911613E+03  0.00000000000E+00 0. -1.
         11    1    4    4    0    0 -0.24757946160E+02 -0.45020743037E+02  0.26837032966E+02  0.57965934307E+02  0.00000000000E+00 0.  1.
</event>
<event>
 8    1  0.6901948E-009  0.1398450E+03  0.7561462E-02  0.1213538E+00
         -2   -1    0    0    0  501 -0.00000000000E+00  0.00000000000E+00  0.29476227277E+02  0.29476227277E+02  0.00000000000E+00 0.  1.
          2   -1    0    0  501    0  0.00000000000E+00 -0.00000000000E+00 -0.13566912465E+04  0.13566912465E+04  0.00000000000E+00 0. -1.
         25    2    1    2    0    0  0.79994150453E+02  0.89109167855E+02 -0.10865885569E+04  0.11003012279E+04  0.12509433309E+03 0.  0.
         23    2    1    2    0    0 -0.79994150453E+02 -0.89109167855E+02 -0.24062646232E+03  0.28586624590E+03  0.97359685057E+02 0.  0.
          5    1    3    3  502    0  0.10460280690E+03  0.79242339224E+02 -0.66371977660E+03  0.67658148791E+03  0.41800000000E+01 0. -1.
         -5    1    3    3    0  502 -0.24608656443E+02  0.98668286312E+01 -0.42286878035E+03  0.42371974001E+03  0.41800000000E+01 0. -1.
        -11    1    4    4    0    0 -0.34283326612E+02 -0.53795586869E+02 -0.21201883829E+03  0.22140754151E+03  0.00000000000E+00 0.  1.
         11    1    4    4    0    0 -0.45710823841E+02 -0.35313580986E+02 -0.28607624028E+02  0.64458704384E+02  0.00000000000E+00 0. -1.
</event>
<event>
 8    1  0.6901948E-009  0.9503092E+02  0.7561462E-02  0.1291106E+00
         -1   -1    0    0    0  501 -0.00000000000E+00  0.00000000000E+00  0.29005686815E+03  0.29005686815E+03  0.00000000000E+00 0.  1.
          1   -1    0    0  501    0  0.00000000000E+00 -0.00000000000E+00 -0.50837970408E+02  0.50837970408E+02  0.00000000000E+00 0. -1.
         25    2    1    2    0    0  0.19561946965E+02  0.51355744237E+02  0.12198866836E+03  0.18316253559E+03  0.12508875648E+03 0.  0.
         23    2    1    2    0    0 -0.19561946965E+02 -0.51355744237E+02  0.11723022938E+03  0.15773230297E+03  0.90091456224E+02 0.  0.
          5    1    3    3  502    0 -0.63660604820E+01  0.82064937705E+02  0.39684466409E+02  0.91474094698E+02  0.41800000000E+01 0. -1.
         -5    1    3    3    0  502  0.25928007447E+02 -0.30709193468E+02  0.82304201950E+02  0.91688440887E+02  0.41800000000E+01 0. -1.
        -11    1    4    4    0    0  0.59995449043E+01 -0.37857400593E+02  0.12249345257E+03  0.12835039245E+03  0.00000000000E+00 0.  1.
         11    1    4    4    0    0 -0.25561491869E+02 -0.13498343644E+02 -0.52632231890E+01  0.29381910524E+02  0.00000000000E+00 0. -1.
</event>
<event>
 8    1  0.6901948E-009  0.9262736E+02  0.7561462E-02  0.1296611E+00
         -2   -1    0    0    0  501 -0.00000000000E+00  0.00000000000E+00  0.34485195186E+02  0.34485195186E+02  0.00000000000E+00 0.  1.
          2   -1    0    0  501    0  0.00000000000E+00 -0.00000000000E+00 -0.40362269738E+03  0.40362269738E+03  0.00000000000E+00 0. -1.
         25    2    1    2    0    0 -0.15750812793E+02  0.44575537591E+02 -0.23428941699E+03  0.26976554439E+03  0.12508737496E+03 0.  0.
         23    2    1    2    0    0  0.15750812793E+02 -0.44575537591E+02 -0.13484808521E+03  0.16834234817E+03  0.88994794506E+02 0.  0.
          5    1    3    3  502    0  0.13204915544E+02  0.63002346163E+02 -0.22485663948E+03  0.23392658279E+03  0.41800000000E+01 0.  1.
         -5    1    3    3    0  502 -0.28955728337E+02 -0.18426808572E+02 -0.94327775105E+01  0.35838961609E+02  0.41800000000E+01 0.  1.
        -11    1    4    4    0    0  0.34475081889E+02 -0.54872482492E+02 -0.13165037727E+03  0.14673562090E+03  0.00000000000E+00 0.  1.
         11    1    4    4    0    0 -0.18724269096E+02  0.10296944901E+02 -0.31977079416E+01  0.21606727275E+02  0.00000000000E+00 0. -1.
</event>
<event>
 8    1  0.6901948E-009  0.1020691E+03  0.7561462E-02  0.1276004E+00
          2   -1    0    0  501    0  0.00000000000E+00  0.00000000000E+00  0.11354426185E+04  0.11354426185E+04  0.00000000000E+00 0. -1.
         -2   -1    0    0    0  501 -0.00000000000E+00 -0.00000000000E+00 -0.14259963200E+02  0.14259963200E+02  0.00000000000E+00 0.  1.
         25    2    1    2    0    0 -0.35604947747E+02  0.54869333059E+02  0.54487739334E+03  0.56286547008E+03  0.12509119723E+03 0.  0.
         23    2    1    2    0    0  0.35604947747E+02 -0.54869333059E+02  0.57630526197E+03  0.58683711163E+03  0.89284290863E+02 0.  0.
          5    1    3    3  502    0 -0.97012289424E+01  0.65320276914E+02  0.52292275511E+03  0.52709252758E+03  0.41800000000E+01 0.  1.
         -5    1    3    3    0  502 -0.25903718805E+02 -0.10450943854E+02  0.21954638226E+02  0.35772942499E+02  0.41800000000E+01 0.  1.
        -11    1    4    4    0    0  0.27634995930E+02  0.20202498598E+02  0.14598181487E+03  0.14994173610E+03  0.00000000000E+00 0.  1.
         11    1    4    4    0    0  0.79699518169E+01 -0.75071831657E+02  0.43032344710E+03  0.43689537553E+03  0.00000000000E+00 0. -1.
</event>
<event>
 8    1  0.6901948E-009  0.1138500E+03  0.7561462E-02  0.1253602E+00
         -1   -1    0    0    0  501 -0.00000000000E+00  0.00000000000E+00  0.13208925309E+03  0.13208925309E+03  0.00000000000E+00 0. -1.
          1   -1    0    0  501    0  0.00000000000E+00 -0.00000000000E+00 -0.15348366733E+03  0.15348366733E+03  0.00000000000E+00 0.  1.
         25    2    1    2    0    0  0.29662761319E+01  0.89789417421E+02 -0.28335557398E+02  0.15658849249E+03  0.12508442705E+03 0.  0.
         23    2    1    2    0    0 -0.29662761319E+01 -0.89789417421E+02  0.69411431622E+01  0.12898442793E+03  0.92292279776E+02 0.  0.
          5    1    3    3  502    0  0.11785825470E+02  0.44498938543E+01 -0.62688184274E+02  0.64077984401E+02  0.41800000000E+01 0.  1.
         -5    1    3    3    0  502 -0.88195493377E+01  0.85339523567E+02  0.34352626876E+02  0.92510508087E+02  0.41800000000E+01 0.  1.
        -11    1    4    4    0    0 -0.45899038644E+02 -0.62923396564E+02  0.82568517786E+01  0.78321460564E+02  0.00000000000E+00 0. -1.
         11    1    4    4    0    0  0.42932762512E+02 -0.26866020857E+02 -0.13157086164E+01  0.50662967370E+02  0.00000000000E+00 0.  1.
</event>
<event>
 8    1  0.6901948E-009  0.1172494E+03  0.7561462E-02  0.1247705E+00
         -2   -1    0    0    0  501 -0.00000000000E+00  0.00000000000E+00  0.13320020202E+03  0.13320020202E+03  0.00000000000E+00 0.  1.
          2   -1    0    0  501    0  0.00000000000E+00 -0.00000000000E+00 -0.14005561777E+03  0.14005561777E+03  0.00000000000E+00 0. -1.
         25    2    1    2    0    0 -0.44141912883E+02 -0.63950227280E+02  0.23834759128E+02  0.14918674837E+03  0.12510175900E+03 0.  0.
         23    2    1    2    0    0  0.44141912883E+02  0.63950227280E+02 -0.30690174879E+02  0.12406907141E+03  0.91722993874E+02 0.  0.
          5    1    3    3  502    0 -0.29730896455E+02  0.30706276105E+02  0.31175284311E+02  0.53067620524E+02  0.41800000000E+01 0.  1.
         -5    1    3    3    0  502 -0.14411016428E+02 -0.94656503385E+02 -0.73405251828E+01  0.96119127844E+02  0.41800000000E+01 0.  1.
        -11    1    4    4    0    0  0.31673225909E+02  0.73484118509E+02  0.98244483594E+01  0.80620274733E+02  0.00000000000E+00 0.  1.
         11    1    4    4    0    0  0.12468686974E+02 -0.95338912288E+01 -0.40514623238E+02  0.43448796680E+02  0.00000000000E+00 0. -1.
</event>
<event>
 8    1  0.6901948E-009  0.7492695E+02  0.7561462E-02  0.1344097E+00
         -2   -1    0    0    0  501 -0.00000000000E+00  0.00000000000E+00  0.51892128636E+03  0.51892128636E+03  0.00000000000E+00 0.  1.
          2   -1    0    0  501    0  0.00000000000E+00 -0.00000000000E+00 -0.25551207097E+02  0.25551207097E+02  0.00000000000E+00 0. -1.
         25    2    1    2    0    0 -0.62105437589E+01 -0.31492550583E+02  0.22719272903E+03  0.26134365656E+03  0.12511442406E+03 0.  0.
         23    2    1    2    0    0  0.62105437589E+01  0.31492550583E+02  0.26617735024E+03  0.28312883689E+03  0.91001125848E+02 0.  0.
          5    1    3    3  502    0 -0.42083964132E+02 -0.29905220688E+02  0.27966525545E+02  0.58864091028E+02  0.41800000000E+01 0.  1.
         -5    1    3    3    0  502  0.35873420374E+02 -0.15873298956E+01  0.19922620348E+03  0.20247956553E+03  0.41800000000E+01 0.  1.
        -11    1    4    4    0    0  0.11030676604E+02  0.45643393832E+02  0.26385430776E+03  0.26800016968E+03  0.00000000000E+00 0.  1.
         11    1    4    4    0    0 -0.48201328448E+01 -0.14150843249E+02  0.23230424800E+01  0.15128667213E+02  0.00000000000E+00 0. -1.
</event>
<event>
 8    1  0.6901948E-009  0.1017103E+03  0.7561462E-02  0.1276740E+00
          2   -1    0    0  501    0  0.00000000000E+00  0.00000000000E+00  0.26384409359E+03  0.26384409359E+03  0.00000000000E+00 0. -1.
         -2   -1    0    0    0  501 -0.00000000000E+00 -0.00000000000E+00 -0.77641469708E+02  0.77641469708E+02  0.00000000000E+00 0.  1.
         25    2    1    2    0    0 -0.55374667926E+02  0.35626821283E+02  0.44326380257E+02  0.14814773240E+03  0.12508916175E+03 0.  0.
         23    2    1    2    0    0  0.55374667926E+02 -0.35626821283E+02  0.14187624362E+03  0.19333783089E+03  0.11364428762E+03 0.  0.
          5    1    3    3  502    0 -0.38033624994E+02 -0.16331264813E+01 -0.39300260507E+02  0.54874462259E+02  0.41800000000E+01 0.  1.
         -5    1    3    3    0  502 -0.17341042933E+02  0.37259947765E+02  0.83626640765E+02  0.93273270142E+02  0.41800000000E+01 0.  1.
        -11    1    4    4    0    0  0.60876736184E+02 -0.67830939993E+02  0.71824431474E+02  0.11604207162E+03  0.00000000000E+00 0.  1.
         11    1    4    4    0    0 -0.55020682582E+01  0.32204118710E+02  0.70051812146E+02  0.77295759275E+02  0.00000000000E+00 0. -1.
</event>
<event>
 8    1  0.6901948E-009  0.1212073E+03  0.7561462E-02  0.1241119E+00
         -1   -1    0    0    0  501 -0.00000000000E+00  0.00000000000E+00  0.67837583911E+03  0.67837583911E+03  0.00000000000E+00 0.  1.
          1   -1    0    0  501    0  0.00000000000E+00 -0.00000000000E+00 -0.32318740921E+02  0.32318740921E+02  0.00000000000E+00 0. -1.
         25    2    1    2    0    0  0.75903814107E+02  0.65706573292E+02  0.32954099614E+03  0.36650118964E+03  0.12508841313E+03 0.  0.
         23    2    1    2    0    0 -0.75903814107E+02 -0.65706573292E+02  0.31651610205E+03  0.34419339039E+03  0.90597485417E+02 0.  0.
          5    1    3    3  502    0  0.54031209697E+01 -0.24576846898E+02  0.10663808374E+02  0.27647863004E+02  0.41800000000E+01 0. -1.
         -5    1    3    3    0  502  0.70500693137E+02  0.90283420190E+02  0.31887718777E+03  0.33885332663E+03  0.41800000000E+01 0. -1.
        -11    1    4    4    0    0 -0.29130078141E+02 -0.38127035932E+02  0.40210320085E+02  0.62602732870E+02  0.00000000000E+00 0. -1.
         11    1    4    4    0    0 -0.46773735966E+02 -0.27579537359E+02  0.27630578196E+03  0.28159065752E+03  0.00000000000E+00 0.  1.
</event>
<event>
 8    1  0.6901948E-009  0.6861741E+02  0.7561462E-02  0.1364859E+00
          1   -1    0    0  501    0  0.00000000000E+00  0.00000000000E+00  0.20982997288E+04  0.20982997288E+04  0.00000000000E+00 0. -1.
         -1   -1    0    0    0  501 -0.00000000000E+00 -0.00000000000E+00 -0.22737802295E+02  0.22737802295E+02  0.00000000000E+00 0.  1.
         25    2    1    2    0    0 -0.17966184064E+02 -0.38444717744E+02  0.19392680042E+04  0.19437615444E+04  0.12509104400E+03 0.  0.
         23    2    1    2    0    0  0.17966184064E+02  0.38444717744E+02  0.13629392233E+03  0.17727598672E+03  0.10511879999E+03 0.  0.
          5    1    3    3  502    0 -0.70950553776E+01 -0.29703566066E+02  0.10487972582E+03  0.10931546521E+03  0.41800000000E+01 0. -1.
         -5    1    3    3    0  502 -0.10871128686E+02 -0.87411516787E+01  0.18343882784E+04  0.18344460792E+04  0.41800000000E+01 0. -1.
        -11    1    4    4    0    0  0.45975234916E+02  0.21801480450E+01  0.12019863314E+03  0.12870969924E+03  0.00000000000E+00 0.  1.
         11    1    4    4    0    0 -0.28009050853E+02  0.36264569699E+02  0.16095289195E+02  0.48566287478E+02  0.00000000000E+00 0. -1.
</event>
<event>
 8    1  0.6901948E-009  0.8698168E+02  0.7561462E-02  0.1310330E+00
          2   -1    0    0  501    0  0.00000000000E+00  0.00000000000E+00  0.11551993316E+03  0.11551993316E+03  0.00000000000E+00 0. -1.
         -2   -1    0    0    0  501 -0.00000000000E+00 -0.00000000000E+00 -0.12541615923E+03  0.12541615923E+03  0.00000000000E+00 0.  1.
         25    2    1    2    0    0 -0.20483847672E+02 -0.53376699377E+01  0.42870776809E+02  0.13391336209E+03  0.12508719481E+03 0.  0.
         23    2    1    2    0    0  0.20483847672E+02  0.53376699377E+01 -0.52767002881E+02  0.10702273029E+03  0.90672098633E+02 0.  0.
          5    1    3    3  502    0 -0.39509964057E+02 -0.30328789169E+02  0.74127509428E+02  0.89404881110E+02  0.41800000000E+01 0.  1.
         -5    1    3    3    0  502  0.19026116385E+02  0.24991119231E+02 -0.31256732620E+02  0.44508480980E+02  0.41800000000E+01 0.  1.
        -11    1    4    4    0    0 -0.35719290094E+02 -0.10070828249E+01 -0.13641608426E+02  0.38248861174E+02  0.00000000000E+00 0. -1.
         11    1    4    4    0    0  0.56203137766E+02  0.63447527626E+01 -0.39125394455E+02  0.68773869119E+02  0.00000000000E+00 0.  1.
</event>
<event>
 7    1  0.6901948E-009  0.1553264E+03  0.7561462E-02  0.1194077E+00
          1   -1    0    0  501    0  0.00000000000E+00  0.00000000000E+00  0.38515714342E+03  0.38515714342E+03  0.00000000000E+00 0. -1.
         -1   -1    0    0    0  501 -0.00000000000E+00 -0.00000000000E+00 -0.96988254767E+02  0.96988254767E+02  0.00000000000E+00 0.  1.
         25    2    1    2    0    0  0.10053489816E+03 -0.18638331866E+02  0.18024365388E+03  0.24205356202E+03  0.12508996346E+03 0.  0.
          5    1    3    3  502    0  0.60588206125E+02 -0.69777397481E+02  0.78597229930E+02  0.12138703750E+03  0.41800000000E+01 0.  1.
         -5    1    3    3    0  502  0.39946692040E+02  0.51139065615E+02  0.10164642395E+03  0.12066652452E+03  0.41800000000E+01 0.  1.
        -11    1    1    2    0    0  0.25666766994E+02  0.93649323015E+00 -0.38308395231E+02  0.46121503582E+02  0.00000000000E+00 0.  1.
         11    1    1    2    0    0 -0.12620166516E+03  0.17701838636E+02  0.14623363000E+03  0.19397033259E+03  0.00000000000E+00 0. -1.
</event>
<event>
 8    1  0.6901948E-009  0.2306629E+03  0.7561462E-02  0.1126174E+00
          3   -1    0    0  501    0  0.00000000000E+00  0.00000000000E+00  0.24780367630E+03  0.24780367630E+03  0.00000000000E+00 0. -1.
         -3   -1    0    0    0  501 -0.00000000000E+00 -0.00000000000E+00 -0.24354346993E+03  0.24354346993E+03  0.00000000000E+00 0.  1.
         25    2    1    2    0    0  0.29195672085E+02  0.21517276906E+03 -0.33038205338E+02  0.25278243633E+03  0.12512285678E+03 0.  0.
         23    2    1    2    0    0 -0.29195672085E+02 -0.21517276906E+03  0.37298411706E+02  0.23856470991E+03  0.91489023839E+02 0.  0.
          5    1    3    3  502    0  0.34348869554E+02  0.22538114525E+03 -0.11830857767E+02  0.22832859451E+03  0.41800000000E+01 0. -1.
         -5    1    3    3    0  502 -0.51531974698E+01 -0.10208376190E+02 -0.21207347571E+02  0.24453841816E+02  0.41800000000E+01 0. -1.
        -11    1    4    4    0    0 -0.29865525591E+02 -0.71922010568E+02 -0.25789855831E+02  0.82035613527E+02  0.00000000000E+00 0.  1.
         11    1    4    4    0    0  0.66985350666E+00 -0.14325075850E+03  0.63088267536E+02  0.15652909638E+03  0.00000000000E+00 0. -1.
</event>
<event>
 8    1  0.6901948E-009  0.1366539E+03  0.7561462E-02  0.1217904E+00
         -3   -1    0    0    0  501 -0.00000000000E+00  0.00000000000E+00  0.71762127933E+02  0.71762127933E+02  0.00000000000E+00 0. -1.
          3   -1    0    0  501    0  0.00000000000E+00 -0.00000000000E+00 -0.31846490264E+03  0.31846490264E+03  0.00000000000E+00 0.  1.
         25    2    1    2    0    0 -0.65526737486E+02  0.79842688850E+02 -0.15924728867E+03  0.22732455461E+03  0.12509254931E+03 0.  0.
         23    2    1    2    0    0  0.65526737486E+02 -0.79842688850E+02 -0.87455486035E+02  0.16290247596E+03  0.90665022734E+02 0.  0.
          5    1    3    3  502    0 -0.37156400240E+02 -0.12721905899E+02  0.16150562763E+01  0.39528796785E+02  0.41800000000E+01 0.  1.
         -5    1    3    3    0  502 -0.28370337246E+02  0.92564594749E+02 -0.16086234494E+03  0.18779575783E+03  0.41800000000E+01 0.  1.
        -11    1    4    4    0    0 -0.11309463775E+02 -0.55005853993E+02 -0.28906905584E+02  0.63159774657E+02  0.00000000000E+00 0. -1.
         11    1    4    4    0    0  0.76836201260E+02 -0.24836834857E+02 -0.58548580451E+02  0.99742701301E+02  0.00000000000E+00 0.  1.
</event>
<event>
 8    1  0.6901948E-009  0.9360974E+02  0.7561462E-02  0.1294338E+00
          3   -1    0    0  501    0  0.00000000000E+00  0.00000000000E+00  0.28684054592E+03  0.28684054592E+03  0.00000000000E+00 0. -1.
         -3   -1    0    0    0  501 -0.00000000000E+00 -0.00000000000E+00 -0.57640235806E+02  0.57640235806E+02  0.00000000000E+00 0.  1.
         25    2    1    2    0    0 -0.85122263056E+01  0.65042313336E+00  0.34661223843E+02  0.13008353972E+03  0.12508975107E+03 0.  0.
         23    2    1    2    0    0  0.85122263056E+01 -0.65042313336E+00  0.19453908627E+03  0.21439724200E+03  0.89709755565E+02 0.  0.
          5    1    3    3  502    0 -0.51747135323E+02 -0.10262593913E+02  0.58880977284E+02  0.79167725330E+02  0.41800000000E+01 0.  1.
         -5    1    3    3    0  502  0.43234909017E+02  0.10913017047E+02 -0.24219753441E+02  0.50915814395E+02  0.41800000000E+01 0.  1.
        -11    1    4    4    0    0  0.22349165737E+02  0.40412775648E+02  0.11269133711E+03  0.12178676079E+03  0.00000000000E+00 0. -1.
         11    1    4    4    0    0 -0.13836939431E+02 -0.41063198781E+02  0.81847749165E+02  0.92610481212E+02  0.00000000000E+00 0.  1.
</event>
<event>
 8    1  0.6901948E-009  0.1799246E+03  0.7561462E-02  0.1167876E+00
          1   -1    0    0  501    0  0.00000000000E+00  0.00000000000E+00  0.11232180134E+04  0.11232180134E+04  0.00000000000E+00 0. -1.
         -1   -1    0    0    0  501 -0.00000000000E+00 -0.00000000000E+00 -0.50225428872E+02  0.50225428872E+02  0.00000000000E+00 0.  1.
         25    2    1    2    0    0 -0.10068745482E+03  0.12417343289E+03  0.89302910660E+03  0.91580914222E+03  0.12509354397E+03 0.  0.
         23    2    1    2    0    0  0.10068745482E+03 -0.12417343289E+03  0.17996347795E+03  0.25763430008E+03  0.91823603651E+02 0.  0.
          5    1    3    3  502    0 -0.44845392935E+02 -0.15716518137E+02  0.14154910277E+03  0.14937114549E+03  0.41800000000E+01 0. -1.
         -5    1    3    3    0  502 -0.55842061887E+02  0.13988995102E+03  0.75148000383E+03  0.76643799673E+03  0.41800000000E+01 0. -1.
        -11    1    4    4    0    0  0.87941885214E+02 -0.94075015103E+02  0.77996812592E+02  0.15055692085E+03  0.00000000000E+00 0.  1.
         11    1    4    4    0    0  0.12745569607E+02 -0.30098417782E+02  0.10196666536E+03  0.10707737923E+03  0.00000000000E+00 0. -1.
</event>
<event>
 8    1  0.6901948E-009  0.1041135E+03  0.7561462E-02  0.1271876E+00
          2   -1    0    0  501    0  0.00000000000E+00  0.00000000000E+00  0.19643729417E+03  0.19643729417E+03  0.00000000000E+00 0. -1.
         -2   -1    0    0    0  501 -0.00000000000E+00 -0.00000000000E+00 -0.74873341729E+02  0.74873341729E+02  0.00000000000E+00 0.  1.
         25    2    1    2    0    0  0.15025434038E+02  0.59020830510E+01  0.10775736606E+02  0.12658981113E+03  0.12509302750E+03 0.  0.
         23    2    1    2    0    0 -0.15025434038E+02 -0.59020830510E+01  0.11078821583E+03  0.14472082477E+03  0.91703272035E+02 0.  0.
          5    1    3    3  502    0 -0.23590714769E+02  0.56135026604E+02  0.15326094091E+02  0.62928726312E+02  0.41800000000E+01 0. -1.
         -5    1    3    3    0  502  0.38616148806E+02 -0.50232943553E+02 -0.45503574852E+01  0.63661084816E+02  0.41800000000E+01 0. -1.
        -11    1    4    4    0    0 -0.26979531900E+02 -0.39612549776E+02  0.93337627534E+02  0.10492360056E+03  0.00000000000E+00 0. -1.
         11    1    4    4    0    0  0.11954097862E+02  0.33710466725E+02  0.17450588296E+02  0.39797224205E+02  0.00000000000E+00 0.  1.
</event>
<event>
 8    1  0.6901948E-009  0.1143116E+03  0.7561462E-02  0.1252788E+00
          1   -1    0    0  501    0  0.00000000000E+00  0.00000000000E+00  0.18741840936E+04  0.18741840936E+04  0.00000000000E+00 0.  1.
         -1   -1    0    0    0  501 -0.00000000000E+00 -0.00000000000E+00 -0.86625150541E+01  0.86625150541E+01  0.00000000000E+00 0. -1.
         25    2    1    2    0    0  0.71901479085E+01  0.44145366309E+02  0.14287187341E+04  0.14348810947E+04  0.12508406367E+03 0.  0.
         23    2    1    2    0    0 -0.71901479085E+01 -0.44145366309E+02  0.43680284440E+03  0.44796551397E+03  0.88746071678E+02 0.  0.
          5    1    3    3  502    0 -0.45699117835E+02 -0.16511172035E+02  0.38924813322E+03  0.39229148575E+03  0.41800000000E+01 0.  1.
         -5    1    3    3    0  502  0.52889265744E+02  0.60656538344E+02  0.10394706009E+04  0.10425896089E+04  0.41800000000E+01 0.  1.
        -11    1    4    4    0    0  0.20358772842E+02  0.20564923565E+02  0.11788255229E+03  0.12138241984E+03  0.00000000000E+00 0. -1.
         11    1    4    4    0    0 -0.27548920750E+02 -0.64710289874E+02  0.31892029211E+03  0.32658309413E+03  0.00000000000E+00 0.  1.
</event>
<event>
 8    1  0.6901948E-009  0.6357394E+02  0.7561462E-02  0.1383417E+00
          2   -1    0    0  501    0  0.00000000000E+00  0.00000000000E+00  0.24336509994E+03  0.24336509994E+03  0.00000000000E+00 0. -1.
         -2   -1    0    0    0  501 -0.00000000000E+00 -0.00000000000E+00 -0.62775454715E+02  0.62775454715E+02  0.00000000000E+00 0.  1.
         25    2    1    2    0    0  0.24821939692E+02 -0.25416563584E+02  0.41642184036E+02  0.13654174298E+03  0.12508975054E+03 0.  0.
         23    2    1    2    0    0 -0.24821939692E+02  0.25416563584E+02  0.13894746119E+03  0.16959881168E+03  0.90527507184E+02 0.  0.
          5    1    3    3  502    0  0.25948996326E+02 -0.36366885770E+02  0.82558795633E+02  0.93964503550E+02  0.41800000000E+01 0. -1.
         -5    1    3    3    0  502 -0.11270566341E+01  0.10950322186E+02 -0.40916611598E+02  0.42577239428E+02  0.41800000000E+01 0. -1.
        -11    1    4    4    0    0  0.20454799692E+02  0.69308080111E+01  0.11138916012E+03  0.11346356209E+03  0.00000000000E+00 0. -1.
         11    1    4    4    0    0 -0.45276739384E+02  0.18485755573E+02  0.27558301070E+02  0.56135249587E+02  0.00000000000E+00 0.  1.
</event>
<event>
 8    1  0.6901948E-009  0.3649510E+03  0.7561462E-02  0.1056641E+00
         -2   -1    0    0    0  501 -0.00000000000E+00  0.00000000000E+00  0.97720231407E+03  0.97720231407E+03  0.00000000000E+00 0.  1.
          2   -1    0    0  501    0  0.00000000000E+00 -0.00000000000E+00 -0.16347960872E+03  0.16347960872E+03  0.00000000000E+00 0. -1.
         25    2    1    2    0    0  0.16736817987E+03 -0.31928318890E+03  0.60209611632E+03  0.71282610270E+03  0.12508979600E+03 0.  0.
         23    2    1    2    0    0 -0.16736817987E+03  0.31928318890E+03  0.21162658904E+03  0.42785582009E+03  0.91219116666E+02 0.  0.
          5    1    3    3  502    0  0.14199621805E+03 -0.31159802005E+03  0.59245809654E+03  0.68431010558E+03  0.41800000000E+01 0.  1.
         -5    1    3    3    0  502  0.25371961819E+02 -0.76851688522E+01  0.96380197751E+01  0.28515997125E+02  0.41800000000E+01 0.  1.
        -11    1    4    4    0    0 -0.10665565466E+03  0.19368879656E+03  0.77403775471E+02  0.23426933867E+03  0.00000000000E+00 0. -1.
         11    1    4    4    0    0 -0.60712525211E+02  0.12559439234E+03  0.13422281357E+03  0.19358648141E+03  0.00000000000E+00 0.  1.
</event>
<event>
 8    1  0.6901948E-009  0.9048820E+02  0.7561462E-02  0.1301674E+00
          1   -1    0    0  501    0  0.00000000000E+00  0.00000000000E+00  0.70858969068E+02  0.70858969068E+02  0.00000000000E+00 0. -1.
         -1   -1    0    0    0  501 -0.00000000000E+00 -0.00000000000E+00 -0.19355450566E+03  0.19355450566E+03  0.00000000000E+00 0.  1.
         25    2    1    2    0    0 -0.26767351969E+02  0.94995400163E+00 -0.29563191996E+02  0.13129738167E+03  0.12509047353E+03 0.  0.
         23    2    1    2    0    0  0.26767351969E+02 -0.94995400163E+00 -0.93132344598E+02  0.13311609306E+03  0.91262626948E+02 0.  0.
          5    1    3    3  502    0 -0.56016336830E+02 -0.22869352918E+01  0.30734880578E+02  0.64071564278E+02  0.41800000000E+01 0. -1.
         -5    1    3    3    0  502  0.29248984861E+02  0.32368892934E+01 -0.60298072574E+02  0.67225817390E+02  0.41800000000E+01 0. -1.
        -11    1    4    4    0    0  0.32711531468E+02  0.41121571358E+02 -0.48823319494E+02  0.71726873962E+02  0.00000000000E+00 0.  1.
         11    1    4    4    0    0 -0.59441794991E+01 -0.42071525359E+02 -0.44309025104E+02  0.61389219100E+02  0.00000000000E+00 0. -1.
</event>
<event>
 8    1  0.6901948E-009  0.1211207E+03  0.7561462E-02  0.1241260E+00
          1   -1    0    0  501    0  0.00000000000E+00  0.00000000000E+00  0.29835048343E+03  0.29835048343E+03  0.00000000000E+00 0. -1.
         -1   -1    0    0    0  501 -0.00000000000E+00 -0.00000000000E+00 -0.63595641694E+02  0.63595641694E+02  0.00000000000E+00 0.  1.
         25    2    1    2    0    0  0.18786442325E+02 -0.51059891634E+02  0.21126155670E+03  0.25147224563E+03  0.12508717773E+03 0.  0.
         23    2    1    2    0    0 -0.18786442325E+02  0.51059891634E+02  0.23493285039E+02  0.11047387950E+03  0.93233581184E+02 0.  0.
          5    1    3    3  502    0  0.15757551675E+02  0.40665794604E+02  0.80722212168E+02  0.91845278718E+02  0.41800000000E+01 0. -1.
         -5    1    3    3    0  502  0.30288906499E+01 -0.91725686238E+02  0.13053934453E+03  0.15962696691E+03  0.41800000000E+01 0. -1.
        -11    1    4    4    0    0  0.37367970774E+02  0.21011239403E+02  0.84562228181E+00  0.42878345328E+02  0.00000000000E+00 0.  1.
         11    1    4    4    0    0 -0.56154413099E+02  0.30048652231E+02  0.22647662757E+02  0.67595534170E+02  0.00000000000E+00 0. -1.
</event>
<event>
 8    1  0.6901948E-009  0.2110674E+03  0.7561462E-02  0.1140723E+00
         -2   -1    0    0    0  501 -0.00000000000E+00  0.00000000000E+00  0.34986120260E+02  0.34986120260E+02  0.00000000000E+00 0. -1.
          2   -1    0    0  501    0  0.00000000000E+00 -0.00000000000E+00 -0.14887073929E+04  0.14887073929E+04  0.00000000000E+00 0.  1.
         25    2    1    2    0    0 -0.94797988229E+02 -0.16215646352E+03 -0.98303356460E+03  0.10086052901E+04  0.12509302522E+03 0.  0.
         23    2    1    2    0    0  0.94797988229E+02  0.16215646352E+03 -0.47068770807E+03  0.51508822304E+03  0.92128072550E+02 0.  0.
          5    1    3    3  502    0 -0.12060121704E+03 -0.94948752479E+02 -0.66353281826E+03  0.68106768566E+03  0.41800000000E+01 0.  1.
         -5    1    3    3    0  502  0.25803228815E+02 -0.67207711042E+02 -0.31950074634E+03  0.32753760449E+03  0.41800000000E+01 0.  1.
        -11    1    4    4    0    0  0.57085912587E+02  0.14341966163E+03 -0.42860487329E+03  0.45555475869E+03  0.00000000000E+00 0.  1.
         11    1    4    4    0    0  0.37712075642E+02  0.18736801891E+02 -0.42082834785E+02  0.59533464353E+02  0.00000000000E+00 0. -1.
</event>
<event>
 8    1  0.6901948E-009  0.1141215E+03  0.7561462E-02  0.1253122E+00
         -1   -1    0    0    0  501 -0.00000000000E+00  0.00000000000E+00  0.11842042049E+03  0.11842042049E+03  0.00000000000E+00 0.  1.
          1   -1    0    0  501    0  0.00000000000E+00 -0.00000000000E+00 -0.16369927450E+03  0.16369927450E+03  0.00000000000E+00 0. -1.
         25    2    1    2    0    0  0.69928049311E+02 -0.10105879986E+02 -0.76230497173E+02  0.16263585839E+03  0.12508905965E+03 0.  0.
         23    2    1    2    0    0 -0.69928049311E+02  0.10105879986E+02  0.30951643159E+02  0.11948383660E+03  0.91248682756E+02 0.  0.
          5    1    3    3  502    0 -0.21889298254E+02 -0.32102242499E+01  0.19471180696E+02  0.29766528106E+02  0.41800000000E+01 0.  1.
         -5    1    3    3    0  502  0.91817347565E+02 -0.68956557357E+01 -0.95701677869E+02  0.13286933028E+03  0.41800000000E+01 0.  1.
        -11    1    4    4    0    0 -0.66871568977E+02 -0.30030339271E+02  0.30039123875E+02  0.79221063976E+02  0.00000000000E+00 0.  1.
         11    1    4    4    0    0 -0.30564803332E+01  0.40136219257E+02  0.91251928391E+00  0.40262772628E+02  0.00000000000E+00 0. -1.
</event>
<event>
 8    1  0.6901948E-009  0.1114923E+03  0.7561462E-02  0.1257831E+00
          2   -1    0    0  501    0  0.00000000000E+00  0.00000000000E+00  0.67384478580E+03  0.67384478580E+03  0.00000000000E+00 0. -1.
         -2   -1    0    0    0  501 -0.00000000000E+00 -0.00000000000E+00 -0.22075921202E+02  0.22075921202E+02  0.00000000000E+00 0.  1.
         25    2    1    2    0    0  0.50039916673E+02  0.21824906196E+02  0.42476806974E+03  0.44615647770E+03  0.12508944694E+03 0.  0.
         23    2    1    2    0    0 -0.50039916673E+02 -0.21824906196E+02  0.22700079486E+03  0.24976422930E+03  0.88727051005E+02 0.  0.
          5    1    3    3  502    0 -0.26913050358E+02 -0.31721205304E+02  0.10917831317E+03  0.11690989527E+03  0.41800000000E+01 0. -1.
         -5    1    3    3    0  502  0.76952967031E+02  0.53546111500E+02  0.31558975657E+03  0.32924658243E+03  0.41800000000E+01 0. -1.
        -11    1    4    4    0    0 -0.50260568862E+02  0.13472329294E+02  0.61587001929E+02  0.80626219343E+02  0.00000000000E+00 0.  1.
         11    1    4    4    0    0  0.22065218969E+00 -0.35297235489E+02  0.16541379293E+03  0.16913800996E+03  0.00000000000E+00 0. -1.
</event>
<event>
 7    1  0.6901948E-009  0.1239758E+03  0.7561462E-02  0.1236679E+00
          2   -1    0    0  501    0  0.00000000000E+00  0.00000000000E+00  0.15607805867E+03  0.15607805867E+03  0.00000000000E+00 0. -1.
         -2   -1    0    0    0  501 -0.00000000000E+00 -0.00000000000E+00 -0.10777284927E+03  0.10777284927E+03  0.00000000000E+00 0.  1.
         23    2    1    2    0    0  0.47077220420E+02 -0.48781494266E+02  0.18168156877E+01  0.11411767045E+03  0.91780406540E+02 0.  0.
          5    1    1    2  502    0  0.13664413774E+02  0.74661830722E+02  0.28384448042E+02  0.81143419088E+02  0.41800000000E+01 0. -1.
         -5    1    1    2    0  502 -0.60741634194E+02 -0.25880336456E+02  0.18103945667E+02  0.68589818401E+02  0.41800000000E+01 0. -1.
        -11    1    3    3    0    0  0.65142734679E+02 -0.14068399204E+02 -0.19653529975E+02  0.69482062276E+02  0.00000000000E+00 0. -1.
         11    1    3    3    0    0 -0.18065514260E+02 -0.34713095062E+02  0.21470345663E+02  0.44635608175E+02  0.00000000000E+00 0.  1.
</event>
<event>
 8    1  0.6901948E-009  0.9320937E+02  0.7561462E-02  0.1295261E+00
         -1   -1    0    0    0  501 -0.00000000000E+00  0.00000000000E+00  0.42151675158E+02  0.42151675158E+02  0.00000000000E+00 0.  1.
          1   -1    0    0  501    0  0.00000000000E+00 -0.00000000000E+00 -0.36849236791E+03  0.36849236791E+03  0.00000000000E+00 0. -1.
         25    2    1    2    0    0  0.40875429589E+02 -0.31300358930E+02 -0.12439545190E+03  0.18375774690E+03  0.12506865267E+03 0.  0.
         23    2    1    2    0    0 -0.40875429589E+02  0.31300358930E+02 -0.20194524085E+03  0.22688629616E+03  0.89693912106E+02 0.  0.
          5    1    3    3  502    0  0.86072167563E+01 -0.54286439815E+02 -0.21285581510E+01  0.55164344353E+02  0.41800000000E+01 0.  1.
         -5    1    3    3    0  502  0.32268212833E+02  0.22986080885E+02 -0.12226689374E+03  0.12859340255E+03  0.41800000000E+01 0.  1.
        -11    1    4    4    0    0 -0.61265818478E+02  0.10189814425E+02 -0.17948970004E+03  0.18993126455E+03  0.00000000000E+00 0.  1.
         11    1    4    4    0    0  0.20390388889E+02  0.21110544505E+02 -0.22455540811E+02  0.36955031611E+02  0.00000000000E+00 0. -1.
</event>
<event>
 8    1  0.6901948E-009  0.9792415E+02  0.7561462E-02  0.1284723E+00
         -1   -1    0    0    0  501 -0.00000000000E+00  0.00000000000E+00  0.37187195269E+03  0.37187195269E+03  0.00000000000E+00 0.  1.
          1   -1    0    0  501    0  0.00000000000E+00 -0.00000000000E+00 -0.40142620422E+02  0.40142620422E+02  0.00000000000E+00 0. -1.
         25    2    1    2    0    0 -0.33187612750E+02 -0.46646218447E+02  0.15658133698E+03  0.20842883027E+03  0.12509026685E+03 0.  0.
         23    2    1    2    0    0  0.33187612750E+02  0.46646218447E+02  0.17514799528E+03  0.20358574284E+03  0.86562388487E+02 0.  0.
          5    1    3    3  502    0 -0.50151447763E+02 -0.82017981039E+02  0.12583739600E+03  0.15841287687E+03  0.41800000000E+01 0. -1.
         -5    1    3    3    0  502  0.16963835014E+02  0.35371762593E+02  0.30743940981E+02  0.50015953398E+02  0.41800000000E+01 0. -1.
        -11    1    4    4    0    0  0.33969217903E+02  0.36004377615E+02  0.18348490475E+03  0.19004455594E+03  0.00000000000E+00 0.  1.
         11    1    4    4    0    0 -0.78160515287E+00  0.10641840831E+02 -0.83369094724E+01  0.13541186892E+02  0.00000000000E+00 0. -1.
</event>
<event>
 8    1  0.6901948E-009  0.1141384E+03  0.7561462E-02  0.1253093E+00
          1   -1    0    0  501    0  0.00000000000E+00  0.00000000000E+00  0.55165330490E+03  0.55165330490E+03  0.00000000000E+00 0. -1.
         -1   -1    0    0    0  501 -0.00000000000E+00 -0.00000000000E+00 -0.31914957492E+02  0.31914957492E+02  0.00000000000E+00 0.  1.
         25    2    1    2    0    0 -0.53168417944E+02 -0.11703790206E+02  0.17303390572E+03  0.22034595730E+03  0.12509096290E+03 0.  0.
         23    2    1    2    0    0  0.53168417944E+02  0.11703790206E+02  0.34670444169E+03  0.36322230509E+03  0.93608833206E+02 0.  0.
          5    1    3    3  502    0 -0.19247299516E+02  0.55282720403E+02  0.55249207724E+02  0.80601396191E+02  0.41800000000E+01 0. -1.
         -5    1    3    3    0  502 -0.33921118428E+02 -0.66986510609E+02  0.11778469799E+03  0.13974456111E+03  0.41800000000E+01 0. -1.
        -11    1    4    4    0    0  0.36324161455E+02 -0.31460331243E+02  0.86745697347E+02  0.99166592941E+02  0.00000000000E+00 0.  1.
         11    1    4    4    0    0  0.16844256489E+02  0.43164121449E+02  0.25995874434E+03  0.26405571215E+03  0.00000000000E+00 0. -1.
</event>
<event>
 8    1  0.6901948E-009  0.1619455E+03  0.7561462E-02  0.1186518E+00
         -1   -1    0    0    0  501 -0.00000000000E+00  0.00000000000E+00  0.20900465836E+03  0.20900465836E+03  0.00000000000E+00 0.  1.
          1   -1    0    0  501    0  0.00000000000E+00 -0.00000000000E+00 -0.13671448779E+03  0.13671448779E+03  0.00000000000E+00 0. -1.
         25    2    1    2    0    0 -0.46875323552E+02  0.11485872562E+03  0.21958074416E+01  0.17618747358E+03  0.12508949383E+03 0.  0.
         23    2    1    2    0    0  0.46875323552E+02 -0.11485872562E+03  0.70094363126E+02  0.16953167257E+03  0.91858290055E+02 0.  0.
          5    1    3    3  502    0  0.24065440280E+02  0.96183215231E+02  0.18443847442E+02  0.10093564393E+03  0.41800000000E+01 0.  1.
         -5    1    3    3    0  502 -0.70940763832E+02  0.18675510392E+02 -0.16248040000E+02  0.75251829648E+02  0.41800000000E+01 0.  1.
        -11    1    4    4    0    0 -0.17302575188E+02 -0.71892440162E+02  0.51441095926E+02  0.90078234944E+02  0.00000000000E+00 0.  1.
         11    1    4    4    0    0  0.64177898740E+02 -0.42966285461E+02  0.18653267200E+02  0.79453437624E+02  0.00000000000E+00 0. -1.
</event>
<event>
 8    1  0.6901948E-009  0.9379265E+02  0.7561462E-02  0.1293919E+00
          1   -1    0    0  501    0  0.00000000000E+00  0.00000000000E+00  0.39038684189E+03  0.39038684189E+03  0.00000000000E+00 0. -1.
         -1   -1    0    0    0  501 -0.00000000000E+00 -0.00000000000E+00 -0.31382322166E+02  0.31382322166E+02  0.00000000000E+00 0.  1.
         25    2    1    2    0    0  0.11439501521E+02 -0.20729277677E+01  0.16251571847E+03  0.20541286236E+03  0.12509167058E+03 0.  0.
         23    2    1    2    0    0 -0.11439501521E+02  0.20729277677E+01  0.19648880126E+03  0.21635630170E+03  0.89816708026E+02 0.  0.
          5    1    3    3  502    0 -0.77684317429E+01 -0.59261707022E+02  0.11027327276E+03  0.12549886668E+03  0.41800000000E+01 0. -1.
         -5    1    3    3    0  502  0.19207933263E+02  0.57188779255E+02  0.52242445706E+02  0.79913995684E+02  0.41800000000E+01 0. -1.
        -11    1    4    4    0    0  0.12091125112E+02 -0.27125234324E+02  0.19708985686E+02  0.35642920200E+02  0.00000000000E+00 0.  1.
         11    1    4    4    0    0 -0.23530626632E+02  0.29198162092E+02  0.17677981557E+03  0.18071338150E+03  0.00000000000E+00 0. -1.
</event>
<event>
 8    1  0.6901948E-009  0.1900497E+03  0.7561462E-02  0.1158417E+00
         -1   -1    0    0    0  501 -0.00000000000E+00  0.00000000000E+00  0.75722725852E+02  0.75722725852E+02  0.00000000000E+00 0.  1.
          1   -1    0    0  501    0  0.00000000000E+00 -0.00000000000E+00 -0.95632159708E+03  0.95632159708E+03  0.00000000000E+00 0. -1.
         25    2    1    2    0    0 -0.15456945999E+03 -0.67756334976E+02 -0.10831010325E+03  0.23634291354E+03  0.12507699797E+03 0.  0.
         23    2    1    2    0    0  0.15456945999E+03  0.67756334976E+02 -0.77228876797E+03  0.79570140940E+03  0.90709166487E+02 0.  0.
          5    1    3    3  502    0 -0.10303654411E+03 -0.95156723215E+02 -0.10923238035E+03  0.17782158674E+03  0.41800000000E+01 0. -1.
         -5    1    3    3    0  502 -0.51532915877E+02  0.27400388239E+02  0.92227709577E+00  0.58521326792E+02  0.41800000000E+01 0. -1.
        -11    1    4    4    0    0  0.72520032445E+02  0.67714687853E+02 -0.54724570367E+03  0.55616750557E+03  0.00000000000E+00 0. -1.
         11    1    4    4    0    0  0.82049427543E+02  0.41647122608E-01 -0.22504306430E+03  0.23953390383E+03  0.00000000000E+00 0.  1.
</event>
<event>
 8    1  0.6901948E-009  0.4387481E+02  0.7561462E-02  0.1481491E+00
         -3   -1    0    0    0  501 -0.00000000000E+00  0.00000000000E+00  0.64126324351E+02  0.64126324351E+02  0.00000000000E+00 0.  1.
          3   -1    0    0  501    0  0.00000000000E+00 -0.00000000000E+00 -0.18920696422E+03  0.18920696422E+03  0.00000000000E+00 0. -1.
         25    2    1    2    0    0  0.41944801332E+01 -0.16148167964E+02 -0.61476670224E+02  0.14040813788E+03  0.12512676456E+03 0.  0.
         23    2    1    2    0    0 -0.41944801332E+01  0.16148167964E+02 -0.63603969646E+02  0.11292515069E+03  0.91805597383E+02 0.  0.
          5    1    3    3  502    0  0.10619387986E+02 -0.23161685381E+01 -0.99003194408E+02  0.99685710816E+02  0.41800000000E+01 0.  1.
         -5    1    3    3    0  502 -0.64249078531E+01 -0.13831999426E+02  0.37526524184E+02  0.40722427069E+02  0.41800000000E+01 0.  1.
        -11    1    4    4    0    0  0.20839203356E+02  0.26058797013E+02  0.97697745193E+01  0.34767539350E+02  0.00000000000E+00 0.  1.
         11    1    4    4    0    0 -0.25033683489E+02 -0.99106290490E+01 -0.73373744165E+02  0.78157611337E+02  0.00000000000E+00 0. -1.
</event>
<event>
 8    1  0.6901948E-009  0.1115819E+03  0.7561462E-02  0.1257668E+00
         -2   -1    0    0    0  501 -0.00000000000E+00  0.00000000000E+00  0.84012027988E+02  0.84012027988E+02  0.00000000000E+00 0.  1.
          2   -1    0    0  501    0  0.00000000000E+00 -0.00000000000E+00 -0.39467539663E+03  0.39467539663E+03  0.00000000000E+00 0. -1.
         25    2    1    2    0    0  0.33030795895E+02  0.79138432447E+02 -0.31739542666E+03  0.35178176965E+03  0.12512646254E+03 0.  0.
         23    2    1    2    0    0 -0.33030795895E+02 -0.79138432447E+02  0.67320580195E+01  0.12690565496E+03  0.93304874948E+02 0.  0.
          5    1    3    3  502    0 -0.26361439564E+02  0.50377577180E+02 -0.25350155429E+03  0.25983328541E+03  0.41800000000E+01 0.  1.
         -5    1    3    3    0  502  0.59392235459E+02  0.28760855267E+02 -0.63893872375E+02  0.91948484248E+02  0.41800000000E+01 0.  1.
        -11    1    4    4    0    0 -0.41183327266E+02 -0.31897611998E+02  0.42389466624E+02  0.67159444433E+02  0.00000000000E+00 0. -1.
         11    1    4    4    0    0  0.81525313716E+01 -0.47240820449E+02 -0.35657408604E+02  0.59746210532E+02  0.00000000000E+00 0.  1.
</event>
<event>
 8    1  0.6901948E-009  0.1825907E+03  0.7561462E-02  0.1165319E+00
         -1   -1    0    0    0  501 -0.00000000000E+00  0.00000000000E+00  0.26745382812E+03  0.26745382812E+03  0.00000000000E+00 0.  1.
          1   -1    0    0  501    0  0.00000000000E+00 -0.00000000000E+00 -0.13096036650E+03  0.13096036650E+03  0.00000000000E+00 0. -1.
         25    2    1    2    0    0 -0.11777931907E+03  0.97344517464E+02  0.66294477578E+02  0.20829779663E+03  0.12508033915E+03 0.  0.
         23    2    1    2    0    0  0.11777931907E+03 -0.97344517464E+02  0.70198984040E+02  0.19011639799E+03  0.88704139367E+02 0.  0.
          5    1    3    3  502    0 -0.52685828848E+02  0.11147395146E+03  0.69281236296E+02  0.14149063756E+03  0.41800000000E+01 0. -1.
         -5    1    3    3    0  502 -0.65093490227E+02 -0.14129433996E+02 -0.29867587180E+01  0.66807159067E+02  0.41800000000E+01 0. -1.
        -11    1    4    4    0    0  0.89177556591E+02 -0.11181257870E+03  0.46984090016E+02  0.15053967607E+03  0.00000000000E+00 0. -1.
         11    1    4    4    0    0  0.28601762483E+02  0.14468061240E+02  0.23214894024E+02  0.39576721917E+02  0.00000000000E+00 0.  1.
</event>
<event>
 8    1  0.6901948E-009  0.1022238E+03  0.7561462E-02  0.1275688E+00
         -1   -1    0    0    0  501 -0.00000000000E+00  0.00000000000E+00  0.27445731388E+03  0.27445731388E+03  0.00000000000E+00 0.  1.
          1   -1    0    0  501    0  0.00000000000E+00 -0.00000000000E+00 -0.70442309776E+02  0.70442309776E+02  0.00000000000E+00 0. -1.
         25    2    1    2    0    0  0.74645642322E+02 -0.15810238353E+02  0.59333844175E+02  0.15808156300E+03  0.12508932785E+03 0.  0.
         23    2    1    2    0    0 -0.74645642322E+02  0.15810238353E+02  0.14468115993E+03  0.18681806065E+03  0.90257488289E+02 0.  0.
          5    1    3    3  502    0  0.87101319455E+02  0.20144363547E+02  0.74952375658E+02  0.11673802401E+03  0.41800000000E+01 0. -1.
         -5    1    3    3    0  502 -0.12455677133E+02 -0.35954601900E+02 -0.15618531484E+02  0.41343538991E+02  0.41800000000E+01 0. -1.
        -11    1    4    4    0    0 -0.48209370978E+02  0.13857063578E+02  0.15138173182E+03  0.15947598688E+03  0.00000000000E+00 0.  1.
         11    1    4    4    0    0 -0.26436271344E+02  0.19531747751E+01 -0.67005718971E+01  0.27342073770E+02  0.00000000000E+00 0. -1.
</event>
<event>
 8    1  0.6901948E-009  0.1106796E+03  0.7561462E-02  0.1259316E+00
         -2   -1    0    0    0  501 -0.00000000000E+00  0.00000000000E+00  0.20594422053E+03  0.20594422053E+03  0.00000000000E+00 0. -1.
          2   -1    0    0  501    0  0.00000000000E+00 -0.00000000000E+00 -0.76612804643E+02  0.76612804643E+02  0.00000000000E+00 0.  1.
         25    2    1    2    0    0  0.47689395730E+02  0.24975946560E+02  0.10207078476E+03  0.17018993403E+03  0.12509233458E+03 0.  0.
         23    2    1    2    0    0 -0.47689395730E+02 -0.24975946560E+02  0.27260631127E+02  0.11236709114E+03  0.94790003644E+02 0.  0.
          5    1    3    3  502    0  0.63633112149E+02 -0.18073036232E+02  0.97425077355E+01  0.66994003145E+02  0.41800000000E+01 0. -1.
         -5    1    3    3    0  502 -0.15943716419E+02  0.43048982792E+02  0.92328277021E+02  0.10319593088E+03  0.41800000000E+01 0. -1.
        -11    1    4    4    0    0 -0.29601615982E+02 -0.61483387084E+02  0.18327627766E+02  0.70656666321E+02  0.00000000000E+00 0. -1.
         11    1    4    4    0    0 -0.18087779748E+02  0.36507440524E+02  0.89330033609E+01  0.41710424822E+02  0.00000000000E+00 0.  1.
</event>
<event>
 8    1  0.6901948E-009  0.8615544E+02  0.7561462E-02  0.1312438E+00
          2   -1    0    0  501    0  0.00000000000E+00  0.00000000000E+00  0.64519594798E+03  0.64519594798E+03  0.00000000000E+00 0. -1.
         -2   -1    0    0    0  501 -0.00000000000E+00 -0.00000000000E+00 -0.32204996165E+02  0.32204996165E+02  0.00000000000E+00 0.  1.
         25    2    1    2    0    0 -0.67384073663E+02  0.12192921309E+02  0.47908420219E+03  0.49985914448E+03  0.12509280881E+03 0.  0.
         23    2    1    2    0    0  0.67384073663E+02 -0.12192921309E+02  0.13390674963E+03  0.17754179967E+03  0.94344010521E+02 0.  0.
          5    1    3    3  502    0  0.99480895347E+01 -0.57004885897E+01 -0.19005984808E+01  0.12350899973E+02  0.41800000000E+01 0. -1.
         -5    1    3    3    0  502 -0.77332163198E+02  0.17893409898E+02  0.48098480067E+03  0.48750824451E+03  0.41800000000E+01 0. -1.
        -11    1    4    4    0    0  0.11509706996E+02  0.14652867257E+02 -0.97873902811E+01  0.21046920975E+02  0.00000000000E+00 0.  1.
         11    1    4    4    0    0  0.55874366667E+02 -0.26845788566E+02  0.14369413991E+03  0.15649487870E+03  0.00000000000E+00 0. -1.
</event>
<event>
 8    1  0.6901948E-009  0.2916179E+03  0.7561462E-02  0.1089507E+00
          2   -1    0    0  501    0  0.00000000000E+00  0.00000000000E+00  0.10554678939E+04  0.10554678939E+04  0.00000000000E+00 0. -1.
         -2   -1    0    0    0  501 -0.00000000000E+00 -0.00000000000E+00 -0.86039070351E+02  0.86039070351E+02  0.00000000000E+00 0.  1.
         25    2    1    2    0    0 -0.24391657472E+03  0.13898064105E+03  0.50991755732E+03  0.59537735546E+03  0.12508943249E+03 0.  0.
         23    2    1    2    0    0  0.24391657472E+03 -0.13898064105E+03  0.45951126625E+03  0.54612960882E+03  0.91082554904E+02 0.  0.
          5    1    3    3  502    0 -0.47466055586E+02  0.75567929335E+02  0.23610935681E+03  0.25244531913E+03  0.41800000000E+01 0.  1.
         -5    1    3    3    0  502 -0.19645051913E+03  0.63412711714E+02  0.27380820051E+03  0.34293203632E+03  0.41800000000E+01 0.  1.
        -11    1    4    4    0    0  0.16903467614E+03 -0.62038301035E+02  0.34497596606E+03  0.38913993587E+03  0.00000000000E+00 0.  1.
         11    1    4    4    0    0  0.74881898571E+02 -0.76942340014E+02  0.11453530019E+03  0.15698967294E+03  0.00000000000E+00 0. -1.
</event>
<event>
 8    1  0.6901948E-009  0.1443741E+03  0.7561462E-02  0.1207562E+00
          2   -1    0    0  501    0  0.00000000000E+00  0.00000000000E+00  0.16148229653E+03  0.16148229653E+03  0.00000000000E+00 0. -1.
         -2   -1    0    0    0  501 -0.00000000000E+00 -0.00000000000E+00 -0.13062762026E+03  0.13062762026E+03  0.00000000000E+00 0.  1.
         25    2    1    2    0    0 -0.36582023846E+02 -0.88553179181E+02  0.13274709145E+02  0.15812216170E+03  0.12508593088E+03 0.  0.
         23    2    1    2    0    0  0.36582023846E+02  0.88553179181E+02  0.17579967130E+02  0.13398775510E+03  0.91998659013E+02 0.  0.
          5    1    3    3  502    0 -0.75173489880E+02 -0.91593684346E+02  0.11900038319E+02  0.11916182235E+03  0.41800000000E+01 0. -1.
         -5    1    3    3    0  502  0.38591466034E+02  0.30405051650E+01  0.13746708268E+01  0.38960339349E+02  0.41800000000E+01 0. -1.
        -11    1    4    4    0    0 -0.13410865693E+02  0.79272637716E+02  0.20777249319E+02  0.83040330553E+02  0.00000000000E+00 0.  1.
         11    1    4    4    0    0  0.49992889539E+02  0.92805414649E+01 -0.31972821884E+01  0.50947424545E+02  0.00000000000E+00 0. -1.
</event>
<event>
 8    1  0.6901948E-009  0.1332380E+03  0.7561462E-02  0.1222729E+00
         -1   -1    0    0    0  501 -0.00000000000E+00  0.00000000000E+00  0.38914713398E+02  0.38914713398E+02  0.00000000000E+00 0.  1.
          1   -1    0    0  501    0  0.00000000000E+00 -0.00000000000E+00 -0.64602138351E+03  0.64602138351E+03  0.00000000000E+00 0. -1.
         25    2    1    2    0    0  0.94025162005E+02 -0.31193130260E+02 -0.19805001773E+03  0.25433090526E+03  0.12508659954E+03 0.  0.
         23    2    1    2    0    0 -0.94025162005E+02  0.31193130260E+02 -0.40905665239E+03  0.43060519165E+03  0.90993097252E+02 0.  0.
          5    1    3    3  502    0  0.26600209136E+02 -0.74115360348E+02 -0.86644422354E+02  0.11715539292E+03  0.41800000000E+01 0.  1.
         -5    1    3    3    0  502  0.67424952870E+02  0.42922230088E+02 -0.11140559537E+03  0.13717551234E+03  0.41800000000E+01 0.  1.
        -11    1    4    4    0    0 -0.40121562165E+02 -0.80337397421E+01 -0.46368890546E+02  0.61841367508E+02  0.00000000000E+00 0. -1.
         11    1    4    4    0    0 -0.53903599841E+02  0.39226870002E+02 -0.36268776184E+03  0.36876382414E+03  0.00000000000E+00 0.  1.
</event>
<event>
 8    1  0.6901948E-009  0.2219391E+03  0.7561462E-02  0.1132446E+00
          2   -1    0    0  501    0  0.00000000000E+00  0.00000000000E+00  0.19533583246E+04  0.19533583246E+04  0.00000000000E+00 0. -1.
         -2   -1    0    0    0  501 -0.00000000000E+00 -0.00000000000E+00 -0.26379781113E+02  0.26379781113E+02  0.00000000000E+00 0.  1.
         25    2    1    2    0    0 -0.16468200139E+03  0.11101735800E+03  0.96555681494E+03  0.99367700991E+03  0.12509605018E+03 0.  0.
         23    2    1    2    0    0  0.16468200139E+03 -0.11101735800E+03  0.96142172855E+03  0.98606109581E+03  0.92410655175E+02 0.  0.
          5    1    3    3  502    0 -0.18418336134E+03  0.91045375941E+02  0.87582204580E+03  0.89960796983E+03  0.41800000000E+01 0.  1.
         -5    1    3    3    0  502  0.19501359948E+02  0.19971982064E+02  0.89734769149E+02  0.94069040081E+02  0.41800000000E+01 0.  1.
        -11    1    4    4    0    0  0.62602588820E+02 -0.83626363640E+02  0.61723970137E+03  0.62601701396E+03  0.00000000000E+00 0. -1.
         11    1    4    4    0    0  0.10207941257E+03 -0.27390994365E+02  0.34418202718E+03  0.36004408185E+03  0.00000000000E+00 0.  1.
</event>
<event>
 7    1  0.6901948E-009  0.2178417E+03  0.7561462E-02  0.1135502E+00
         -2   -1    0    0    0  501 -0.00000000000E+00  0.00000000000E+00  0.14126574305E+03  0.14126574305E+03  0.00000000000E+00 0.  1.
          2   -1    0    0  501    0  0.00000000000E+00 -0.00000000000E+00 -0.42686483912E+03  0.42686483912E+03  0.00000000000E+00 0. -1.
         25    2    1    2    0    0  0.11363015628E+03  0.16769552114E+03 -0.78557277288E+02  0.25070680158E+03  0.12509618028E+03 0.  0.
          5    1    3    3  502    0  0.83764591023E+02  0.90615666096E+02  0.16607884220E+02  0.12458330494E+03  0.41800000000E+01 0.  1.
         -5    1    3    3    0  502  0.29865565252E+02  0.77079855042E+02 -0.95165161508E+02  0.12612349664E+03  0.41800000000E+01 0.  1.
        -11    1    1    2    0    0 -0.12389175404E+03 -0.95250901539E+02 -0.18246139061E+03  0.24023750753E+03  0.00000000000E+00 0. -1.
         11    1    1    2    0    0  0.10261597766E+02 -0.72444619599E+02 -0.24580428173E+02  0.77186273046E+02  0.00000000000E+00 0.  1.
</event>
<event>
 8    1  0.6901948E-009  0.1103876E+03  0.7561462E-02  0.1259854E+00
         -1   -1    0    0    0  501 -0.00000000000E+00  0.00000000000E+00  0.69281903099E+02  0.69281903099E+02  0.00000000000E+00 0.  1.
          1   -1    0    0  501    0  0.00000000000E+00 -0.00000000000E+00 -0.31519109602E+03  0.31519109602E+03  0.00000000000E+00 0. -1.
         25    2    1    2    0    0  0.51092194632E+02 -0.28191355173E+02 -0.23700065343E+03  0.27426756082E+03  0.12509284684E+03 0.  0.
         23    2    1    2    0    0 -0.51092194632E+02  0.28191355173E+02 -0.89085394908E+01  0.11020543830E+03  0.93062944810E+02 0.  0.
          5    1    3    3  502    0 -0.20592449446E+02  0.23354146549E+02 -0.13807964373E+03  0.14160835268E+03  0.41800000000E+01 0. -1.
         -5    1    3    3    0  502  0.71684644078E+02 -0.51545501722E+02 -0.98921009700E+02  0.13265920814E+03  0.41800000000E+01 0. -1.
        -11    1    4    4    0    0  0.22911845449E+02  0.54926232735E+01  0.16467209265E+02  0.28745270103E+02  0.00000000000E+00 0.  1.
         11    1    4    4    0    0 -0.74004040081E+02  0.22698731900E+02 -0.25375748756E+02  0.81460168199E+02  0.00000000000E+00 0. -1.
</event>
<event>
 8    1  0.6901948E-009  0.9194192E+02  0.7561462E-02  0.1298216E+00
         -1   -1    0    0    0  501 -0.00000000000E+00  0.00000000000E+00  0.53668205150E+02  0.53668205150E+02  0.00000000000E+00 0.  1.
          1   -1    0    0  501    0  0.00000000000E+00 -0.00000000000E+00 -0.24038314695E+03  0.24038314695E+03  0.00000000000E+00 0. -1.
         25    2    1    2    0    0  0.11128964672E+02  0.96717626211E+00 -0.64009320691E+02  0.14095533062E+03  0.12508566189E+03 0.  0.
         23    2    1    2    0    0 -0.11128964672E+02 -0.96717626211E+00 -0.12270562111E+03  0.15309602147E+03  0.90867667823E+02 0.  0.
          5    1    3    3  502    0 -0.37681598876E+02  0.18935882924E+02 -0.76361324969E+02  0.87332668039E+02  0.41800000000E+01 0.  1.
         -5    1    3    3    0  502  0.48810563547E+02 -0.17968706662E+02  0.12352004278E+02  0.53622662584E+02  0.41800000000E+01 0.  1.
        -11    1    4    4    0    0  0.31428879393E+02  0.24392413732E+02 -0.71659286572E+02  0.81962294133E+02  0.00000000000E+00 0.  1.
         11    1    4    4    0    0 -0.42557844064E+02 -0.25359589994E+02 -0.51046334534E+02  0.71133727341E+02  0.00000000000E+00 0. -1.
</event>
<event>
 8    1  0.6901948E-009  0.1732399E+03  0.7561462E-02  0.1174511E+00
          1   -1    0    0  501    0  0.00000000000E+00  0.00000000000E+00  0.12703712198E+04  0.12703712198E+04  0.00000000000E+00 0. -1.
         -1   -1    0    0    0  501 -0.00000000000E+00 -0.00000000000E+00 -0.25841718557E+02  0.25841718557E+02  0.00000000000E+00 0.  1.
         25    2    1    2    0    0 -0.13611307364E+03 -0.30242026304E+02  0.51974048371E+03  0.55246594939E+03  0.12508839218E+03 0.  0.
         23    2    1    2    0    0  0.13611307364E+03  0.30242026304E+02  0.72478901751E+03  0.74374698895E+03  0.91646684006E+02 0.  0.
          5    1    3    3  502    0 -0.95201509309E+02 -0.77541513677E+02  0.37859765594E+03  0.39803224894E+03  0.41800000000E+01 0.  1.
         -5    1    3    3    0  502 -0.40911564329E+02  0.47299487373E+02  0.14114282777E+03  0.15443370044E+03  0.41800000000E+01 0.  1.
        -11    1    4    4    0    0  0.77674204701E+02 -0.23914506369E+02  0.26766757825E+03  0.27973401319E+03  0.00000000000E+00 0.  1.
         11    1    4    4    0    0  0.58438868937E+02  0.54156532673E+02  0.45712143926E+03  0.46401297575E+03  0.00000000000E+00 0. -1.
</event>
<event>
 8    1  0.6901948E-009  0.1912621E+03  0.7561462E-02  0.1157328E+00
         -1   -1    0    0    0  501 -0.00000000000E+00  0.00000000000E+00  0.75557776546E+02  0.75557776546E+02  0.00000000000E+00 0.  1.
          1   -1    0    0  501    0  0.00000000000E+00 -0.00000000000E+00 -0.65021714743E+03  0.65021714743E+03  0.00000000000E+00 0. -1.
         25    2    1    2    0    0 -0.13660886515E+03 -0.96520514661E+02 -0.45729490962E+03  0.50273668516E+03  0.12508936187E+03 0.  0.
         23    2    1    2    0    0  0.13660886515E+03  0.96520514661E+02 -0.11736446126E+03  0.22303823881E+03  0.89406081549E+02 0.  0.
          5    1    3    3  502    0 -0.33406310699E+02  0.18662083741E+02 -0.31607360536E+02  0.49807154146E+02  0.41800000000E+01 0.  1.
         -5    1    3    3    0  502 -0.10320255445E+03 -0.11518259840E+03 -0.42568754909E+03  0.45292953102E+03  0.41800000000E+01 0.  1.
        -11    1    4    4    0    0  0.32743524503E+02 -0.15783732218E+02 -0.17390180027E+02  0.40294949572E+02  0.00000000000E+00 0. -1.
         11    1    4    4    0    0  0.10386534065E+03  0.11230424688E+03 -0.99974281235E+02  0.18274328924E+03  0.00000000000E+00 0.  1.
</event>
<event>
 8    1  0.6901948E-009  0.1324843E+03  0.7561462E-02  0.1223815E+00
         -2   -1    0    0    0  501 -0.00000000000E+00  0.00000000000E+00  0.20323980009E+03  0.20323980009E+03  0.00000000000E+00 0.  1.
          2   -1    0    0  501    0  0.00000000000E+00 -0.00000000000E+00 -0.12862889870E+03  0.12862889870E+03  0.00000000000E+00 0. -1.
         25    2    1    2    0    0 -0.61920157828E+02  0.93566270132E+02  0.84327355149E+02  0.18800932693E+03  0.12509057252E+03 0.  0.
         23    2    1    2    0    0  0.61920157828E+02 -0.93566270132E+02 -0.97164537660E+01  0.14385937186E+03  0.89511767640E+02 0.  0.
          5    1    3    3  502    0 -0.63974960284E+02  0.58198038719E+02 -0.99992980577E+01  0.87162294691E+02  0.41800000000E+01 0.  1.
         -5    1    3    3    0  502  0.20548024560E+01  0.35368231414E+02  0.94326653207E+02  0.10084703224E+03  0.41800000000E+01 0.  1.
        -11    1    4    4    0    0 -0.21757788374E+02 -0.84295385503E+01  0.40892444981E+01  0.23689246414E+02  0.00000000000E+00 0.  1.
         11    1    4    4    0    0  0.83677946202E+02 -0.85136731582E+02 -0.13805698264E+02  0.12017012545E+03  0.00000000000E+00 0. -1.
</event>
<event>
 8    1  0.6901948E-009  0.9051547E+02  0.7561462E-02  0.1301608E+00
          1   -1    0    0  501    0  0.00000000000E+00  0.00000000000E+00  0.80093075566E+03  0.80093075566E+03  0.00000000000E+00 0. -1.
         -1   -1    0    0    0  501 -0.00000000000E+00 -0.00000000000E+00 -0.15919356586E+02  0.15919356586E+02  0.00000000000E+00 0.  1.
         25    2    1    2    0    0 -0.28389125082E+02  0.68552099019E+01  0.49512332927E+03  0.51151521075E+03  0.12509102012E+03 0.  0.
         23    2    1    2    0    0  0.28389125082E+02 -0.68552099019E+01  0.28988806981E+03  0.30533490150E+03  0.91331115902E+02 0.  0.
          5    1    3    3  502    0 -0.58768844239E+02 -0.43441858105E+01  0.45915520663E+03  0.46294019612E+03  0.41800000000E+01 0. -1.
         -5    1    3    3    0  502  0.30379719157E+02  0.11199395712E+02  0.35968122638E+02  0.48575014632E+02  0.41800000000E+01 0. -1.
        -11    1    4    4    0    0 -0.29481099454E+02 -0.10566713933E+02  0.16078068441E+03  0.16380237833E+03  0.00000000000E+00 0.  1.
         11    1    4    4    0    0  0.57870224535E+02  0.37115040312E+01  0.12910738540E+03  0.14153252317E+03  0.00000000000E+00 0. -1.
</event>
<event>
 8    1  0.6901948E-009  0.1352485E+03  0.7561462E-02  0.1219869E+00
          2   -1    0    0  501    0  0.00000000000E+00  0.00000000000E+00  0.45595801768E+03  0.45595801768E+03  0.00000000000E+00 0. -1.
         -2   -1    0    0    0  501 -0.00000000000E+00 -0.00000000000E+00 -0.46170628431E+02  0.46170628431E+02  0.00000000000E+00 0.  1.
         25    2    1    2    0    0  0.80819401501E+02  0.42870668842E+02  0.25185713835E+03  0.29571808005E+03  0.12508994694E+03 0.  0.
         23    2    1    2    0    0 -0.80819401501E+02 -0.42870668842E+02  0.15793025090E+03  0.20641056606E+03  0.96403774436E+02 0.  0.
          5    1    3    3  502    0  0.75671958208E+02 -0.25514210616E+02  0.17633366810E+03  0.19361883975E+03  0.41800000000E+01 0. -1.
         -5    1    3    3    0  502  0.51474432924E+01  0.68384879458E+02  0.75523470254E+02  0.10209924030E+03  0.41800000000E+01 0. -1.
        -11    1    4    4    0    0 -0.39405009209E+02  0.21797354915E+02  0.21609978257E+02  0.49948679585E+02  0.00000000000E+00 0.  1.
         11    1    4    4    0    0 -0.41414392292E+02 -0.64668023757E+02  0.13632027264E+03  0.15646188647E+03  0.00000000000E+00 0. -1.
</event>
<event>
 8    1  0.6901948E-009  0.1226126E+03  0.7561462E-02  0.1238848E+00
         -1   -1    0    0    0  501 -0.00000000000E+00  0.00000000000E+00  0.16645406350E+02  0.16645406350E+02  0.00000000000E+00 0. -1.
          1   -1    0    0  501    0  0.00000000000E+00 -0.00000000000E+00 -0.14248994645E+04  0.14248994645E+04  0.00000000000E+00 0.  1.
         25    2    1    2    0    0 -0.14943065461E+02  0.10426020154E+03 -0.88232732354E+03  0.89735282745E+03  0.12508839368E+03 0.  0.
         23    2    1    2    0    0  0.14943065461E+02 -0.10426020154E+03 -0.52592673456E+03  0.54419204335E+03  0.91937832746E+02 0.  0.
          5    1    3    3  502    0 -0.10334539754E+02  0.80667963806E+02 -0.86130617706E+03  0.86514734360E+03  0.41800000000E+01 0. -1.
         -5    1    3    3    0  502 -0.46085257079E+01  0.23592237738E+02 -0.21021146486E+02  0.32205483854E+02  0.41800000000E+01 0. -1.
        -11    1    4    4    0    0 -0.17785049203E+02 -0.10515788065E+03 -0.38377530051E+03  0.39831892890E+03  0.00000000000E+00 0. -1.
         11    1    4    4    0    0  0.32728114665E+02  0.89767910614E+00 -0.14215143405E+03  0.14587311445E+03  0.00000000000E+00 0.  1.
</event>
<event>
 8    1  0.6901948E-009  0.1035422E+03  0.7561462E-02  0.1273019E+00
         -2   -1    0    0    0  501 -0.00000000000E+00  0.00000000000E+00  0.45327971618E+03  0.45327971618E+03  0.00000000000E+00 0.  1.
          2   -1    0    0  501    0  0.00000000000E+00 -0.00000000000E+00 -0.47415051208E+02  0.47415051208E+02  0.00000000000E+00 0. -1.
         25    2    1    2    0    0  0.30926931480E+01  0.73405548519E+02  0.31960126629E+03  0.35098728149E+03  0.12509661487E+03 0.  0.
         23    2    1    2    0    0 -0.30926931480E+01 -0.73405548519E+02  0.86263398683E+02  0.14970748590E+03  0.97841801275E+02 0.  0.
          5    1    3    3  502    0  0.22196323618E+02  0.48288309828E+02  0.31421172864E+03  0.31870193044E+03  0.41800000000E+01 0.  1.
         -5    1    3    3    0  502 -0.19103630470E+02  0.25117238692E+02  0.53895376466E+01  0.32285351054E+02  0.41800000000E+01 0.  1.
        -11    1    4    4    0    0  0.22997855667E+02  0.16514969576E+02  0.25383587883E+02  0.38025940084E+02  0.00000000000E+00 0.  1.
         11    1    4    4    0    0 -0.26090548815E+02 -0.89920518096E+02  0.60879810799E+02  0.11168154581E+03  0.00000000000E+00 0. -1.
</event>
<event>
 8    1  0.6901948E-009  0.9804213E+02  0.7561462E-02  0.1284468E+00
         -1   -1    0    0    0  501 -0.00000000000E+00  0.00000000000E+00  0.12587017877E+03  0.12587017877E+03  0.00000000000E+00 0.  1.
          1   -1    0    0  501    0  0.00000000000E+00 -0.00000000000E+00 -0.14828060534E+03  0.14828060534E+03  0.00000000000E+00 0. -1.
         25    2    1    2    0    0  0.55529588615E+02  0.50562397438E+02 -0.74786817815E+02  0.16395455097E+03  0.12509170803E+03 0.  0.
         23    2    1    2    0    0 -0.55529588615E+02 -0.50562397438E+02  0.52376391248E+02  0.11019623314E+03  0.61317470526E+02 0.  0.
          5    1    3    3  502    0  0.80315594100E+02  0.45317034892E+02 -0.83045174144E+01  0.92685844208E+02  0.41800000000E+01 0.  1.
         -5    1    3    3    0  502 -0.24786005486E+02  0.52453625456E+01 -0.66482300401E+02  0.71268706757E+02  0.41800000000E+01 0.  1.
        -11    1    4    4    0    0 -0.15089192143E+02 -0.25228431250E+01 -0.12611501803E+02  0.19826710133E+02  0.00000000000E+00 0. -1.
         11    1    4    4    0    0 -0.40440396472E+02 -0.48039554313E+02  0.64987893051E+02  0.90369523007E+02  0.00000000000E+00 0.  1.
</event>
<event>
 8    1  0.6901948E-009  0.1294344E+03  0.7561462E-02  0.1228297E+00
          1   -1    0    0  501    0  0.00000000000E+00  0.00000000000E+00  0.74715554103E+02  0.74715554103E+02  0.00000000000E+00 0. -1.
         -1   -1    0    0    0  501 -0.00000000000E+00 -0.00000000000E+00 -0.25346352029E+03  0.25346352029E+03  0.00000000000E+00 0.  1.
         25    2    1    2    0    0  0.76504119061E+02  0.33148314900E+02 -0.84428290692E+02  0.17242115558E+03  0.12509687289E+03 0.  0.
         23    2    1    2    0    0 -0.76504119061E+02 -0.33148314900E+02 -0.94319675490E+02  0.15575791881E+03  0.91720428877E+02 0.  0.
          5    1    3    3  502    0  0.51564183001E+02 -0.37027997563E+02 -0.55546067562E+01  0.63861284267E+02  0.41800000000E+01 0. -1.
         -5    1    3    3    0  502  0.24939936060E+02  0.70176312463E+02 -0.78873683936E+02  0.10855987131E+03  0.41800000000E+01 0. -1.
        -11    1    4    4    0    0 -0.85762206915E+02  0.49343635176E+00 -0.82270287942E+02  0.11884359424E+03  0.00000000000E+00 0.  1.
         11    1    4    4    0    0  0.92580878537E+01 -0.33641751252E+02 -0.12049387548E+02  0.36914324567E+02  0.00000000000E+00 0. -1.
</event>
<event>
 8    1  0.6901948E-009  0.3050204E+03  0.7561462E-02  0.1082758E+00
         -2   -1    0    0    0  501 -0.00000000000E+00  0.00000000000E+00  0.18767706095E+03  0.18767706095E+03  0.00000000000E+00 0.  1.
          2   -1    0    0  501    0  0.00000000000E+00 -0.00000000000E+00 -0.57064136347E+03  0.57064136347E+03  0.00000000000E+00 0. -1.
         25    2    1    2    0    0 -0.28386620713E+03 -0.76767454001E+02 -0.82551011035E+02  0.33005024124E+03  0.12508088092E+03 0.  0.
         23    2    1    2    0    0  0.28386620713E+03  0.76767454001E+02 -0.30041329149E+03  0.42826818319E+03  0.81806023498E+02 0.  0.
          5    1    3    3  502    0 -0.10490200879E+03 -0.77133594126E+02 -0.76201337595E+02  0.15092428248E+03  0.41800000000E+01 0. -1.
         -5    1    3    3    0  502 -0.17896419835E+03  0.36614012485E+00 -0.63496734402E+01  0.17912595876E+03  0.41800000000E+01 0. -1.
        -11    1    4    4    0    0  0.20331418485E+03  0.24631639798E+02 -0.16884594823E+03  0.26542857735E+03  0.00000000000E+00 0.  1.
         11    1    4    4    0    0  0.80552022282E+02  0.52135814203E+02 -0.13156734326E+03  0.16283960584E+03  0.00000000000E+00 0. -1.
</event>
<event>
 8    1  0.6901948E-009  0.7437756E+02  0.7561462E-02  0.1345809E+00
         -2   -1    0    0    0  501 -0.00000000000E+00  0.00000000000E+00  0.39734409740E+02  0.39734409740E+02  0.00000000000E+00 0.  1.
          2   -1    0    0  501    0  0.00000000000E+00 -0.00000000000E+00 -0.38770807083E+03  0.38770807083E+03  0.00000000000E+00 0. -1.
         25    2    1    2    0    0  0.21273860676E+02 -0.33925289005E+02 -0.11654585218E+03  0.17559521099E+03  0.12508892869E+03 0.  0.
         23    2    1    2    0    0 -0.21273860676E+02  0.33925289005E+02 -0.23142780891E+03  0.25184726957E+03  0.90910472849E+02 0.  0.
          5    1    3    3  502    0 -0.72658750441E+01 -0.21867103963E+02 -0.13650811179E+03  0.13850234713E+03  0.41800000000E+01 0. -1.
         -5    1    3    3    0  502  0.28539735720E+02 -0.12058185041E+02  0.19962259605E+02  0.37092863869E+02  0.41800000000E+01 0. -1.
        -11    1    4    4    0    0 -0.50869372684E+02  0.25371166731E+01 -0.16463819921E+03  0.17233649259E+03  0.00000000000E+00 0. -1.
         11    1    4    4    0    0  0.29595512008E+02  0.31388172331E+02 -0.66789609702E+02  0.79510776989E+02  0.00000000000E+00 0.  1.
</event>
<event>
 8    1  0.6901948E-009  0.3326808E+03  0.7561462E-02  0.1069957E+00
         -2   -1    0    0    0  501 -0.00000000000E+00  0.00000000000E+00  0.88013946652E+02  0.88013946652E+02  0.00000000000E+00 0.  1.
          2   -1    0    0  501    0  0.00000000000E+00 -0.00000000000E+00 -0.12999455460E+04  0.12999455460E+04  0.00000000000E+00 0. -1.
         25    2    1    2    0    0  0.11876683509E+03  0.29683994045E+03 -0.60037389052E+03  0.69160017119E+03  0.12506988846E+03 0.  0.
         23    2    1    2    0    0 -0.11876683509E+03 -0.29683994045E+03 -0.61155770885E+03  0.69635932149E+03  0.93241417848E+02 0.  0.
          5    1    3    3  502    0  0.13312948932E+03  0.25168157857E+03 -0.56367828329E+03  0.63152019554E+03  0.41800000000E+01 0. -1.
         -5    1    3    3    0  502 -0.14362654226E+02  0.45158361880E+02 -0.36695607236E+02  0.60079975654E+02  0.41800000000E+01 0. -1.
        -11    1    4    4    0    0 -0.34685235982E+02 -0.20739847996E+03 -0.38630577822E+03  0.43982877278E+03  0.00000000000E+00 0.  1.
         11    1    4    4    0    0 -0.84081599111E+02 -0.89441460494E+02 -0.22525193063E+03  0.25653054870E+03  0.00000000000E+00 0. -1.
</event>
<event>
 8    1  0.6901948E-009  0.7162965E+02  0.7561462E-02  0.1354637E+00
         -2   -1    0    0    0  501 -0.00000000000E+00  0.00000000000E+00  0.29087785161E+02  0.29087785161E+02  0.00000000000E+00 0. -1.
          2   -1    0    0  501    0  0.00000000000E+00 -0.00000000000E+00 -0.54207937852E+03  0.54207937852E+03  0.00000000000E+00 0.  1.
         25    2    1    2    0    0  0.31925228522E+02 -0.39223613345E+02 -0.38132885779E+03  0.40449740661E+03  0.12509493241E+03 0.  0.
         23    2    1    2    0    0 -0.31925228522E+02  0.39223613345E+02 -0.13166273557E+03  0.16666975707E+03  0.88803265275E+02 0.  0.
          5    1    3    3  502    0  0.24159873477E+02 -0.10677927629E+01 -0.35815080252E+03  0.35899068151E+03  0.41800000000E+01 0. -1.
         -5    1    3    3    0  502  0.77653550455E+01 -0.38155820582E+02 -0.23178055270E+02  0.45506725100E+02  0.41800000000E+01 0. -1.
        -11    1    4    4    0    0 -0.46310061841E+02  0.44508078702E+02 -0.13628546082E+03  0.15066292752E+03  0.00000000000E+00 0.  1.
         11    1    4    4    0    0  0.14384833319E+02 -0.52844653577E+01  0.46227252435E+01  0.16006829555E+02  0.00000000000E+00 0. -1.
</event>
<event>
 8    1  0.6901948E-009  0.2731443E+03  0.7561462E-02  0.1099493E+00
         -3   -1    0    0    0  501 -0.00000000000E+00  0.00000000000E+00  0.24749514581E+03  0.24749514581E+03  0.00000000000E+00 0.  1.
          3   -1    0    0  501    0  0.00000000000E+00 -0.00000000000E+00 -0.51708935105E+03  0.51708935105E+03  0.00000000000E+00 0. -1.
         25    2    1    2    0    0 -0.16337668880E+03 -0.20531920273E+03  0.95326900627E+02  0.30591443416E+03  0.12509398703E+03 0.  0.
         23    2    1    2    0    0  0.16337668880E+03  0.20531920273E+03 -0.36492110587E+03  0.45867006270E+03  0.91448867986E+02 0.  0.
          5    1    3    3  502    0 -0.86061718039E+02 -0.62603480130E+02 -0.17857156251E+02  0.10799150645E+03  0.41800000000E+01 0. -1.
         -5    1    3    3    0  502 -0.77314970761E+02 -0.14271572260E+03  0.11318405688E+03  0.19792292771E+03  0.41800000000E+01 0. -1.
        -11    1    4    4    0    0  0.10396498863E+02  0.77134637240E+02 -0.90900312522E+02  0.11966915337E+03  0.00000000000E+00 0.  1.
         11    1    4    4    0    0  0.15298018994E+03  0.12818456549E+03 -0.27402079334E+03  0.33900090933E+03  0.00000000000E+00 0. -1.
</event>
<event>
 8    1  0.6901948E-009  0.8742735E+02  0.7561462E-02  0.1309204E+00
          1   -1    0    0  501    0  0.00000000000E+00  0.00000000000E+00  0.22721391874E+03  0.22721391874E+03  0.00000000000E+00 0. -1.
         -1   -1    0    0    0  501 -0.00000000000E+00 -0.00000000000E+00 -0.62518423609E+02  0.62518423609E+02  0.00000000000E+00 0.  1.
         25    2    1    2    0    0 -0.14190418032E+02 -0.21286664381E+02  0.52519417906E+02  0.13805588077E+03  0.12508655768E+03 0.  0.
         23    2    1    2    0    0  0.14190418032E+02  0.21286664381E+02  0.11217607722E+03  0.15167646158E+03  0.98832113467E+02 0.  0.
          5    1    3    3  502    0  0.48363481348E+02 -0.19214506802E+02 -0.56436263513E+01  0.52512346340E+02  0.41800000000E+01 0.  1.
         -5    1    3    3    0  502 -0.62553899381E+02 -0.20721575790E+01  0.58163044258E+02  0.85543534426E+02  0.41800000000E+01 0.  1.
        -11    1    4    4    0    0  0.46548320987E+01 -0.18463367829E+02  0.10902736936E+03  0.11067759792E+03  0.00000000000E+00 0. -1.
         11    1    4    4    0    0  0.95355859337E+01  0.39750032210E+02  0.31487078632E+01  0.40998863655E+02  0.00000000000E+00 0.  1.
</event>
<event>
 8    1  0.6901948E-009  0.1082984E+03  0.7561462E-02  0.1263754E+00
         -1   -1    0    0    0  501 -0.00000000000E+00  0.00000000000E+00  0.28833273629E+02  0.28833273629E+02  0.00000000000E+00 0.  1.
          1   -1    0    0  501    0  0.00000000000E+00 -0.00000000000E+00 -0.61019387465E+03  0.61019387465E+03  0.00000000000E+00 0. -1.
         25    2    1    2    0    0 -0.25714899363E+02  0.39677576292E+02 -0.44406097678E+03  0.46376042987E+03  0.12509204255E+03 0.  0.
         23    2    1    2    0    0  0.25714899363E+02 -0.39677576292E+02 -0.13729962424E+03  0.17526671841E+03  0.98141070169E+02 0.  0.
          5    1    3    3  502    0  0.34356173496E+02  0.57976644807E+02 -0.28041519240E+03  0.28842987108E+03  0.41800000000E+01 0. -1.
         -5    1    3    3    0  502 -0.60071072859E+02 -0.18299068514E+02 -0.16364578437E+03  0.17533055879E+03  0.41800000000E+01 0. -1.
        -11    1    4    4    0    0  0.29983848408E+02 -0.59090988385E+02 -0.43224741672E+02  0.79114817615E+02  0.00000000000E+00 0.  1.
         11    1    4    4    0    0 -0.42689490443E+01  0.19413412093E+02 -0.94074882571E+02  0.96151900792E+02  0.00000000000E+00 0. -1.
</event>
<event>
 8    1  0.6901948E-009  0.1240120E+03  0.7561462E-02  0.1236622E+00
         -1   -1    0    0    0  501 -0.00000000000E+00  0.00000000000E+00  0.34330126631E+02  0.34330126631E+02  0.00000000000E+00 0.  1.
          1   -1    0    0  501    0  0.00000000000E+00 -0.00000000000E+00 -0.58771819491E+03  0.58771819491E+03  0.00000000000E+00 0. -1.
         25    2    1    2    0    0  0.74044126990E+02  0.11411543611E+02 -0.42289080727E+03  0.44732056195E+03  0.12508514780E+03 0.  0.
         23    2    1    2    0    0 -0.74044126990E+02 -0.11411543611E+02 -0.13049726101E+03  0.17472775960E+03  0.88811591429E+02 0.  0.
          5    1    3    3  502    0  0.10918510681E+03  0.46899785177E+01 -0.33212644759E+03  0.34966960554E+03  0.41800000000E+01 0. -1.
         -5    1    3    3    0  502 -0.35140979820E+02  0.67215650929E+01 -0.90764359676E+02  0.97650956408E+02  0.41800000000E+01 0. -1.
        -11    1    4    4    0    0 -0.20654185261E+02  0.29052166102E+02 -0.10268959913E+02  0.37095488428E+02  0.00000000000E+00 0.  1.
         11    1    4    4    0    0 -0.53389941728E+02 -0.40463709712E+02 -0.12022830110E+03  0.13763227117E+03  0.00000000000E+00 0. -1.
</event>
<event>
 8    1  0.6901948E-009  0.1365139E+03  0.7561462E-02  0.1218098E+00
         -2   -1    0    0    0  501 -0.00000000000E+00  0.00000000000E+00  0.94759496906E+02  0.94759496906E+02  0.00000000000E+00 0.  1.
          2   -1    0    0  501    0  0.00000000000E+00 -0.00000000000E+00 -0.31761476668E+03  0.31761476668E+03  0.00000000000E+00 0. -1.
         25    2    1    2    0    0 -0.81506639466E+02  0.79629852893E+02 -0.31138353474E+02  0.17205037431E+03  0.12508992163E+03 0.  0.
         23    2    1    2    0    0  0.81506639466E+02 -0.79629852893E+02 -0.19171691630E+03  0.24032388928E+03  0.89531837982E+02 0.  0.
          5    1    3    3  502    0  0.12356203491E+02 -0.73991623468E+01 -0.40946188441E+02  0.43606033023E+02  0.41800000000E+01 0.  1.
         -5    1    3    3    0  502 -0.93862842957E+02  0.87029015240E+02  0.98078349668E+01  0.12844434129E+03  0.41800000000E+01 0.  1.
        -11    1    4    4    0    0  0.13136004868E+02 -0.56159007130E+02 -0.34301480649E+02  0.67104249347E+02  0.00000000000E+00 0.  1.
         11    1    4    4    0    0  0.68370634598E+02 -0.23470845764E+02 -0.15741543565E+03  0.17321963993E+03  0.00000000000E+00 0. -1.
</event>
<event>
 7    1  0.6901948E-009  0.6627972E+02  0.7561462E-02  0.1373221E+00
          1   -1    0    0  501    0  0.00000000000E+00  0.00000000000E+00  0.95536024361E+02  0.95536024361E+02  0.00000000000E+00 0.  1.
         -1   -1    0    0    0  501 -0.00000000000E+00 -0.00000000000E+00 -0.17341558615E+03  0.17341558615E+03  0.00000000000E+00 0. -1.
         23    2    1    2    0    0 -0.50691727948E+02 -0.17717340654E+02 -0.97055762352E+02  0.13141868923E+03  0.70480461339E+02 0.  0.
          5    1    1    2  502    0  0.35546766801E+02  0.21862412473E+02 -0.50696233365E+02  0.65796034733E+02  0.41800000000E+01 0. -1.
         -5    1    1    2    0  502  0.15144961147E+02 -0.41450718182E+01  0.69872433929E+02  0.71736886549E+02  0.41800000000E+01 0. -1.
        -11    1    3    3    0    0  0.60877278450E+01 -0.16489458605E+02 -0.62532923598E+02  0.64956363884E+02  0.00000000000E+00 0. -1.
         11    1    3    3    0    0 -0.56779455793E+02 -0.12278820491E+01 -0.34522838754E+02  0.66462325344E+02  0.00000000000E+00 0.  1.
</event>
<event>
 8    1  0.6901948E-009  0.7262398E+02  0.7561462E-02  0.1351391E+00
         -2   -1    0    0    0  501 -0.00000000000E+00  0.00000000000E+00  0.22124569453E+03  0.22124569453E+03  0.00000000000E+00 0. -1.
          2   -1    0    0  501    0  0.00000000000E+00 -0.00000000000E+00 -0.74957343411E+02  0.74957343411E+02  0.00000000000E+00 0.  1.
         25    2    1    2    0    0 -0.39069651924E+02  0.20981178356E+02  0.25150205735E+02  0.13507582369E+03  0.12508516199E+03 0.  0.
         23    2    1    2    0    0  0.39069651924E+02 -0.20981178356E+02  0.12113814539E+03  0.16112721426E+03  0.96544711712E+02 0.  0.
          5    1    3    3  502    0 -0.43490473273E+02  0.30635514538E+02  0.70440391848E+02  0.88370114973E+02  0.41800000000E+01 0.  1.
         -5    1    3    3    0  502  0.44208213486E+01 -0.96543361816E+01 -0.45290186113E+02  0.46705708716E+02  0.41800000000E+01 0.  1.
        -11    1    4    4    0    0  0.68029450894E+01  0.24096992097E+02  0.97841768557E+02  0.10099483534E+03  0.00000000000E+00 0. -1.
         11    1    4    4    0    0  0.32266706835E+02 -0.45078170453E+02  0.23296376831E+02  0.60132378922E+02  0.00000000000E+00 0.  1.
</event>
<event>
 8    1  0.6901948E-009  0.1146910E+03  0.7561462E-02  0.1252121E+00
         -1   -1    0    0    0  501 -0.00000000000E+00  0.00000000000E+00  0.41821774244E+02  0.41821774244E+02  0.00000000000E+00 0.  1.
          1   -1    0    0  501    0  0.00000000000E+00 -0.00000000000E+00 -0.41155372357E+03  0.41155372357E+03  0.00000000000E+00 0. -1.
         25    2    1    2    0    0  0.30859711461E+02  0.66081240065E+02 -0.25603811374E+03  0.29414550882E+03  0.12508801938E+03 0.  0.
         23    2    1    2    0    0 -0.30859711461E+02 -0.66081240065E+02 -0.11369383559E+03  0.15922998899E+03  0.84313990917E+02 0.  0.
          5    1    3    3  502    0  0.76039236574E+02  0.32384794185E+02 -0.18990859094E+03  0.20715570401E+03  0.41800000000E+01 0.  1.
         -5    1    3    3    0  502 -0.45179525113E+02  0.33696445880E+02 -0.66129522800E+02  0.86989804806E+02  0.41800000000E+01 0.  1.
        -11    1    4    4    0    0 -0.15974153450E+02  0.55799918277E+01 -0.74117102853E+02  0.76024041083E+02  0.00000000000E+00 0. -1.
         11    1    4    4    0    0 -0.14885558011E+02 -0.71661231893E+02 -0.39576732733E+02  0.83205947910E+02  0.00000000000E+00 0.  1.
</event>
<event>
 8    1  0.6901948E-009  0.1563687E+03  0.7561462E-02  0.1192858E+00
          1   -1    0    0  501    0  0.00000000000E+00  0.00000000000E+00  0.72447186868E+03  0.72447186868E+03  0.00000000000E+00 0. -1.
         -1   -1    0    0    0  501 -0.00000000000E+00 -0.00000000000E+00 -0.49190839138E+02  0.49190839138E+02  0.00000000000E+00 0.  1.
         25    2    1    2    0    0 -0.14460366169E+03  0.47028045195E+02  0.41134728152E+03  0.45604347571E+03  0.12508880734E+03 0.  0.
         23    2    1    2    0    0  0.14460366169E+03 -0.47028045195E+02  0.26393374803E+03  0.31761923211E+03  0.89994984575E+02 0.  0.
          5    1    3    3  502    0 -0.12651463102E+03  0.41020222037E+02  0.41533219551E+03  0.43612717814E+03  0.41800000000E+01 0. -1.
         -5    1    3    3    0  502 -0.18089030665E+02  0.60078231585E+01 -0.39849139992E+01  0.19916297574E+02  0.41800000000E+01 0. -1.
        -11    1    4    4    0    0  0.70736949383E+02 -0.49360066765E+02  0.73416344333E+02  0.11326999521E+03  0.00000000000E+00 0.  1.
         11    1    4    4    0    0  0.73866712304E+02  0.23320215700E+01  0.19051740369E+03  0.20434923690E+03  0.00000000000E+00 0. -1.
</event>
<event>
 8    1  0.6901948E-009  0.1123522E+03  0.7561462E-02  0.1256275E+00
          1   -1    0    0  501    0  0.00000000000E+00  0.00000000000E+00  0.11582966079E+04  0.11582966079E+04  0.00000000000E+00 0. -1.
         -1   -1    0    0    0  501 -0.00000000000E+00 -0.00000000000E+00 -0.11299000965E+02  0.11299000965E+02  0.00000000000E+00 0.  1.
         25    2    1    2    0    0  0.34442986774E+02  0.24915971103E+01  0.67870169450E+03  0.69099645091E+03  0.12509027803E+03 0.  0.
         23    2    1    2    0    0 -0.34442986774E+02 -0.24915971103E+01  0.46829591242E+03  0.47859915794E+03  0.92539532087E+02 0.  0.
          5    1    3    3  502    0 -0.50422878364E+00  0.59124568455E+02  0.23752061786E+03  0.24480499412E+03  0.41800000000E+01 0.  1.
         -5    1    3    3    0  502  0.34947215558E+02 -0.56632971345E+02  0.44118107665E+03  0.44619145679E+03  0.41800000000E+01 0.  1.
        -11    1    4    4    0    0  0.10393222673E+02  0.37351171959E+02  0.17898643723E+03  0.18313730869E+03  0.00000000000E+00 0.  1.
         11    1    4    4    0    0 -0.44836209447E+02 -0.39842769069E+02  0.28930947519E+03  0.29546184925E+03  0.00000000000E+00 0. -1.
</event>
<event>
 8    1  0.6901948E-009  0.9497501E+02  0.7561462E-02  0.1291232E+00
          2   -1    0    0  501    0  0.00000000000E+00  0.00000000000E+00  0.68614819107E+03  0.68614819107E+03  0.00000000000E+00 0. -1.
         -2   -1    0    0    0  501 -0.00000000000E+00 -0.00000000000E+00 -0.18371220805E+02  0.18371220805E+02  0.00000000000E+00 0.  1.
         25    2    1    2    0    0 -0.26934046293E+01 -0.28217645364E+02  0.40999553722E+03  0.42958401631E+03  0.12507036656E+03 0.  0.
         23    2    1    2    0    0  0.26934046293E+01  0.28217645364E+02  0.25778143305E+03  0.27493539557E+03  0.91294657963E+02 0.  0.
          5    1    3    3  502    0 -0.62634670682E+02 -0.82526854887E+01  0.23893510578E+03  0.24718144340E+03  0.41800000000E+01 0. -1.
         -5    1    3    3    0  502  0.59941266052E+02 -0.19964959875E+02  0.17106043144E+03  0.18240257291E+03  0.41800000000E+01 0. -1.
        -11    1    4    4    0    0  0.31902788256E+01  0.45709196666E+02  0.25254792826E+03  0.25667092669E+03  0.00000000000E+00 0. -1.
         11    1    4    4    0    0 -0.49687419633E+00 -0.17491551302E+02  0.52335047843E+01  0.18264468874E+02  0.00000000000E+00 0.  1.
</event>
<event>
 8    1  0.6901948E-009  0.1808004E+03  0.7561462E-02  0.1167031E+00
          3   -1    0    0  501    0  0.00000000000E+00  0.00000000000E+00  0.87062669354E+02  0.87062669354E+02  0.00000000000E+00 0. -1.
         -3   -1    0    0    0  501 -0.00000000000E+00 -0.00000000000E+00 -0.41610554986E+03  0.41610554986E+03  0.00000000000E+00 0.  1.
         25    2    1    2    0    0 -0.11972738351E+03  0.10760067416E+03 -0.14538013002E+03  0.25038576061E+03  0.12508035606E+03 0.  0.
         23    2    1    2    0    0  0.11972738351E+03 -0.10760067416E+03 -0.18366275049E+03  0.25278245860E+03  0.65225869224E+02 0.  0.
          5    1    3    3  502    0 -0.11895077591E+03  0.12373764175E+03 -0.15484331349E+03  0.23120167648E+03  0.41800000000E+01 0. -1.
         -5    1    3    3    0  502 -0.77660759749E+00 -0.16136967590E+02  0.94631834741E+01  0.19184084128E+02  0.41800000000E+01 0. -1.
        -11    1    4    4    0    0  0.40597682239E+01 -0.38026017306E+02 -0.33151535251E+02  0.50611105497E+02  0.00000000000E+00 0.  1.
         11    1    4    4    0    0  0.11566761529E+03 -0.69574656855E+02 -0.15051121524E+03  0.20217135310E+03  0.00000000000E+00 0. -1.
</event>
<event>
 8    1  0.6901948E-009  0.8736826E+02  0.7561462E-02  0.1309353E+00
          1   -1    0    0  501    0  0.00000000000E+00  0.00000000000E+00  0.17417716553E+03  0.17417716553E+03  0.00000000000E+00 0. -1.
         -1   -1    0    0    0  501 -0.00000000000E+00 -0.00000000000E+00 -0.69391687227E+02  0.69391687227E+02  0.00000000000E+00 0.  1.
         25    2    1    2    0    0  0.17126870055E+02 -0.48107553933E+01  0.45150610245E+02  0.13417639994E+03  0.12509298801E+03 0.  0.
         23    2    1    2    0    0 -0.17126870055E+02  0.48107553933E+01  0.59634868057E+02  0.10939245282E+03  0.89966205879E+02 0.  0.
          5    1    3    3  502    0 -0.53688248910E+02  0.32272812285E+01  0.27875998053E+02  0.60723859253E+02  0.41800000000E+01 0. -1.
         -5    1    3    3    0  502  0.70815118965E+02 -0.80380366218E+01  0.17274612193E+02  0.73452540685E+02  0.41800000000E+01 0. -1.
        -11    1    4    4    0    0  0.19067252871E+01  0.22994469582E+02  0.75303167328E+02  0.78758797872E+02  0.00000000000E+00 0. -1.
         11    1    4    4    0    0 -0.19033595342E+02 -0.18183714189E+02 -0.15668299271E+02  0.30633654946E+02  0.00000000000E+00 0.  1.
</event>
<event>
 8    1  0.6901948E-009  0.1187140E+03  0.7561462E-02  0.1245234E+00
         -2   -1    0    0    0  501 -0.00000000000E+00  0.00000000000E+00  0.24096304315E+02  0.24096304315E+02  0.00000000000E+00 0.  1.
          2   -1    0    0  501    0  0.00000000000E+00 -0.00000000000E+00 -0.11827047903E+04  0.11827047903E+04  0.00000000000E+00 0. -1.
         25    2    1    2    0    0  0.19501573775E+02  0.10145039265E+03 -0.90635719288E+03  0.92076271818E+03  0.12509248002E+03 0.  0.
         23    2    1    2    0    0 -0.19501573775E+02 -0.10145039265E+03 -0.25225129306E+03  0.28603837639E+03  0.86687625238E+02 0.  0.
          5    1    3    3  502    0  0.13535451921E+02  0.36075487201E+02 -0.75169216388E+03  0.75269066082E+03  0.41800000000E+01 0.  1.
         -5    1    3    3    0  502  0.59661218532E+01  0.65374905445E+02 -0.15466502899E+03  0.16807205736E+03  0.41800000000E+01 0.  1.
        -11    1    4    4    0    0 -0.52411364160E+02 -0.55101295053E+02 -0.11972084179E+03  0.14183153306E+03  0.00000000000E+00 0.  1.
         11    1    4    4    0    0  0.32909790385E+02 -0.46349097593E+02 -0.13253045127E+03  0.14420684333E+03  0.00000000000E+00 0. -1.
</event>
<event>
 8    1  0.6901948E-009  0.7784166E+02  0.7561462E-02  0.1335291E+00
          2   -1    0    0  501    0  0.00000000000E+00  0.00000000000E+00  0.20014524587E+03  0.20014524587E+03  0.00000000000E+00 0. -1.
         -2   -1    0    0    0  501 -0.00000000000E+00 -0.00000000000E+00 -0.65941279531E+02  0.65941279531E+02  0.00000000000E+00 0.  1.
         25    2    1    2    0    0 -0.30399834721E+02 -0.15020857470E+02  0.95370304757E+02  0.16091441107E+03  0.12509267185E+03 0.  0.
         23    2    1    2    0    0  0.30399834721E+02  0.15020857470E+02  0.38833661579E+02  0.10517211433E+03  0.91669756463E+02 0.  0.
          5    1    3    3  502    0 -0.12730369691E+02  0.22543156719E+02  0.11271873507E+03  0.11572917465E+03  0.41800000000E+01 0.  1.
         -5    1    3    3    0  502 -0.17669465030E+02 -0.37564014189E+02 -0.17348430317E+02  0.45185236426E+02  0.41800000000E+01 0.  1.
        -11    1    4    4    0    0 -0.83861435709E+01  0.40481166730E+02 -0.46285420175E+01  0.41598986346E+02  0.00000000000E+00 0. -1.
         11    1    4    4    0    0  0.38785978292E+02 -0.25460309260E+02  0.43462203596E+02  0.63573127980E+02  0.00000000000E+00 0.  1.
</event>
<event>
 8    1  0.6901948E-009  0.2443560E+03  0.7561462E-02  0.1116925E+00
          2   -1    0    0  501    0  0.00000000000E+00  0.00000000000E+00  0.77049510995E+03  0.77049510995E+03  0.00000000000E+00 0. -1.
         -2   -1    0    0    0  501 -0.00000000000E+00 -0.00000000000E+00 -0.92407327147E+02  0.92407327147E+02  0.00000000000E+00 0.  1.
         25    2    1    2    0    0  0.13356101138E+03 -0.18287362852E+03  0.20393225271E+03  0.32942040506E+03  0.12509249301E+03 0.  0.
         23    2    1    2    0    0 -0.13356101138E+03  0.18287362852E+03  0.47415553010E+03  0.53348203204E+03  0.92186246375E+02 0.  0.
          5    1    3    3  502    0  0.15736717262E+03 -0.14673248923E+03  0.16790672335E+03  0.27295602312E+03  0.41800000000E+01 0.  1.
         -5    1    3    3    0  502 -0.23806161238E+02 -0.36141139289E+02  0.36025529360E+02  0.56464381938E+02  0.41800000000E+01 0.  1.
        -11    1    4    4    0    0 -0.10207353938E+03  0.10697868518E+03  0.20993728703E+03  0.25678222487E+03  0.00000000000E+00 0.  1.
         11    1    4    4    0    0 -0.31487471997E+02  0.75894943331E+02  0.26421824307E+03  0.27669980717E+03  0.00000000000E+00 0. -1.
</event>
<event>
 8    1  0.6901948E-009  0.2271714E+03  0.7561462E-02  0.1128647E+00
          2   -1    0    0  501    0  0.00000000000E+00  0.00000000000E+00  0.26017602582E+04  0.26017602582E+04  0.00000000000E+00 0. -1.
         -2   -1    0    0    0  501 -0.00000000000E+00 -0.00000000000E+00 -0.21530547169E+02  0.21530547169E+02  0.00000000000E+00 0.  1.
         25    2    1    2    0    0 -0.82939125535E+02 -0.19220100650E+03  0.15267052295E+04  0.15460589734E+04  0.12509742589E+03 0.  0.
         23    2    1    2    0    0  0.82939125535E+02  0.19220100650E+03  0.10535244815E+04  0.10772318319E+04  0.81819687139E+02 0.  0.
          5    1    3    3  502    0 -0.30363852533E+02 -0.17459573833E+03  0.13259255890E+04  0.13377226077E+04  0.41800000000E+01 0. -1.
         -5    1    3    3    0  502 -0.52575273002E+02 -0.17605268171E+02  0.20077964058E+03  0.20833636570E+03  0.41800000000E+01 0. -1.
        -11    1    4    4    0    0  0.27951585282E+02  0.14885710228E+03  0.80029670466E+03  0.81450263566E+03  0.00000000000E+00 0.  1.
         11    1    4    4    0    0  0.54987540253E+02  0.43343904219E+02  0.25322777680E+03  0.26272919624E+03  0.00000000000E+00 0. -1.
</event>
<event>
 8    1  0.6901948E-009  0.1092907E+03  0.7561462E-02  0.1261889E+00
         -2   -1    0    0    0  501 -0.00000000000E+00  0.00000000000E+00  0.78151350114E+01  0.78151350114E+01  0.00000000000E+00 0.  1.
          2   -1    0    0  501    0  0.00000000000E+00 -0.00000000000E+00 -0.17853948584E+04  0.17853948584E+04  0.00000000000E+00 0. -1.
         25    2    1    2    0    0 -0.35621546700E+02 -0.13211138581E+02 -0.12223938716E+04  0.12293644032E+04  0.12508648971E+03 0.  0.
         23    2    1    2    0    0  0.35621546700E+02  0.13211138581E+02 -0.55518585185E+03  0.56384559021E+03  0.90813494237E+02 0.  0.
          5    1    3    3  502    0 -0.77125409796E+02 -0.30712373500E+01 -0.99186545399E+03  0.99487301328E+03  0.41800000000E+01 0. -1.
         -5    1    3    3    0  502  0.41503863096E+02 -0.10139901231E+02 -0.23052841760E+03  0.23449138997E+03  0.41800000000E+01 0. -1.
        -11    1    4    4    0    0  0.66337560233E+02  0.13195444710E+02 -0.37061656935E+03  0.37673788386E+03  0.00000000000E+00 0.  1.
         11    1    4    4    0    0 -0.30716013534E+02  0.15693871525E-01 -0.18456928250E+03  0.18710770635E+03  0.00000000000E+00 0. -1.
</event>
<event>
 8    1  0.6901948E-009  0.1239377E+03  0.7561462E-02  0.1236739E+00
          2   -1    0    0  501    0  0.00000000000E+00  0.00000000000E+00  0.17525908324E+04  0.17525908324E+04  0.00000000000E+00 0.  1.
         -2   -1    0    0    0  501 -0.00000000000E+00 -0.00000000000E+00 -0.13031494423E+02  0.13031494423E+02  0.00000000000E+00 0. -1.
         25    2    1    2    0    0 -0.60149127424E+02 -0.42692492973E+02  0.13767944642E+04  0.13844310131E+04  0.12508264025E+03 0.  0.
         23    2    1    2    0    0  0.60149127424E+02  0.42692492973E+02  0.36276487380E+03  0.38119131374E+03  0.90927979893E+02 0.  0.
          5    1    3    3  502    0 -0.53103924928E+02  0.27620830572E+02  0.94223252611E+03  0.94414116677E+03  0.41800000000E+01 0.  1.
         -5    1    3    3    0  502 -0.70452024966E+01 -0.70313323545E+02  0.43456193807E+03  0.44028984632E+03  0.41800000000E+01 0.  1.
        -11    1    4    4    0    0 -0.52283367184E+01 -0.23483857874E+02  0.74619663684E+02  0.78402304136E+02  0.00000000000E+00 0.  1.
         11    1    4    4    0    0  0.65377464143E+02  0.66176350847E+02  0.28814521011E+03  0.30278900961E+03  0.00000000000E+00 0. -1.
</event>
<event>
 8    1  0.6901948E-009  0.1466364E+03  0.7561462E-02  0.1204668E+00
          2   -1    0    0  501    0  0.00000000000E+00  0.00000000000E+00  0.17811827668E+03  0.17811827668E+03  0.00000000000E+00 0. -1.
         -2   -1    0    0    0  501 -0.00000000000E+00 -0.00000000000E+00 -0.17561698160E+03  0.17561698160E+03  0.00000000000E+00 0.  1.
         25    2    1    2    0    0  0.10442397566E+03 -0.43877819182E+01  0.93785971933E+02  0.18806271195E+03  0.12509258879E+03 0.  0.
         23    2    1    2    0    0 -0.10442397566E+03  0.43877819182E+01 -0.91284676849E+02  0.16567254633E+03  0.90503486430E+02 0.  0.
          5    1    3    3  502    0  0.11969244642E+03 -0.33277177090E+02  0.51720530414E+02  0.13463334621E+03  0.41800000000E+01 0.  1.
         -5    1    3    3    0  502 -0.15268470760E+02  0.28889395172E+02  0.42065441519E+02  0.53429365736E+02  0.41800000000E+01 0.  1.
        -11    1    4    4    0    0 -0.24707227969E+02  0.41342016863E+02 -0.46931189457E+02  0.67246903394E+02  0.00000000000E+00 0.  1.
         11    1    4    4    0    0 -0.79716747693E+02 -0.36954234945E+02 -0.44353487392E+02  0.98425642934E+02  0.00000000000E+00 0. -1.
</event>
<event>
 8    1  0.6901948E-009  0.1449793E+03  0.7561462E-02  0.1206782E+00
         -2   -1    0    0    0  501 -0.00000000000E+00  0.00000000000E+00  0.33393732670E+02  0.33393732670E+02  0.00000000000E+00 0.  1.
          2   -1    0    0  501    0  0.00000000000E+00 -0.00000000000E+00 -0.14518130359E+04  0.14518130359E+04  0.00000000000E+00 0. -1.
         25    2    1    2    0    0  0.47714823239E+02 -0.10457794499E+03 -0.12535242440E+04  0.12649835907E+04  0.12508878175E+03 0.  0.
         23    2    1    2    0    0 -0.47714823239E+02  0.10457794499E+03 -0.16489505924E+03  0.22022317796E+03  0.89970087321E+02 0.  0.
          5    1    3    3  502    0  0.49085303650E+02 -0.12018889537E+03 -0.12272622426E+04  0.12341170212E+04  0.41800000000E+01 0. -1.
         -5    1    3    3    0  502 -0.13704804105E+01  0.15610950380E+02 -0.26262001436E+02  0.30866569420E+02  0.41800000000E+01 0. -1.
        -11    1    4    4    0    0 -0.42929012712E+02  0.12013249397E+03 -0.15650942101E+03  0.20191561382E+03  0.00000000000E+00 0. -1.
         11    1    4    4    0    0 -0.47858105270E+01 -0.15554548975E+02 -0.83856382342E+01  0.18307564142E+02  0.00000000000E+00 0.  1.
</event>
<event>
 8    1  0.6901948E-009  0.8732649E+02  0.7561462E-02  0.1309458E+00
          1   -1    0    0  501    0  0.00000000000E+00  0.00000000000E+00  0.41753949831E+02  0.41753949831E+02  0.00000000000E+00 0. -1.
         -1   -1    0    0    0  501 -0.00000000000E+00 -0.00000000000E+00 -0.30745642561E+03  0.30745642561E+03  0.00000000000E+00 0.  1.
         25    2    1    2    0    0  0.45462370205E+00 -0.69713792856E+01 -0.10021487458E+03  0.16043171945E+03  0.12508600524E+03 0.  0.
         23    2    1    2    0    0 -0.45462370205E+00  0.69713792856E+01 -0.16548760120E+03  0.18877865599E+03  0.90567256747E+02 0.  0.
          5    1    3    3  502    0  0.22261357958E+02  0.32045151982E+02 -0.10796511581E+03  0.11487557815E+03  0.41800000000E+01 0. -1.
         -5    1    3    3    0  502 -0.21806734256E+02 -0.39016531268E+02  0.77502412288E+01  0.45556141301E+02  0.41800000000E+01 0. -1.
        -11    1    4    4    0    0 -0.24758436636E+02  0.41482305393E+02 -0.80414916850E+02  0.93810024504E+02  0.00000000000E+00 0.  1.
         11    1    4    4    0    0  0.24303812934E+02 -0.34510926107E+02 -0.85072684347E+02  0.94968631484E+02  0.00000000000E+00 0. -1.
</event>
<event>
 8    1  0.6901948E-009  0.1683829E+03  0.7561462E-02  0.1179545E+00
          2   -1    0    0  501    0  0.00000000000E+00  0.00000000000E+00  0.64568871839E+03  0.64568871839E+03  0.00000000000E+00 0. -1.
         -2   -1    0    0    0  501 -0.00000000000E+00 -0.00000000000E+00 -0.68277674520E+02  0.68277674520E+02  0.00000000000E+00 0.  1.
         25    2    1    2    0    0 -0.81556486185E+02  0.10243456087E+03  0.92374818549E+02  0.20328579078E+03  0.12509079076E+03 0.  0.
         23    2    1    2    0    0  0.81556486185E+02 -0.10243456087E+03  0.48503622532E+03  0.51068060212E+03  0.91598241332E+02 0.  0.
          5    1    3    3  502    0 -0.38135031874E+02  0.12427659543E+03  0.52427550328E+02  0.14023221193E+03  0.41800000000E+01 0. -1.
         -5    1    3    3    0  502 -0.43421454311E+02 -0.21842034563E+02  0.39947268220E+02  0.63053578856E+02  0.41800000000E+01 0. -1.
        -11    1    4    4    0    0  0.46871299952E+02 -0.11244001493E+03  0.40402071574E+03  0.42198627284E+03  0.00000000000E+00 0.  1.
         11    1    4    4    0    0  0.34685186233E+02  0.10005454063E+02  0.81015509573E+02  0.88694329280E+02  0.00000000000E+00 0. -1.
</event>
<event>
 8    1  0.6901948E-009  0.1104048E+03  0.7561462E-02  0.1259822E+00
         -3   -1    0    0    0  501 -0.00000000000E+00  0.00000000000E+00  0.79503278275E+02  0.79503278275E+02  0.00000000000E+00 0.  1.
          3   -1    0    0  501    0  0.00000000000E+00 -0.00000000000E+00 -0.21485517766E+03  0.21485517766E+03  0.00000000000E+00 0. -1.
         25    2    1    2    0    0 -0.42346604874E+02 -0.51678972855E+02 -0.41953671082E+02  0.14788312187E+03  0.12508139765E+03 0.  0.
         23    2    1    2    0    0  0.42346604874E+02  0.51678972855E+02 -0.93398228302E+02  0.14647533406E+03  0.90927681477E+02 0.  0.
          5    1    3    3  502    0  0.17470842458E+02 -0.74749522847E+02 -0.30045941112E+02  0.82540611091E+02  0.41800000000E+01 0.  1.
         -5    1    3    3    0  502 -0.59817447332E+02  0.23070549992E+02 -0.11907729969E+02  0.65342510781E+02  0.41800000000E+01 0.  1.
        -11    1    4    4    0    0  0.36082376400E+02  0.98702004823E+01  0.65289298684E+01  0.37973486401E+02  0.00000000000E+00 0.  1.
         11    1    4    4    0    0  0.62642284736E+01  0.41808772373E+02 -0.99927158170E+02  0.10850184766E+03  0.00000000000E+00 0. -1.
</event>
<event>
 8    1  0.6901948E-009  0.1854223E+03  0.7561462E-02  0.1162656E+00
          1   -1    0    0  501    0  0.00000000000E+00  0.00000000000E+00  0.38380651568E+03  0.38380651568E+03  0.00000000000E+00 0. -1.
         -1   -1    0    0    0  501 -0.00000000000E+00 -0.00000000000E+00 -0.11734865712E+03  0.11734865712E+03  0.00000000000E+00 0.  1.
         25    2    1    2    0    0  0.15910664284E+03 -0.70881008436E+02  0.20026627902E+03  0.29341653409E+03  0.12509052246E+03 0.  0.
         23    2    1    2    0    0 -0.15910664284E+03  0.70881008436E+02  0.66191579535E+02  0.20773863870E+03  0.91842123533E+02 0.  0.
          5    1    3    3  502    0  0.35978826808E+02  0.58460578537E+01 -0.99033626861E+01  0.38002649427E+02  0.41800000000E+01 0. -1.
         -5    1    3    3    0  502  0.12312781604E+03 -0.76727066289E+02  0.21016964171E+03  0.25541388466E+03  0.41800000000E+01 0. -1.
        -11    1    4    4    0    0 -0.22479722031E+02  0.44515747891E+02  0.44642494847E+02  0.66932369292E+02  0.00000000000E+00 0. -1.
         11    1    4    4    0    0 -0.13662692081E+03  0.26365260545E+02  0.21549084688E+02  0.14080626941E+03  0.00000000000E+00 0.  1.
</event>
<event>
 8    1  0.6901948E-009  0.9237480E+02  0.7561462E-02  0.1297201E+00
          1   -1    0    0  501    0  0.00000000000E+00  0.00000000000E+00  0.11035406174E+03  0.11035406174E+03  0.00000000000E+00 0. -1.
         -1   -1    0    0    0  501 -0.00000000000E+00 -0.00000000000E+00 -0.11908391299E+03  0.11908391299E+03  0.00000000000E+00 0.  1.
         25    2    1    2    0    0 -0.29209951281E+02 -0.24868994399E+02 -0.15974247883E+01  0.13085215265E+03  0.12509214983E+03 0.  0.
         23    2    1    2    0    0  0.29209951281E+02  0.24868994399E+02 -0.71324264614E+01  0.98585822089E+02  0.90535101885E+02 0.  0.
          5    1    3    3  502    0  0.14681515870E+02 -0.41316182453E+02 -0.47733932435E+02  0.64950554628E+02  0.41800000000E+01 0.  1.
         -5    1    3    3    0  502 -0.43891467151E+02  0.16447188054E+02  0.46136507647E+02  0.65901598019E+02  0.41800000000E+01 0.  1.
        -11    1    4    4    0    0  0.31346164339E+02 -0.27218673795E+02  0.11741723828E+02  0.43142859205E+02  0.00000000000E+00 0.  1.
         11    1    4    4    0    0 -0.21362130581E+01  0.52087668194E+02 -0.18874150290E+02  0.55442962883E+02  0.00000000000E+00 0. -1.
</event>
<event>
 8    1  0.6901948E-009  0.1156013E+03  0.7561462E-02  0.1250535E+00
          2   -1    0    0  501    0  0.00000000000E+00  0.00000000000E+00  0.96392481954E+03  0.96392481954E+03  0.00000000000E+00 0. -1.
         -2   -1    0    0    0  501 -0.00000000000E+00 -0.00000000000E+00 -0.16109806007E+02  0.16109806007E+02  0.00000000000E+00 0.  1.
         25    2    1    2    0    0  0.20487188873E+02  0.48236146045E+02  0.66063748432E+03  0.67441537072E+03  0.12509099043E+03 0.  0.
         23    2    1    2    0    0 -0.20487188873E+02 -0.48236146045E+02  0.28717752921E+03  0.30561925482E+03  0.90475106746E+02 0.  0.
          5    1    3    3  502    0 -0.31921723664E+02 -0.25793428809E+02  0.28440470722E+03  0.28738094457E+03  0.41800000000E+01 0. -1.
         -5    1    3    3    0  502  0.52408912537E+02  0.74029574854E+02  0.37623277710E+03  0.38703442616E+03  0.41800000000E+01 0. -1.
        -11    1    4    4    0    0  0.12771213602E+02  0.19718911981E+02  0.11769105521E+03  0.12001301539E+03  0.00000000000E+00 0. -1.
         11    1    4    4    0    0 -0.33258402475E+02 -0.67955058026E+02  0.16948647401E+03  0.18560623944E+03  0.00000000000E+00 0.  1.
</event>
<event>
 8    1  0.6901948E-009  0.1002373E+03  0.7561462E-02  0.1279798E+00
          2   -1    0    0  501    0  0.00000000000E+00  0.00000000000E+00  0.79140998983E+03  0.79140998983E+03  0.00000000000E+00 0.  1.
         -2   -1    0    0    0  501 -0.00000000000E+00 -0.00000000000E+00 -0.22944135523E+02  0.22944135523E+02  0.00000000000E+00 0. -1.
         25    2    1    2    0    0  0.18079003996E+02  0.34057295123E+02  0.63579125953E+03  0.64912622647E+03  0.12509029724E+03 0.  0.
         23    2    1    2    0    0 -0.18079003996E+02 -0.34057295123E+02  0.13267459478E+03  0.16522789889E+03  0.90614351693E+02 0.  0.
          5    1    3    3  502    0  0.49421798489E+01 -0.37464505157E+02  0.41265054628E+03  0.41439831085E+03  0.41800000000E+01 0.  1.
         -5    1    3    3    0  502  0.13136824147E+02  0.71521800281E+02  0.22314071325E+03  0.23472791562E+03  0.41800000000E+01 0.  1.
        -11    1    4    4    0    0 -0.50323812227E+02 -0.16863061548E+02  0.42709870233E+02  0.68124752750E+02  0.00000000000E+00 0. -1.
         11    1    4    4    0    0  0.32244808232E+02 -0.17194233576E+02  0.89964724550E+02  0.97103146136E+02  0.00000000000E+00 0.  1.
</event>
<event>
 8    1  0.6901948E-009  0.1144074E+03  0.7561462E-02  0.1252619E+00
          2   -1    0    0  501    0  0.00000000000E+00  0.00000000000E+00  0.71694964322E+03  0.71694964322E+03  0.00000000000E+00 0. -1.
         -2   -1    0    0    0  501 -0.00000000000E+00 -0.00000000000E+00 -0.18768712891E+02  0.18768712891E+02  0.00000000000E+00 0.  1.
         25    2    1    2    0    0 -0.17391665455E+02 -0.36285187946E+02  0.36352515462E+03  0.38654431979E+03  0.12508752228E+03 0.  0.
         23    2    1    2    0    0  0.17391665455E+02  0.36285187946E+02  0.33465577571E+03  0.34917403632E+03  0.91153357222E+02 0.  0.
          5    1    3    3  502    0  0.11056179138E+02 -0.78604038677E+02  0.24084817681E+03  0.25362600550E+03  0.41800000000E+01 0. -1.
         -5    1    3    3    0  502 -0.28447844594E+02  0.42318850732E+02  0.12267697781E+03  0.13291831429E+03  0.41800000000E+01 0. -1.
        -11    1    4    4    0    0  0.53831784905E+02  0.28465560646E+02  0.17733700203E+03  0.18750083066E+03  0.00000000000E+00 0.  1.
         11    1    4    4    0    0 -0.36440119450E+02  0.78196272994E+01  0.15731877368E+03  0.16167320566E+03  0.00000000000E+00 0. -1.
</event>
<event>
 8    1  0.6901948E-009  0.8593505E+02  0.7561462E-02  0.1313005E+00
          4   -1    0    0  501    0  0.00000000000E+00  0.00000000000E+00  0.37701584559E+03  0.37701584559E+03  0.00000000000E+00 0. -1.
         -4   -1    0    0    0  501 -0.00000000000E+00 -0.00000000000E+00 -0.81252875326E+02  0.81252875326E+02  0.00000000000E+00 0.  1.
         25    2    1    2    0    0 -0.45831213237E+02  0.22327723878E+02  0.32262862347E+03  0.34976421020E+03  0.12508695652E+03 0.  0.
         23    2    1    2    0    0  0.45831213237E+02 -0.22327723878E+02 -0.26865653213E+02  0.10850451071E+03  0.91937142451E+02 0.  0.
          5    1    3    3  502    0 -0.64431995526E+02  0.13488247898E+02  0.69697400913E+02  0.95961528608E+02  0.41800000000E+01 0.  1.
         -5    1    3    3    0  502  0.18600782289E+02  0.88394759805E+01  0.25293122256E+03  0.25380268159E+03  0.41800000000E+01 0.  1.
        -11    1    4    4    0    0  0.11232834860E+02 -0.43099854350E+02  0.18107843474E+02  0.48079808852E+02  0.00000000000E+00 0. -1.
         11    1    4    4    0    0  0.34598378377E+02  0.20772130472E+02 -0.44973496687E+02  0.60424701860E+02  0.00000000000E+00 0.  1.
</event>
<event>
 8    1  0.6901948E-009  0.1891000E+03  0.7561462E-02  0.1159276E+00
          3   -1    0    0  501    0  0.00000000000E+00  0.00000000000E+00  0.10540211067E+03  0.10540211067E+03  0.00000000000E+00 0. -1.
         -3   -1    0    0    0  501 -0.00000000000E+00 -0.00000000000E+00 -0.38786176794E+03  0.38786176794E+03  0.00000000000E+00 0.  1.
         25    2    1    2    0    0 -0.15541985518E+03  0.66660001048E+02 -0.16948956987E+03  0.27013512363E+03  0.12508950236E+03 0.  0.
         23    2    1    2    0    0  0.15541985518E+03 -0.66660001048E+02 -0.11297008741E+03  0.22312875498E+03  0.91789506622E+02 0.  0.
          5    1    3    3  502    0 -0.16983817887E+03  0.77995429097E+02 -0.13411779478E+03  0.23007248692E+03  0.41800000000E+01 0.  1.
         -5    1    3    3    0  502  0.14418323688E+02 -0.11335428049E+02 -0.35371775088E+02  0.40062636707E+02  0.41800000000E+01 0.  1.
        -11    1    4    4    0    0  0.10539179585E+03 -0.61831481667E+02 -0.29510435195E+02  0.12570373321E+03  0.00000000000E+00 0. -1.
         11    1    4    4    0    0  0.50028059336E+02 -0.48285193811E+01 -0.83459652211E+02  0.97425021773E+02  0.00000000000E+00 0.  1.
</event>
<event>
 8    1  0.6901948E-009  0.1119510E+03  0.7561462E-02  0.1256999E+00
          2   -1    0    0  501    0  0.00000000000E+00  0.00000000000E+00  0.12466421926E+03  0.12466421926E+03  0.00000000000E+00 0. -1.
         -2   -1    0    0    0  501 -0.00000000000E+00 -0.00000000000E+00 -0.22686599499E+03  0.22686599499E+03  0.00000000000E+00 0.  1.
         25    2    1    2    0    0  0.85771458739E+01  0.75940300027E+02  0.52900621193E+02  0.15584045933E+03  0.12508907403E+03 0.  0.
         23    2    1    2    0    0 -0.85771458739E+01 -0.75940300027E+02 -0.15510239692E+03  0.19568975493E+03  0.91636401358E+02 0.  0.
          5    1    3    3  502    0  0.42691058466E+02  0.40840773535E+02 -0.24558186063E+02  0.64117643114E+02  0.41800000000E+01 0.  1.
         -5    1    3    3    0  502 -0.34113912592E+02  0.35099526492E+02  0.77458807256E+02  0.91722816212E+02  0.41800000000E+01 0.  1.
        -11    1    4    4    0    0 -0.42251478417E+02 -0.13066444432E+02 -0.36725402536E+02  0.57486299150E+02  0.00000000000E+00 0. -1.
         11    1    4    4    0    0  0.33674332543E+02 -0.62873855594E+02 -0.11837699438E+03  0.13820345578E+03  0.00000000000E+00 0.  1.
</event>
<event>
 8    1  0.6901948E-009  0.1808394E+03  0.7561462E-02  0.1166993E+00
         -2   -1    0    0    0  501 -0.00000000000E+00  0.00000000000E+00  0.29288496027E+02  0.29288496027E+02  0.00000000000E+00 0.  1.
          2   -1    0    0  501    0  0.00000000000E+00 -0.00000000000E+00 -0.15912561691E+04  0.15912561691E+04  0.00000000000E+00 0. -1.
         25    2    1    2    0    0 -0.75928906072E+02  0.12811360233E+03 -0.12198353905E+04  0.12352421650E+04  0.12508610034E+03 0.  0.
         23    2    1    2    0    0  0.75928906072E+02 -0.12811360233E+03 -0.34213228258E+03  0.38530250010E+03  0.96048029207E+02 0.  0.
          5    1    3    3  502    0 -0.30593720950E+02 -0.15425239850E+02 -0.41555567978E+03  0.41698670145E+03  0.41800000000E+01 0. -1.
         -5    1    3    3    0  502 -0.45335185122E+02  0.14353884218E+03 -0.80427971067E+03  0.81825546355E+03  0.41800000000E+01 0. -1.
        -11    1    4    4    0    0  0.25542450354E+02  0.11601085850E+02 -0.67132092829E+02  0.72757953865E+02  0.00000000000E+00 0.  1.
         11    1    4    4    0    0  0.50386455719E+02 -0.13971468818E+03 -0.27500018975E+03  0.31254454623E+03  0.00000000000E+00 0. -1.
</event>
<event>
 8    1  0.6901948E-009  0.1679516E+03  0.7561462E-02  0.1180001E+00
         -2   -1    0    0    0  501 -0.00000000000E+00  0.00000000000E+00  0.29637216260E+02  0.29637216260E+02  0.00000000000E+00 0.  1.
          2   -1    0    0  501    0  0.00000000000E+00 -0.00000000000E+00 -0.13721938885E+04  0.13721938885E+04  0.00000000000E+00 0. -1.
         25    2    1    2    0    0  0.24430591597E+02 -0.14304769792E+03 -0.10101371735E+04  0.10281452601E+04  0.12508424692E+03 0.  0.
         23    2    1    2    0    0 -0.24430591597E+02  0.14304769792E+03 -0.33241949874E+03  0.37368584469E+03  0.89882644015E+02 0.  0.
          5    1    3    3  502    0 -0.24474046655E+02 -0.13571687222E+03 -0.64049360092E+03  0.65518514451E+03  0.41800000000E+01 0.  1.
         -5    1    3    3    0  502  0.48904638252E+02 -0.73308256972E+01 -0.36964357262E+03  0.37296011560E+03  0.41800000000E+01 0.  1.
        -11    1    4    4    0    0 -0.83617483306E+01  0.11953769985E+03 -0.32164061183E+03  0.34323732854E+03  0.00000000000E+00 0. -1.
         11    1    4    4    0    0 -0.16068843266E+02  0.23509998070E+02 -0.10778886907E+02  0.30448516157E+02  0.00000000000E+00 0.  1.
</event>
<event>
 8    1  0.6901948E-009  0.1324183E+03  0.7561462E-02  0.1223911E+00
          2   -1    0    0  501    0  0.00000000000E+00  0.00000000000E+00  0.12551844662E+04  0.12551844662E+04  0.00000000000E+00 0.  1.
         -2   -1    0    0    0  501 -0.00000000000E+00 -0.00000000000E+00 -0.34736076816E+02  0.34736076816E+02  0.00000000000E+00 0. -1.
         25    2    1    2    0    0  0.38029757139E+02  0.11021367372E+03  0.10543050366E+04  0.10680824685E+04  0.12509089964E+03 0.  0.
         23    2    1    2    0    0 -0.38029757139E+02 -0.11021367372E+03  0.16614335283E+03  0.22183807449E+03  0.89527656616E+02 0.  0.
          5    1    3    3  502    0  0.40219321635E+02  0.69489909321E+02  0.24738354561E+03  0.26012022676E+03  0.41800000000E+01 0.  1.
         -5    1    3    3    0  502 -0.21895644963E+01  0.40723764401E+02  0.80692149095E+03  0.80796224178E+03  0.41800000000E+01 0.  1.
        -11    1    4    4    0    0 -0.54636105650E+02 -0.31647724777E+02  0.97692903085E+02  0.11632104641E+03  0.00000000000E+00 0.  1.
         11    1    4    4    0    0  0.16606348511E+02 -0.78565948945E+02  0.68450449746E+02  0.10551702808E+03  0.00000000000E+00 0. -1.
</event>
<event>
 8    1  0.6901948E-009  0.1058367E+03  0.7561462E-02  0.1268480E+00
          1   -1    0    0  501    0  0.00000000000E+00  0.00000000000E+00  0.10094505166E+03  0.10094505166E+03  0.00000000000E+00 0. -1.
         -1   -1    0    0    0  501 -0.00000000000E+00 -0.00000000000E+00 -0.18830336156E+03  0.18830336156E+03  0.00000000000E+00 0.  1.
         25    2    1    2    0    0 -0.57738880568E+02  0.55508701923E+02 -0.19209640139E+02  0.14977320176E+03  0.12509199564E+03 0.  0.
         23    2    1    2    0    0  0.57738880568E+02 -0.55508701923E+02 -0.68148669760E+02  0.13947521147E+03  0.91619316221E+02 0.  0.
          5    1    3    3  502    0 -0.53626375429E+02  0.10542221369E+02 -0.65204954757E+02  0.85182657260E+02  0.41800000000E+01 0. -1.
         -5    1    3    3    0  502 -0.41125051393E+01  0.44966480554E+02  0.45995314618E+02  0.64590544500E+02  0.41800000000E+01 0. -1.
        -11    1    4    4    0    0  0.62918455283E+02 -0.71184090037E+02 -0.75550563896E+02  0.12138284226E+03  0.00000000000E+00 0.  1.
         11    1    4    4    0    0 -0.51795747146E+01  0.15675388114E+02  0.74018941359E+01  0.18092369208E+02  0.00000000000E+00 0. -1.
</event>
<event>
 8    1  0.6901948E-009  0.1155018E+03  0.7561462E-02  0.1250708E+00
          1   -1    0    0  501    0  0.00000000000E+00  0.00000000000E+00  0.26794976011E+03  0.26794976011E+03  0.00000000000E+00 0. -1.
         -1   -1    0    0    0  501 -0.00000000000E+00 -0.00000000000E+00 -0.54368741140E+02  0.54368741140E+02  0.00000000000E+00 0.  1.
         25    2    1    2    0    0 -0.47713400869E+02 -0.19616108863E+02  0.11032990294E+03  0.17458845009E+03  0.12508828512E+03 0.  0.
         23    2    1    2    0    0  0.47713400869E+02  0.19616108863E+02  0.10325111603E+03  0.14773005116E+03  0.92206370189E+02 0.  0.
          5    1    3    3  502    0 -0.86767766231E+02 -0.10768648661E+02  0.46489899823E+02  0.99113027580E+02  0.41800000000E+01 0.  1.
         -5    1    3    3    0  502  0.39054365362E+02 -0.88474602017E+01  0.63840003116E+02  0.75475422514E+02  0.41800000000E+01 0.  1.
        -11    1    4    4    0    0 -0.26335188798E+02  0.11431542781E+02  0.15523535669E+02  0.32637440143E+02  0.00000000000E+00 0.  1.
         11    1    4    4    0    0  0.74048589667E+02  0.81845660821E+01  0.87727580365E+02  0.11509261102E+03  0.00000000000E+00 0. -1.
</event>
<event>
 8    1  0.6901948E-009  0.3412454E+03  0.7561462E-02  0.1066267E+00
         -2   -1    0    0    0  501 -0.00000000000E+00  0.00000000000E+00  0.65173360338E+02  0.65173360338E+02  0.00000000000E+00 0.  1.
          2   -1    0    0  501    0  0.00000000000E+00 -0.00000000000E+00 -0.19042547946E+04  0.19042547946E+04  0.00000000000E+00 0. -1.
         25    2    1    2    0    0 -0.29754323126E+03  0.13076589485E+03 -0.70844496468E+03  0.78941331816E+03  0.12508966857E+03 0.  0.
         23    2    1    2    0    0  0.29754323126E+03 -0.13076589485E+03 -0.11306364696E+04  0.11800148368E+04  0.92002689912E+02 0.  0.
          5    1    3    3  502    0 -0.50337338496E+02 -0.24025119360E+02 -0.97527927687E+02  0.11242874671E+03  0.41800000000E+01 0. -1.
         -5    1    3    3    0  502 -0.24720589276E+03  0.15479101421E+03 -0.61091703700E+03  0.67698457145E+03  0.41800000000E+01 0. -1.
        -11    1    4    4    0    0  0.11024365506E+03 -0.72157314333E+01 -0.30342765715E+03  0.32291496309E+03  0.00000000000E+00 0.  1.
         11    1    4    4    0    0  0.18729957620E+03 -0.12355016341E+03 -0.82720881240E+03  0.85709987366E+03  0.00000000000E+00 0. -1.
</event>
<event>
 8    1  0.6901948E-009  0.1082491E+03  0.7561462E-02  0.1263847E+00
         -2   -1    0    0    0  501 -0.00000000000E+00  0.00000000000E+00  0.30101269862E+03  0.30101269862E+03  0.00000000000E+00 0.  1.
          2   -1    0    0  501    0  0.00000000000E+00 -0.00000000000E+00 -0.58189192804E+02  0.58189192804E+02  0.00000000000E+00 0. -1.
         25    2    1    2    0    0 -0.52016033355E-01 -0.32104055956E+02  0.22634580037E+03  0.26059673338E+03  0.12509021940E+03 0.  0.
         23    2    1    2    0    0  0.52016033355E-01  0.32104055956E+02  0.16477705451E+02  0.98605158048E+02  0.91764858754E+02 0.  0.
          5    1    3    3  502    0 -0.35157209642E+02  0.30940176860E+02  0.43789110696E+02  0.64251712425E+02  0.41800000000E+01 0.  1.
         -5    1    3    3    0  502  0.35105193609E+02 -0.63044232816E+02  0.18255668967E+03  0.19634502095E+03  0.41800000000E+01 0.  1.
        -11    1    4    4    0    0 -0.28419598890E+02 -0.22080698257E+02  0.70598180259E+01  0.36675221433E+02  0.00000000000E+00 0.  1.
         11    1    4    4    0    0  0.28471614924E+02  0.54184754214E+02  0.94178874254E+01  0.61929936615E+02  0.00000000000E+00 0. -1.
</event>
<event>
 8    1  0.6901948E-009  0.1323279E+03  0.7561462E-02  0.1224042E+00
         -2   -1    0    0    0  501 -0.00000000000E+00  0.00000000000E+00  0.54409538143E+02  0.54409538143E+02  0.00000000000E+00 0.  1.
          2   -1    0    0  501    0  0.00000000000E+00 -0.00000000000E+00 -0.36127954156E+03  0.36127954156E+03  0.00000000000E+00 0. -1.
         25    2    1    2    0    0  0.34674816412E+02  0.76614413483E+02 -0.12616516928E+03  0.19656320325E+03  0.12508929485E+03 0.  0.
         23    2    1    2    0    0 -0.34674816412E+02 -0.76614413483E+02 -0.18070483414E+03  0.21912587645E+03  0.91048346513E+02 0.  0.
          5    1    3    3  502    0 -0.30803302020E+02  0.75087040456E+02 -0.91365726567E+02  0.12227867946E+03  0.41800000000E+01 0. -1.
         -5    1    3    3    0  502  0.65478118431E+02  0.15273730265E+01 -0.34799442711E+02  0.74284523790E+02  0.41800000000E+01 0. -1.
        -11    1    4    4    0    0 -0.17885762521E+02 -0.92758775906E+02 -0.11167100912E+03  0.14626860664E+03  0.00000000000E+00 0.  1.
         11    1    4    4    0    0 -0.16789053891E+02  0.16144362424E+02 -0.69033825015E+02  0.72857269815E+02  0.00000000000E+00 0. -1.
</event>
<event>
 8    1  0.6901948E-009  0.1488723E+03  0.7561462E-02  0.1201866E+00
         -2   -1    0    0    0  501 -0.00000000000E+00  0.00000000000E+00  0.10617541895E+02  0.10617541895E+02  0.00000000000E+00 0.  1.
          2   -1    0    0  501    0  0.00000000000E+00 -0.00000000000E+00 -0.32286737069E+04  0.32286737069E+04  0.00000000000E+00 0. -1.
         25    2    1    2    0    0  0.88306012574E+02  0.60175008053E+02 -0.26090234353E+04  0.26142054341E+04  0.12509109591E+03 0.  0.
         23    2    1    2    0    0 -0.88306012574E+02 -0.60175008053E+02 -0.60903272973E+03  0.62508581473E+03  0.91610187390E+02 0.  0.
          5    1    3    3  502    0 -0.29490868813E+02  0.83983673079E+01 -0.80470299295E+03  0.80529784750E+03  0.41800000000E+01 0. -1.
         -5    1    3    3    0  502  0.11779688139E+03  0.51776640745E+02 -0.18043204424E+04  0.18089075866E+04  0.41800000000E+01 0. -1.
        -11    1    4    4    0    0 -0.42382762145E+02 -0.78019110055E+02 -0.32993783819E+03  0.34167566072E+03  0.00000000000E+00 0.  1.
         11    1    4    4    0    0 -0.45923250428E+02  0.17844102002E+02 -0.27909489154E+03  0.28341015400E+03  0.00000000000E+00 0. -1.
</event>
<event>
 8    1  0.6901948E-009  0.7476172E+02  0.7561462E-02  0.1344610E+00
         -1   -1    0    0    0  501 -0.00000000000E+00  0.00000000000E+00  0.10515392079E+03  0.10515392079E+03  0.00000000000E+00 0. -1.
          1   -1    0    0  501    0  0.00000000000E+00 -0.00000000000E+00 -0.11159247168E+03  0.11159247168E+03  0.00000000000E+00 0.  1.
         25    2    1    2    0    0  0.11107509001E+02  0.16006897037E+02  0.16849257062E+01  0.12660771005E+03  0.12508827188E+03 0.  0.
         23    2    1    2    0    0 -0.11107509001E+02 -0.16006897037E+02 -0.81234765946E+01  0.90138682410E+02  0.87632149841E+02 0.  0.
          5    1    3    3  502    0  0.50763351322E+02 -0.55635216318E+01  0.41758736823E+02  0.66099433518E+02  0.41800000000E+01 0.  1.
         -5    1    3    3    0  502 -0.39655842321E+02  0.21570418669E+02 -0.40073811117E+02  0.60508276534E+02  0.41800000000E+01 0.  1.
        -11    1    4    4    0    0  0.68446441083E+01  0.15355837802E+02  0.31995676657E+02  0.36143799362E+02  0.00000000000E+00 0. -1.
         11    1    4    4    0    0 -0.17952153110E+02 -0.31362734839E+02 -0.40119153251E+02  0.53994883049E+02  0.00000000000E+00 0.  1.
</event>
<event>
 8    1  0.6901948E-009  0.1711115E+03  0.7561462E-02  0.1176694E+00
         -1   -1    0    0    0  501 -0.00000000000E+00  0.00000000000E+00  0.11676949528E+03  0.11676949528E+03  0.00000000000E+00 0.  1.
          1   -1    0    0  501    0  0.00000000000E+00 -0.00000000000E+00 -0.34417566125E+03  0.34417566125E+03  0.00000000000E+00 0. -1.
         25    2    1    2    0    0  0.28972541496E+02 -0.14476693812E+03 -0.21311274913E+03  0.28785843828E+03  0.12509421297E+03 0.  0.
         23    2    1    2    0    0 -0.28972541496E+02  0.14476693812E+03 -0.14293416851E+02  0.17308671825E+03  0.89206702304E+02 0.  0.
          5    1    3    3  502    0  0.29209423288E+02  0.15262899055E+02 -0.41746764929E+02  0.53351769215E+02  0.41800000000E+01 0. -1.
         -5    1    3    3    0  502 -0.23688179173E+00 -0.16002983717E+03 -0.17136598420E+03  0.23450666907E+03  0.41800000000E+01 0. -1.
        -11    1    4    4    0    0 -0.13007492566E+02  0.10869632731E+03  0.30263458416E+02  0.11357800557E+03  0.00000000000E+00 0.  1.
         11    1    4    4    0    0 -0.15965048930E+02  0.36070610810E+02 -0.44556875267E+02  0.59508712682E+02  0.00000000000E+00 0. -1.
</event>
<event>
 8    1  0.6901948E-009  0.1496074E+03  0.7561462E-02  0.1200956E+00
         -1   -1    0    0    0  501 -0.00000000000E+00  0.00000000000E+00  0.36419233532E+02  0.36419233532E+02  0.00000000000E+00 0.  1.
          1   -1    0    0  501    0  0.00000000000E+00 -0.00000000000E+00 -0.95795007030E+03  0.95795007030E+03  0.00000000000E+00 0. -1.
         25    2    1    2    0    0 -0.83761192600E+02  0.10369479136E+03 -0.67878978372E+03  0.70297333544E+03  0.12508953880E+03 0.  0.
         23    2    1    2    0    0  0.83761192600E+02 -0.10369479136E+03 -0.24274105305E+03  0.29139596839E+03  0.90663357634E+02 0.  0.
          5    1    3    3  502    0  0.83212465259E+01 -0.79933641521E+01 -0.25172718861E+03  0.25202616312E+03  0.41800000000E+01 0. -1.
         -5    1    3    3    0  502 -0.92082439126E+02  0.11168815551E+03 -0.42706259511E+03  0.45094717232E+03  0.41800000000E+01 0. -1.
        -11    1    4    4    0    0  0.88349688712E+02 -0.84005503889E+02 -0.24222283733E+03  0.27117244532E+03  0.00000000000E+00 0. -1.
         11    1    4    4    0    0 -0.45884961119E+01 -0.19689287473E+02 -0.51821572167E+00  0.20223523068E+02  0.00000000000E+00 0.  1.
</event>
<event>
 8    1  0.6901948E-009  0.1006419E+03  0.7561462E-02  0.1278952E+00
          1   -1    0    0  501    0  0.00000000000E+00  0.00000000000E+00  0.31518398505E+03  0.31518398505E+03  0.00000000000E+00 0. -1.
         -1   -1    0    0    0  501 -0.00000000000E+00 -0.00000000000E+00 -0.37163756352E+02  0.37163756352E+02  0.00000000000E+00 0.  1.
         25    2    1    2    0    0  0.31177900856E+02  0.68717183527E+01  0.14517783240E+03  0.19427773485E+03  0.12509177920E+03 0.  0.
         23    2    1    2    0    0 -0.31177900856E+02 -0.68717183527E+01  0.13284239630E+03  0.15807000655E+03  0.79496809384E+02 0.  0.
          5    1    3    3  502    0 -0.42852748849E+02 -0.93636992683E+01  0.90730974815E+02  0.10086436010E+03  0.41800000000E+01 0.  1.
         -5    1    3    3    0  502  0.74030649705E+02  0.16235417621E+02  0.54446857586E+02  0.93413374750E+02  0.41800000000E+01 0.  1.
        -11    1    4    4    0    0 -0.33551059183E+02  0.29615307760E+02  0.47690471899E+02  0.65399702873E+02  0.00000000000E+00 0.  1.
         11    1    4    4    0    0  0.23731583270E+01 -0.36487026112E+02  0.85151924402E+02  0.92670303681E+02  0.00000000000E+00 0. -1.
</event>
<event>
 8    1  0.6901948E-009  0.1048227E+03  0.7561462E-02  0.1270469E+00
         -1   -1    0    0    0  501 -0.00000000000E+00  0.00000000000E+00  0.56325002490E+02  0.56325002490E+02  0.00000000000E+00 0.  1.
          1   -1    0    0  501    0  0.00000000000E+00 -0.00000000000E+00 -0.26770767817E+03  0.26770767817E+03  0.00000000000E+00 0. -1.
         25    2    1    2    0    0  0.34644003242E+02  0.42201535456E+02 -0.14344576142E+03  0.19800411892E+03  0.12509103919E+03 0.  0.
         23    2    1    2    0    0 -0.34644003242E+02 -0.42201535456E+02 -0.67936914255E+02  0.12602856174E+03  0.91030750294E+02 0.  0.
          5    1    3    3  502    0  0.82397229782E+00  0.76852911211E+02 -0.12338832664E+03  0.14542764676E+03  0.41800000000E+01 0.  1.
         -5    1    3    3    0  502  0.33820030945E+02 -0.34651375755E+02 -0.20057434783E+02  0.52576472161E+02  0.41800000000E+01 0.  1.
        -11    1    4    4    0    0 -0.53532042517E+02 -0.34439405820E+02 -0.97922436100E+01  0.64402176083E+02  0.00000000000E+00 0.  1.
         11    1    4    4    0    0  0.18888039275E+02 -0.77621296369E+01 -0.58144670645E+02  0.61626385653E+02  0.00000000000E+00 0. -1.
</event>
<event>
 8    1  0.6901948E-009  0.1137727E+03  0.7561462E-02  0.1253739E+00
         -1   -1    0    0    0  501 -0.00000000000E+00  0.00000000000E+00  0.47256422402E+02  0.47256422402E+02  0.00000000000E+00 0.  1.
          1   -1    0    0  501    0  0.00000000000E+00 -0.00000000000E+00 -0.34490619598E+03  0.34490619598E+03  0.00000000000E+00 0. -1.
         25    2    1    2    0    0  0.34839961838E+02 -0.42595193676E+02 -0.22755352993E+03  0.26543495996E+03  0.12508771130E+03 0.  0.
         23    2    1    2    0    0 -0.34839961838E+02  0.42595193676E+02 -0.70096243645E+02  0.12672765842E+03  0.90101290616E+02 0.  0.
          5    1    3    3  502    0  0.84588579972E+01  0.44359205833E+02 -0.84728827503E+02  0.96102747260E+02  0.41800000000E+01 0. -1.
         -5    1    3    3    0  502  0.26381103840E+02 -0.86954399509E+02 -0.14282470243E+03  0.16933221270E+03  0.41800000000E+01 0. -1.
        -11    1    4    4    0    0 -0.33828168598E+02  0.62623237127E+02 -0.21809596205E+02  0.74442416038E+02  0.00000000000E+00 0.  1.
         11    1    4    4    0    0 -0.10117932393E+01 -0.20028043451E+02 -0.48286647440E+02  0.52285242383E+02  0.00000000000E+00 0. -1.
</event>
<event>
 8    1  0.6901948E-009  0.6501333E+02  0.7561462E-02  0.1377921E+00
         -4   -1    0    0    0  501 -0.00000000000E+00  0.00000000000E+00  0.24102685441E+03  0.24102685441E+03  0.00000000000E+00 0.  1.
          4   -1    0    0  501    0  0.00000000000E+00 -0.00000000000E+00 -0.51747386772E+02  0.51747386772E+02  0.00000000000E+00 0. -1.
         25    2    1    2    0    0 -0.18604666252E+02 -0.13040640982E+02  0.13828929940E+03  0.18785127551E+03  0.12509188406E+03 0.  0.
         23    2    1    2    0    0  0.18604666252E+02  0.13040640982E+02  0.50990168239E+02  0.10492296567E+03  0.88840528731E+02 0.  0.
          5    1    3    3  502    0  0.19306093151E+02 -0.25309242236E+02 -0.10486942116E+02  0.33774714362E+02  0.41800000000E+01 0.  1.
         -5    1    3    3    0  502 -0.37910759402E+02  0.12268601254E+02  0.14877624151E+03  0.15407656114E+03  0.41800000000E+01 0.  1.
        -11    1    4    4    0    0  0.37158414646E+02  0.12798659367E+02  0.68780598691E+02  0.79216944001E+02  0.00000000000E+00 0.  1.
         11    1    4    4    0    0 -0.18553748394E+02  0.24198161490E+00 -0.17790430453E+02  0.25706021673E+02  0.00000000000E+00 0. -1.
</event>
<event>
 8    1  0.6901948E-009  0.1790030E+03  0.7561462E-02  0.1168771E+00
          2   -1    0    0  501    0  0.00000000000E+00  0.00000000000E+00  0.94890372485E+03  0.94890372485E+03  0.00000000000E+00 0. -1.
         -2   -1    0    0    0  501 -0.00000000000E+00 -0.00000000000E+00 -0.44281149596E+02  0.44281149596E+02  0.00000000000E+00 0.  1.
         25    2    1    2    0    0 -0.14539045716E+03  0.83891138616E+02  0.57766821143E+03  0.61442986750E+03  0.12508953357E+03 0.  0.
         23    2    1    2    0    0  0.14539045716E+03 -0.83891138616E+02  0.32695436383E+03  0.37875500695E+03  0.91542837461E+02 0.  0.
          5    1    3    3  502    0  0.80358656562E+01  0.23089697686E+02  0.20924876942E+03  0.21071361887E+03  0.41800000000E+01 0. -1.
         -5    1    3    3    0  502 -0.15342632282E+03  0.60801440930E+02  0.36841944201E+03  0.40371624863E+03  0.41800000000E+01 0. -1.
        -11    1    4    4    0    0  0.28490502567E+02 -0.20813119267E+02  0.12561181929E+02  0.37452342538E+02  0.00000000000E+00 0.  1.
         11    1    4    4    0    0  0.11689995460E+03 -0.63078019349E+02  0.31439318190E+03  0.34130266441E+03  0.00000000000E+00 0. -1.
</event>
<event>
 8    1  0.6901948E-009  0.1061738E+03  0.7561462E-02  0.1267824E+00
         -2   -1    0    0    0  501 -0.00000000000E+00  0.00000000000E+00  0.36293175122E+02  0.36293175122E+02  0.00000000000E+00 0.  1.
          2   -1    0    0  501    0  0.00000000000E+00 -0.00000000000E+00 -0.37401960924E+03  0.37401960924E+03  0.00000000000E+00 0. -1.
         25    2    1    2    0    0 -0.38118019181E+02 -0.11383238188E+02 -0.22067335991E+03  0.25676116029E+03  0.12508796969E+03 0.  0.
         23    2    1    2    0    0  0.38118019181E+02  0.11383238188E+02 -0.11705307421E+03  0.15355162407E+03  0.91072046071E+02 0.  0.
          5    1    3    3  502    0 -0.76082370224E+01 -0.66859667133E+02 -0.12355085675E+03  0.14074937642E+03  0.41800000000E+01 0.  1.
         -5    1    3    3    0  502 -0.30509782159E+02  0.55476428945E+02 -0.97122503157E+02  0.11601178386E+03  0.41800000000E+01 0.  1.
        -11    1    4    4    0    0  0.40786007842E+02 -0.23111245401E+02 -0.10808095523E+03  0.11780968120E+03  0.00000000000E+00 0. -1.
         11    1    4    4    0    0 -0.26679886611E+01  0.34494483589E+02 -0.89721189746E+01  0.35741942875E+02  0.00000000000E+00 0.  1.
</event>
<event>
 8    1  0.6901948E-009  0.1498310E+03  0.7561462E-02  0.1200681E+00
          4   -1    0    0  501    0  0.00000000000E+00  0.00000000000E+00  0.85660975031E+02  0.85660975031E+02  0.00000000000E+00 0. -1.
         -4   -1    0    0    0  501 -0.00000000000E+00 -0.00000000000E+00 -0.34104156011E+03  0.34104156011E+03  0.00000000000E+00 0.  1.
         25    2    1    2    0    0  0.12157590517E+03  0.22270428998E+02 -0.78966181433E+02  0.19276860963E+03  0.12508959319E+03 0.  0.
         23    2    1    2    0    0 -0.12157590517E+03 -0.22270428998E+02 -0.17641440365E+03  0.23393392551E+03  0.91248928562E+02 0.  0.
          5    1    3    3  502    0  0.19081101621E+02  0.40264197931E+02  0.20074468996E+02  0.49048453386E+02  0.41800000000E+01 0. -1.
         -5    1    3    3    0  502  0.10249480355E+03 -0.17993768932E+02 -0.99040650429E+02  0.14372015625E+03  0.41800000000E+01 0. -1.
        -11    1    4    4    0    0 -0.34533473341E+02  0.32910390371E+02 -0.36029795432E+02  0.59781274110E+02  0.00000000000E+00 0.  1.
         11    1    4    4    0    0 -0.87042431828E+02 -0.55180819370E+02 -0.14038460822E+03  0.17415265140E+03  0.00000000000E+00 0. -1.
</event>
<event>
 8    1  0.6901948E-009  0.1590605E+03  0.7561462E-02  0.1189762E+00
          1   -1    0    0  501    0  0.00000000000E+00  0.00000000000E+00  0.37913921787E+03  0.37913921787E+03  0.00000000000E+00 0. -1.
         -1   -1    0    0    0  501 -0.00000000000E+00 -0.00000000000E+00 -0.78000581580E+02  0.78000581580E+02  0.00000000000E+00 0.  1.
         25    2    1    2    0    0 -0.11512025056E+03 -0.66681299403E+02  0.15353277371E+03  0.23857664567E+03  0.12508970971E+03 0.  0.
         23    2    1    2    0    0  0.11512025056E+03  0.66681299403E+02  0.14760586258E+03  0.21856315378E+03  0.91012602111E+02 0.  0.
          5    1    3    3  502    0 -0.32270505015E+02 -0.67698788317E+02  0.13357921219E+03  0.15324943642E+03  0.41800000000E+01 0. -1.
         -5    1    3    3    0  502 -0.82849745545E+02  0.10174889142E+01  0.19953561516E+02  0.85327209246E+02  0.41800000000E+01 0. -1.
        -11    1    4    4    0    0  0.10825577179E+03  0.16628786087E+02  0.11272143079E+03  0.15716853888E+03  0.00000000000E+00 0.  1.
         11    1    4    4    0    0  0.68644787708E+01  0.50052513316E+02  0.34884431789E+02  0.61394614905E+02  0.00000000000E+00 0. -1.
</event>
<event>
 8    1  0.6901948E-009  0.2586408E+03  0.7561462E-02  0.1107963E+00
          2   -1    0    0  501    0  0.00000000000E+00  0.00000000000E+00  0.62081360384E+03  0.62081360384E+03  0.00000000000E+00 0. -1.
         -2   -1    0    0    0  501 -0.00000000000E+00 -0.00000000000E+00 -0.11655491410E+03  0.11655491410E+03  0.00000000000E+00 0.  1.
         25    2    1    2    0    0 -0.79963049553E+01  0.24517487903E+03  0.25068787542E+03  0.37238009454E+03  0.12509141350E+03 0.  0.
         23    2    1    2    0    0  0.79963049553E+01 -0.24517487903E+03  0.25357081433E+03  0.36498842339E+03  0.93507909475E+02 0.  0.
          5    1    3    3  502    0 -0.64753711744E+01  0.25814696230E+03  0.22192076673E+03  0.34051150301E+03  0.41800000000E+01 0. -1.
         -5    1    3    3    0  502 -0.15209337809E+01 -0.12972083274E+02  0.28767108683E+02  0.31868591528E+02  0.41800000000E+01 0. -1.
        -11    1    4    4    0    0  0.29387256911E+01 -0.81030064083E+02  0.27611322641E+02  0.85655662579E+02  0.00000000000E+00 0. -1.
         11    1    4    4    0    0  0.50575792642E+01 -0.16414481494E+03  0.22595949169E+03  0.27933276082E+03  0.00000000000E+00 0.  1.
</event>
<event>
 8    1  0.6901948E-009  0.1053703E+03  0.7561462E-02  0.1269392E+00
         -2   -1    0    0    0  501 -0.00000000000E+00  0.00000000000E+00  0.24436156235E+02  0.24436156235E+02  0.00000000000E+00 0.  1.
          2   -1    0    0  501    0  0.00000000000E+00 -0.00000000000E+00 -0.18460574169E+04  0.18460574169E+04  0.00000000000E+00 0. -1.
         25    2    1    2    0    0 -0.60993319066E+02 -0.35676901855E+02 -0.16868567504E+04  0.16929640174E+04  0.12509373007E+03 0.  0.
         23    2    1    2    0    0  0.60993319066E+02  0.35676901855E+02 -0.13476451027E+03  0.17752955581E+03  0.91445304210E+02 0.  0.
          5    1    3    3  502    0 -0.32461478018E+02  0.43965278399E+02 -0.87080592692E+03  0.87252915598E+03  0.41800000000E+01 0. -1.
         -5    1    3    3    0  502 -0.28531841048E+02 -0.79642180253E+02 -0.81605082350E+03  0.82043486138E+03  0.41800000000E+01 0. -1.
        -11    1    4    4    0    0  0.26834319618E+02  0.10595992097E+02  0.68983974687E+01  0.29663844079E+02  0.00000000000E+00 0.  1.
         11    1    4    4    0    0  0.34158999448E+02  0.25080909758E+02 -0.14166290774E+03  0.14786571174E+03  0.00000000000E+00 0. -1.
</event>
<event>
 8    1  0.6901948E-009  0.1244724E+03  0.7561462E-02  0.1235896E+00
         -2   -1    0    0    0  501 -0.00000000000E+00  0.00000000000E+00  0.18804290884E+02  0.18804290884E+02  0.00000000000E+00 0.  1.
          2   -1    0    0  501    0  0.00000000000E+00 -0.00000000000E+00 -0.87703815827E+03  0.87703815827E+03  0.00000000000E+00 0. -1.
         25    2    1    2    0    0  0.37679974489E+02  0.49331869456E+02 -0.39104750137E+03  0.41524421298E+03  0.12512471485E+03 0.  0.
         23    2    1    2    0    0 -0.37679974489E+02 -0.49331869456E+02 -0.46718636602E+03  0.48059823618E+03  0.94117746454E+02 0.  0.
          5    1    3    3  502    0 -0.11993813412E+02  0.78724835096E+02 -0.26081383326E+03  0.27273206493E+03  0.41800000000E+01 0.  1.
         -5    1    3    3    0  502  0.49673787901E+02 -0.29392965640E+02 -0.13023366810E+03  0.14251214805E+03  0.41800000000E+01 0.  1.
        -11    1    4    4    0    0 -0.68726505728E+02 -0.35300179262E+02 -0.35699438557E+03  0.36525939629E+03  0.00000000000E+00 0. -1.
         11    1    4    4    0    0  0.31046531239E+02 -0.14031690194E+02 -0.11019198045E+03  0.11533883989E+03  0.00000000000E+00 0.  1.
</event>
<event>
 8    1  0.6901948E-009  0.1336501E+03  0.7561462E-02  0.1222138E+00
         -2   -1    0    0    0  501 -0.00000000000E+00  0.00000000000E+00  0.95853763692E+02  0.95853763692E+02  0.00000000000E+00 0.  1.
          2   -1    0    0  501    0  0.00000000000E+00 -0.00000000000E+00 -0.19712962638E+03  0.19712962638E+03  0.00000000000E+00 0. -1.
         25    2    1    2    0    0  0.82713278067E+02  0.29663361204E+01 -0.38849199309E+02  0.15494503747E+03  0.12509364025E+03 0.  0.
         23    2    1    2    0    0 -0.82713278067E+02 -0.29663361204E+01 -0.62426663374E+02  0.13803835260E+03  0.91143913504E+02 0.  0.
          5    1    3    3  502    0  0.89679995384E+02 -0.44309240397E+02 -0.37649200623E+02  0.10696141858E+03  0.41800000000E+01 0.  1.
         -5    1    3    3    0  502 -0.69667173175E+01  0.47275576518E+02 -0.11999986857E+01  0.47983618893E+02  0.41800000000E+01 0.  1.
        -11    1    4    4    0    0  0.15891425032E+02  0.11416503082E+02  0.15372802876E+01  0.19627459409E+02  0.00000000000E+00 0.  1.
         11    1    4    4    0    0 -0.98604703098E+02 -0.14382839202E+02 -0.63963943662E+02  0.11841089319E+03  0.00000000000E+00 0. -1.
</event>
<event>
 8    1  0.6901948E-009  0.1036525E+03  0.7561462E-02  0.1272798E+00
          3   -1    0    0  501    0  0.00000000000E+00  0.00000000000E+00  0.48118244952E+02  0.48118244952E+02  0.00000000000E+00 0. -1.
         -3   -1    0    0    0  501 -0.00000000000E+00 -0.00000000000E+00 -0.29411340681E+03  0.29411340681E+03  0.00000000000E+00 0.  1.
         25    2    1    2    0    0 -0.40108006015E+01 -0.28679087220E+02 -0.17396372990E+03  0.21621712641E+03  0.12509152597E+03 0.  0.
         23    2    1    2    0    0  0.40108006015E+01  0.28679087220E+02 -0.72031431960E+02  0.12601452535E+03  0.99260046564E+02 0.  0.
          5    1    3    3  502    0 -0.31674912972E+02  0.29833872009E+02 -0.17942516553E+02  0.47252156893E+02  0.41800000000E+01 0. -1.
         -5    1    3    3    0  502  0.27664112371E+02 -0.58512959229E+02 -0.15602121335E+03  0.16896496952E+03  0.41800000000E+01 0. -1.
        -11    1    4    4    0    0 -0.36080978183E+02 -0.15328762688E+02 -0.10909108375E+02  0.40691726404E+02  0.00000000000E+00 0.  1.
         11    1    4    4    0    0  0.40091778784E+02  0.44007849908E+02 -0.61122323586E+02  0.85322798947E+02  0.00000000000E+00 0. -1.
</event>
<event>
 8    1  0.6901948E-009  0.1055141E+03  0.7561462E-02  0.1269110E+00
          1   -1    0    0  501    0  0.00000000000E+00  0.00000000000E+00  0.96468029167E+02  0.96468029167E+02  0.00000000000E+00 0. -1.
         -1   -1    0    0    0  501 -0.00000000000E+00 -0.00000000000E+00 -0.13667859638E+03  0.13667859638E+03  0.00000000000E+00 0.  1.
         25    2    1    2    0    0  0.29116396534E+02  0.13579900813E+02 -0.36107279286E+02  0.13410190229E+03  0.12508959320E+03 0.  0.
         23    2    1    2    0    0 -0.29116396534E+02 -0.13579900813E+02 -0.41032879277E+01  0.99044723256E+02  0.93599369548E+02 0.  0.
          5    1    3    3  502    0  0.48283459554E+01  0.68195256683E+02 -0.12106419769E+02  0.69555328756E+02  0.41800000000E+01 0. -1.
         -5    1    3    3    0  502  0.24288050579E+02 -0.54615355870E+02 -0.24000859517E+02  0.64546573536E+02  0.41800000000E+01 0. -1.
        -11    1    4    4    0    0 -0.51888677994E+02  0.64505056048E+01 -0.29013219835E+02  0.59798084014E+02  0.00000000000E+00 0.  1.
         11    1    4    4    0    0  0.22772281460E+02 -0.20030406418E+02  0.24909931908E+02  0.39246639242E+02  0.00000000000E+00 0. -1.
</event>
<event>
 7    1  0.6901948E-009  0.9642456E+02  0.7561462E-02  0.1287999E+00
         -2   -1    0    0    0  501 -0.00000000000E+00  0.00000000000E+00  0.19468834192E+02  0.19468834192E+02  0.00000000000E+00 0.  1.
          2   -1    0    0  501    0  0.00000000000E+00 -0.00000000000E+00 -0.54853245381E+03  0.54853245381E+03  0.00000000000E+00 0. -1.
         23    2    1    2    0    0  0.92285061416E+01  0.11680194134E+02 -0.15351458374E+03  0.17185199560E+03  0.75794384420E+02 0.  0.
          5    1    1    2  502    0  0.25117444761E+02  0.46887441220E+02 -0.11350529067E+03  0.12542025987E+03  0.41800000000E+01 0. -1.
         -5    1    1    2    0  502 -0.34345950902E+02 -0.58567635354E+02 -0.26204374521E+03  0.27072903253E+03  0.41800000000E+01 0. -1.
        -11    1    3    3    0    0  0.39852106082E+02  0.76884990533E+01 -0.53344662130E+02  0.67029518532E+02  0.00000000000E+00 0.  1.
         11    1    3    3    0    0 -0.30623599940E+02  0.39916950807E+01 -0.10016992161E+03  0.10482247707E+03  0.00000000000E+00 0. -1.
</event>
<event>
 8    1  0.6901948E-009  0.2845701E+03  0.7561462E-02  0.1093219E+00
          1   -1    0    0  501    0  0.00000000000E+00  0.00000000000E+00  0.11821841352E+04  0.11821841352E+04  0.00000000000E+00 0. -1.
         -1   -1    0    0    0  501 -0.00000000000E+00 -0.00000000000E+00 -0.89770675838E+02  0.89770675838E+02  0.00000000000E+00 0.  1.
         25    2    1    2    0    0  0.42157754691E+02 -0.26487136844E+03  0.84641695249E+03  0.89666263372E+03  0.12509237844E+03 0.  0.
         23    2    1    2    0    0 -0.42157754691E+02  0.26487136844E+03  0.24599650690E+03  0.37529217734E+03  0.91628701116E+02 0.  0.
          5    1    3    3  502    0  0.73050700965E+02 -0.12782316542E+03  0.32836784216E+03  0.35988620242E+03  0.41800000000E+01 0. -1.
         -5    1    3    3    0  502 -0.30892946273E+02 -0.13704820302E+03  0.51804911033E+03  0.53677643130E+03  0.41800000000E+01 0. -1.
        -11    1    4    4    0    0  0.24546094441E+02  0.41783072058E+02  0.26185883206E+02  0.55082087308E+02  0.00000000000E+00 0. -1.
         11    1    4    4    0    0 -0.66703849133E+02  0.22308829638E+03  0.21981062369E+03  0.32021009003E+03  0.00000000000E+00 0.  1.
</event>
<event>
 8    1  0.6901948E-009  0.1170639E+03  0.7561462E-02  0.1248021E+00
          1   -1    0    0  501    0  0.00000000000E+00  0.00000000000E+00  0.92318894227E+03  0.92318894227E+03  0.00000000000E+00 0. -1.
         -1   -1    0    0    0  501 -0.00000000000E+00 -0.00000000000E+00 -0.20752562236E+02  0.20752562236E+02  0.00000000000E+00 0.  1.
         25    2    1    2    0    0 -0.65451585476E+02 -0.13422870373E+02  0.67973244305E+03  0.69436792112E+03  0.12508609937E+03 0.  0.
         23    2    1    2    0    0  0.65451585476E+02  0.13422870373E+02  0.22270393699E+03  0.24957358339E+03  0.90696452440E+02 0.  0.
          5    1    3    3  502    0 -0.60936381187E+02  0.37165971158E+02  0.55560138057E+03  0.56018293302E+03  0.41800000000E+01 0.  1.
         -5    1    3    3    0  502 -0.45152042895E+01 -0.50588841531E+02  0.12413106249E+03  0.13418498810E+03  0.41800000000E+01 0.  1.
        -11    1    4    4    0    0  0.77481996954E+02 -0.16673646504E+02  0.17220430872E+03  0.18956738718E+03  0.00000000000E+00 0. -1.
         11    1    4    4    0    0 -0.12030411478E+02  0.30096516877E+02  0.50499628263E+02  0.60006196207E+02  0.00000000000E+00 0.  1.
</event>
<event>
 8    1  0.6901948E-009  0.1538771E+03  0.7561462E-02  0.1195788E+00
          1   -1    0    0  501    0  0.00000000000E+00  0.00000000000E+00  0.67624592721E+03  0.67624592721E+03  0.00000000000E+00 0. -1.
         -1   -1    0    0    0  501 -0.00000000000E+00 -0.00000000000E+00 -0.47380094386E+02  0.47380094386E+02  0.00000000000E+00 0.  1.
         25    2    1    2    0    0 -0.22863009582E+02 -0.12335721489E+03  0.19396446115E+03  0.26269823910E+03  0.12509369674E+03 0.  0.
         23    2    1    2    0    0  0.22863009582E+02  0.12335721489E+03  0.43490137168E+03  0.46092778250E+03  0.87037336349E+02 0.  0.
          5    1    3    3  502    0  0.48650507361E+01  0.21492785862E+02  0.57519223991E+02  0.61737687771E+02  0.41800000000E+01 0. -1.
         -5    1    3    3    0  502 -0.27728060318E+02 -0.14485000075E+03  0.13644523716E+03  0.20096055133E+03  0.41800000000E+01 0. -1.
        -11    1    4    4    0    0  0.41881124400E+02  0.76462882509E+02  0.16802455165E+03  0.18929567069E+03  0.00000000000E+00 0.  1.
         11    1    4    4    0    0 -0.19018114818E+02  0.46894332384E+02  0.26687682002E+03  0.27163211181E+03  0.00000000000E+00 0. -1.
</event>
<event>
 8    1  0.6901948E-009  0.1438314E+03  0.7561462E-02  0.1208265E+00
         -3   -1    0    0    0  501 -0.00000000000E+00  0.00000000000E+00  0.14565364944E+03  0.14565364944E+03  0.00000000000E+00 0.  1.
          3   -1    0    0  501    0  0.00000000000E+00 -0.00000000000E+00 -0.14838214590E+03  0.14838214590E+03  0.00000000000E+00 0. -1.
         25    2    1    2    0    0 -0.25086849992E+02  0.93835050197E+02 -0.13940051882E+02  0.15898780393E+03  0.12509368515E+03 0.  0.
         23    2    1    2    0    0  0.25086849992E+02 -0.93835050197E+02  0.11211555418E+02  0.13504799141E+03  0.93155216281E+02 0.  0.
          5    1    3    3  502    0 -0.61349875663E+02  0.99723751311E+02  0.53554781014E+01  0.11728080561E+03  0.41800000000E+01 0. -1.
         -5    1    3    3    0  502  0.36263025671E+02 -0.58887011137E+01 -0.19295529984E+02  0.41706998322E+02  0.41800000000E+01 0. -1.
        -11    1    4    4    0    0  0.57233790222E+02 -0.36755380420E+02  0.14136577495E+02  0.69473070727E+02  0.00000000000E+00 0. -1.
         11    1    4    4    0    0 -0.32146940230E+02 -0.57079669777E+02 -0.29250220769E+01  0.65574920680E+02  0.00000000000E+00 0.  1.
</event>
<event>
 8    1  0.6901948E-009  0.1102425E+03  0.7561462E-02  0.1260121E+00
          2   -1    0    0  501    0  0.00000000000E+00  0.00000000000E+00  0.71366108772E+03  0.71366108772E+03  0.00000000000E+00 0. -1.
         -2   -1    0    0    0  501 -0.00000000000E+00 -0.00000000000E+00 -0.24326694202E+02  0.24326694202E+02  0.00000000000E+00 0.  1.
         25    2    1    2    0    0 -0.42445773506E+02 -0.57395832327E+02  0.30936274889E+03  0.34124595618E+03  0.12509023523E+03 0.  0.
         23    2    1    2    0    0  0.42445773506E+02  0.57395832327E+02  0.37997164463E+03  0.39674182574E+03  0.89048864764E+02 0.  0.
          5    1    3    3  502    0  0.28338955525E+02 -0.29440588505E+02  0.21996062038E+03  0.22376324893E+03  0.41800000000E+01 0. -1.
         -5    1    3    3    0  502 -0.70784729032E+02 -0.27955243822E+02  0.89402128510E+02  0.11748270725E+03  0.41800000000E+01 0. -1.
        -11    1    4    4    0    0 -0.16936445880E+02  0.36498195947E+02  0.72738082975E+02  0.83125147948E+02  0.00000000000E+00 0.  1.
         11    1    4    4    0    0  0.59382219386E+02  0.20897636380E+02  0.30723356165E+03  0.31361667780E+03  0.00000000000E+00 0. -1.
</event>
<event>
 8    1  0.6901948E-009  0.1252464E+03  0.7561462E-02  0.1234685E+00
         -3   -1    0    0    0  501 -0.00000000000E+00  0.00000000000E+00  0.63144255407E+03  0.63144255407E+03  0.00000000000E+00 0.  1.
          3   -1    0    0  501    0  0.00000000000E+00 -0.00000000000E+00 -0.40833567367E+02  0.40833567367E+02  0.00000000000E+00 0. -1.
         25    2    1    2    0    0 -0.96169608205E+02  0.59357745726E+01  0.17416224694E+03  0.23508349417E+03  0.12509170240E+03 0.  0.
         23    2    1    2    0    0  0.96169608205E+02 -0.59357745726E+01  0.41644673976E+03  0.43719262726E+03  0.91791499156E+02 0.  0.
          5    1    3    3  502    0 -0.12442050628E+03  0.10038821299E+02  0.11740345550E+03  0.17141261354E+03  0.41800000000E+01 0. -1.
         -5    1    3    3    0  502  0.28250898077E+02 -0.41030467263E+01  0.56758791441E+02  0.63670880632E+02  0.41800000000E+01 0. -1.
        -11    1    4    4    0    0  0.82447122514E+02 -0.20036158831E+01  0.41468878067E+03  0.42281003690E+03  0.00000000000E+00 0.  1.
         11    1    4    4    0    0  0.13722485691E+02 -0.39321586895E+01  0.17579590868E+01  0.14382590366E+02  0.00000000000E+00 0. -1.
</event>
<event>
 8    1  0.6901948E-009  0.1077810E+03  0.7561462E-02  0.1264735E+00
          2   -1    0    0  501    0  0.00000000000E+00  0.00000000000E+00  0.61693300985E+03  0.61693300985E+03  0.00000000000E+00 0. -1.
         -2   -1    0    0    0  501 -0.00000000000E+00 -0.00000000000E+00 -0.22832178228E+02  0.22832178228E+02  0.00000000000E+00 0.  1.
         25    2    1    2    0    0  0.34376848854E+02 -0.10304912632E+02  0.24580290098E+03  0.27811655578E+03  0.12506715598E+03 0.  0.
         23    2    1    2    0    0 -0.34376848854E+02  0.10304912632E+02  0.34829793064E+03  0.36164863230E+03  0.90500418750E+02 0.  0.
          5    1    3    3  502    0 -0.96576866007E+01 -0.56533395828E+02  0.67454571889E+02  0.88639085188E+02  0.41800000000E+01 0.  1.
         -5    1    3    3    0  502  0.44034535455E+02  0.46228483196E+02  0.17834832909E+03  0.18947747059E+03  0.41800000000E+01 0.  1.
        -11    1    4    4    0    0 -0.10047912962E+02 -0.38367960441E+02  0.10264445604E+03  0.11004065294E+03  0.00000000000E+00 0.  1.
         11    1    4    4    0    0 -0.24328935893E+02  0.48672873073E+02  0.24565347460E+03  0.25160797936E+03  0.00000000000E+00 0. -1.
</event>
<event>
 7    1  0.6901948E-009  0.8591973E+02  0.7561462E-02  0.1313045E+00
         -2   -1    0    0    0  501 -0.00000000000E+00  0.00000000000E+00  0.38299169361E+03  0.38299169361E+03  0.00000000000E+00 0.  1.
          2   -1    0    0  501    0  0.00000000000E+00 -0.00000000000E+00 -0.42282358193E+02  0.42282358193E+02  0.00000000000E+00 0. -1.
         23    2    1    2    0    0  0.27949759522E+02  0.60142608086E+02  0.15718307050E+03  0.19344437939E+03  0.91191490294E+02 0.  0.
          5    1    1    2  502    0 -0.44767808588E+02 -0.59283223970E+02  0.19653221737E+03  0.21014528830E+03  0.41800000000E+01 0.  1.
         -5    1    1    2    0  502  0.16818049066E+02 -0.85938411639E+00 -0.13005952448E+02  0.21684384116E+02  0.41800000000E+01 0.  1.
        -11    1    3    3    0    0  0.38353358932E+02  0.31569434043E+02  0.15521754133E+03  0.16297268005E+03  0.00000000000E+00 0.  1.
         11    1    3    3    0    0 -0.10403599410E+02  0.28573174043E+02  0.19655291664E+01  0.30471699336E+02  0.00000000000E+00 0. -1.
</event>
<event>
 8    1  0.6901948E-009  0.9284792E+02  0.7561462E-02  0.1296098E+00
         -1   -1    0    0    0  501 -0.00000000000E+00  0.00000000000E+00  0.62273259593E+02  0.62273259593E+02  0.00000000000E+00 0.  1.
          1   -1    0    0  501    0  0.00000000000E+00 -0.00000000000E+00 -0.26506934130E+03  0.26506934130E+03  0.00000000000E+00 0. -1.
         25    2    1    2    0    0 -0.15509632245E+02  0.15162372065E+02 -0.19612758719E+03  0.23363124482E+03  0.12508829634E+03 0.  0.
         23    2    1    2    0    0  0.15509632245E+02 -0.15162372065E+02 -0.66684945196E+01  0.93711356074E+02  0.90922512169E+02 0.  0.
          5    1    3    3  502    0  0.20050843543E+02 -0.44740447824E+02 -0.42985880536E+02  0.65337602678E+02  0.41800000000E+01 0.  1.
         -5    1    3    3    0  502 -0.35560475788E+02  0.59902819889E+02 -0.15314170665E+03  0.16829364214E+03  0.41800000000E+01 0.  1.
        -11    1    4    4    0    0  0.27263990397E+02  0.17223728492E+02  0.29538110749E+02  0.43731933209E+02  0.00000000000E+00 0.  1.
         11    1    4    4    0    0 -0.11754358152E+02 -0.32386100557E+02 -0.36206605269E+02  0.49979422865E+02  0.00000000000E+00 0. -1.
</event>
<event>
 8    1  0.6901948E-009  0.2165197E+03  0.7561462E-02  0.1136505E+00
         -2   -1    0    0    0  501 -0.00000000000E+00  0.00000000000E+00  0.79873173817E+02  0.79873173817E+02  0.00000000000E+00 0.  1.
          2   -1    0    0  501    0  0.00000000000E+00 -0.00000000000E+00 -0.62593789973E+03  0.62593789973E+03  0.00000000000E+00 0. -1.
         25    2    1    2    0    0  0.19053431034E+03 -0.41482480238E+02 -0.30844964528E+03  0.38576676308E+03  0.12510272675E+03 0.  0.
         23    2    1    2    0    0 -0.19053431034E+03  0.41482480238E+02 -0.23761508063E+03  0.32004431046E+03  0.89125274374E+02 0.  0.
          5    1    3    3  502    0  0.61278894382E+01  0.31361840685E+02 -0.57494327037E+02  0.65910440156E+02  0.41800000000E+01 0.  1.
         -5    1    3    3    0  502  0.18440642090E+03 -0.72844320923E+02 -0.25095531824E+03  0.31985632292E+03  0.41800000000E+01 0.  1.
        -11    1    4    4    0    0 -0.94451329819E+02  0.48464012809E+02 -0.17647389984E+03  0.20594380682E+03  0.00000000000E+00 0.  1.
         11    1    4    4    0    0 -0.96082980523E+02 -0.69815325713E+01 -0.61141180789E+02  0.11410050364E+03  0.00000000000E+00 0. -1.
</event>
<event>
 8    1  0.6901948E-009  0.1827448E+03  0.7561462E-02  0.1165173E+00
          1   -1    0    0  501    0  0.00000000000E+00  0.00000000000E+00  0.43664238480E+03  0.43664238480E+03  0.00000000000E+00 0. -1.
         -1   -1    0    0    0  501 -0.00000000000E+00 -0.00000000000E+00 -0.10339301530E+03  0.10339301530E+03  0.00000000000E+00 0.  1.
         25    2    1    2    0    0 -0.14547273101E+03  0.67715930839E+02  0.28383801359E+03  0.34922697868E+03  0.12509077471E+03 0.  0.
         23    2    1    2    0    0  0.14547273101E+03 -0.67715930839E+02  0.49411355909E+02  0.19080842141E+03  0.90656543239E+02 0.  0.
          5    1    3    3  502    0 -0.53885073392E+02 -0.31234625997E+02  0.13267052908E+03  0.14662245627E+03  0.41800000000E+01 0.  1.
         -5    1    3    3    0  502 -0.91587657622E+02  0.98950556836E+02  0.15116748451E+03  0.20260452241E+03  0.41800000000E+01 0.  1.
        -11    1    4    4    0    0  0.46346683384E+02 -0.48714439768E+02 -0.17789322182E+02  0.69552654057E+02  0.00000000000E+00 0.  1.
         11    1    4    4    0    0  0.99126047629E+02 -0.19001491071E+02  0.67200678091E+02  0.12125576736E+03  0.00000000000E+00 0. -1.
</event>
<event>
 8    1  0.6901948E-009  0.1134794E+03  0.7561462E-02  0.1254259E+00
          1   -1    0    0  501    0  0.00000000000E+00  0.00000000000E+00  0.11426637896E+03  0.11426637896E+03  0.00000000000E+00 0. -1.
         -1   -1    0    0    0  501 -0.00000000000E+00 -0.00000000000E+00 -0.15206485767E+03  0.15206485767E+03  0.00000000000E+00 0.  1.
         25    2    1    2    0    0  0.42333655651E+02  0.16073450679E+02  0.38445796679E+02  0.13847630736E+03  0.12508842552E+03 0.  0.
         23    2    1    2    0    0 -0.42333655651E+02 -0.16073450679E+02 -0.76244275388E+02  0.12785492927E+03  0.92104284325E+02 0.  0.
          5    1    3    3  502    0 -0.21234785860E+02  0.54245643273E+02  0.11868145113E+02  0.59597241656E+02  0.41800000000E+01 0.  1.
         -5    1    3    3    0  502  0.63568441511E+02 -0.38172192594E+02  0.26577651566E+02  0.78879065704E+02  0.41800000000E+01 0.  1.
        -11    1    4    4    0    0 -0.66889688467E+02 -0.19058246023E+02 -0.30698787134E+02  0.76025408228E+02  0.00000000000E+00 0. -1.
         11    1    4    4    0    0  0.24556032816E+02  0.29847953442E+01 -0.45545488253E+02  0.51829521039E+02  0.00000000000E+00 0.  1.
</event>
<event>
 8    1  0.6901948E-009  0.1063470E+03  0.7561462E-02  0.1267488E+00
         -1   -1    0    0    0  501 -0.00000000000E+00  0.00000000000E+00  0.59420621739E+02  0.59420621739E+02  0.00000000000E+00 0.  1.
          1   -1    0    0  501    0  0.00000000000E+00 -0.00000000000E+00 -0.26610454207E+03  0.26610454207E+03  0.00000000000E+00 0. -1.
         25    2    1    2    0    0  0.15415255541E+02 -0.13229370821E+02 -0.18932385114E+03  0.22782524998E+03  0.12509267591E+03 0.  0.
         23    2    1    2    0    0 -0.15415255541E+02  0.13229370821E+02 -0.17360069198E+02  0.97699913827E+02  0.93974756203E+02 0.  0.
          5    1    3    3  502    0 -0.52551132522E+02 -0.15162432091E+02 -0.11241683929E+03  0.12508612645E+03  0.41800000000E+01 0.  1.
         -5    1    3    3    0  502  0.67966388063E+02  0.19330612695E+01 -0.76907011849E+02  0.10273912353E+03  0.41800000000E+01 0.  1.
        -11    1    4    4    0    0  0.15208346908E+02 -0.31806951980E+02  0.10145407573E+02  0.36686582080E+02  0.00000000000E+00 0.  1.
         11    1    4    4    0    0 -0.30623602449E+02  0.45036322801E+02 -0.27505476771E+02  0.61013331746E+02  0.00000000000E+00 0. -1.
</event>
<event>
 8    1  0.6901948E-009  0.1201641E+03  0.7561462E-02  0.1242827E+00
          2   -1    0    0  501    0  0.00000000000E+00  0.00000000000E+00  0.23479352560E+03  0.23479352560E+03  0.00000000000E+00 0. -1.
         -2   -1    0    0    0  501 -0.00000000000E+00 -0.00000000000E+00 -0.99736748788E+02  0.99736748788E+02  0.00000000000E+00 0.  1.
         25    2    1    2    0    0 -0.92796159996E+02 -0.46440970183E+02  0.11564013222E+03  0.19946878490E+03  0.12508902809E+03 0.  0.
         23    2    1    2    0    0  0.92796159996E+02  0.46440970183E+02  0.19416644597E+02  0.13506148949E+03  0.84241965996E+02 0.  0.
          5    1    3    3  502    0 -0.97214208521E+02 -0.61532566488E+02  0.39661870170E+02  0.12176779304E+03  0.41800000000E+01 0.  1.
         -5    1    3    3    0  502  0.44180485254E+01  0.15091596305E+02  0.75978262047E+02  0.77700991857E+02  0.41800000000E+01 0.  1.
        -11    1    4    4    0    0  0.41188862866E+02  0.39119984799E+02 -0.29123322713E+02  0.63836224518E+02  0.00000000000E+00 0.  1.
         11    1    4    4    0    0  0.51607297130E+02  0.73209853840E+01  0.48539967311E+02  0.71225264974E+02  0.00000000000E+00 0. -1.
</event>
<event>
 8    1  0.6901948E-009  0.1140434E+03  0.7561462E-02  0.1253260E+00
          1   -1    0    0  501    0  0.00000000000E+00  0.00000000000E+00  0.49227421212E+03  0.49227421212E+03  0.00000000000E+00 0. -1.
         -1   -1    0    0    0  501 -0.00000000000E+00 -0.00000000000E+00 -0.30611705318E+02  0.30611705318E+02  0.00000000000E+00 0.  1.
         25    2    1    2    0    0  0.22622980140E+02  0.54647619895E+02  0.23626924375E+03  0.27378358457E+03  0.12504452826E+03 0.  0.
         23    2    1    2    0    0 -0.22622980140E+02 -0.54647619895E+02  0.22539326305E+03  0.24910233286E+03  0.88043668820E+02 0.  0.
          5    1    3    3  502    0  0.51692076615E+02  0.74018686376E+02  0.10825435416E+03  0.14102238940E+03  0.41800000000E+01 0.  1.
         -5    1    3    3    0  502 -0.29069096475E+02 -0.19371066480E+02  0.12801488959E+03  0.13276119517E+03  0.41800000000E+01 0.  1.
        -11    1    4    4    0    0 -0.81728112099E+01 -0.76167936227E+02  0.13672729868E+03  0.15672492960E+03  0.00000000000E+00 0. -1.
         11    1    4    4    0    0 -0.14450168930E+02  0.21520316332E+02  0.88665964367E+02  0.92377403267E+02  0.00000000000E+00 0.  1.
</event>
<event>
 8    1  0.6901948E-009  0.1432159E+03  0.7561462E-02  0.1209066E+00
          2   -1    0    0  501    0  0.00000000000E+00  0.00000000000E+00  0.90057290494E+03  0.90057290494E+03  0.00000000000E+00 0. -1.
         -2   -1    0    0    0  501 -0.00000000000E+00 -0.00000000000E+00 -0.33128065588E+02  0.33128065588E+02  0.00000000000E+00 0.  1.
         25    2    1    2    0    0 -0.37690284427E+01 -0.13145661591E+03  0.51051393454E+03  0.54181384718E+03  0.12507086071E+03 0.  0.
         23    2    1    2    0    0  0.37690284427E+01  0.13145661591E+03  0.35693090481E+03  0.39188712334E+03  0.94237992292E+02 0.  0.
          5    1    3    3  502    0  0.15798259965E+02 -0.88325713242E+02  0.47243625292E+03  0.48089967988E+03  0.41800000000E+01 0. -1.
         -5    1    3    3    0  502 -0.19567288407E+02 -0.43130902666E+02  0.38077681618E+02  0.60914167300E+02  0.41800000000E+01 0. -1.
        -11    1    4    4    0    0 -0.26528142704E+02  0.19093512627E+02  0.28214463503E+02  0.43178241401E+02  0.00000000000E+00 0.  1.
         11    1    4    4    0    0  0.30297171147E+02  0.11236310328E+03  0.32871644131E+03  0.34870888194E+03  0.00000000000E+00 0. -1.
</event>
<event>
 8    1  0.6901948E-009  0.8403432E+02  0.7561462E-02  0.1317977E+00
         -1   -1    0    0    0  501 -0.00000000000E+00  0.00000000000E+00  0.11126862828E+03  0.11126862828E+03  0.00000000000E+00 0.  1.
          1   -1    0    0  501    0  0.00000000000E+00 -0.00000000000E+00 -0.14232228290E+03  0.14232228290E+03  0.00000000000E+00 0. -1.
         25    2    1    2    0    0 -0.15882112342E+02  0.57781047581E+02 -0.37886344654E+02  0.14378301673E+03  0.12508912757E+03 0.  0.
         23    2    1    2    0    0  0.15882112342E+02 -0.57781047581E+02  0.68326900305E+01  0.10980789445E+03  0.91761631842E+02 0.  0.
          5    1    3    3  502    0 -0.33378461036E+02  0.73852670875E+02  0.17812584387E+02  0.83084891641E+02  0.41800000000E+01 0.  1.
         -5    1    3    3    0  502  0.17496348694E+02 -0.16071623294E+02 -0.55698929041E+02  0.60698125089E+02  0.41800000000E+01 0.  1.
        -11    1    4    4    0    0  0.59377822701E+01 -0.49492909262E+02 -0.38295431815E+02  0.62859728152E+02  0.00000000000E+00 0. -1.
         11    1    4    4    0    0  0.99443300717E+01 -0.82881383195E+01  0.45128121845E+02  0.46948166297E+02  0.00000000000E+00 0.  1.
</event>
<event>
 8    1  0.6901948E-009  0.1739088E+03  0.7561462E-02  0.1173832E+00
          1   -1    0    0  501    0  0.00000000000E+00  0.00000000000E+00  0.44967300296E+03  0.44967300296E+03  0.00000000000E+00 0.  1.
         -1   -1    0    0    0  501 -0.00000000000E+00 -0.00000000000E+00 -0.90479661372E+02  0.90479661372E+02  0.00000000000E+00 0. -1.
         25    2    1    2    0    0 -0.15030482418E+03  0.12891210904E+02  0.84451520096E+02  0.21339595503E+03  0.12509216956E+03 0.  0.
         23    2    1    2    0    0  0.15030482418E+03 -0.12891210904E+02  0.27474182149E+03  0.32675670930E+03  0.92353424985E+02 0.  0.
          5    1    3    3  502    0 -0.64595748031E+02  0.53560676938E+02  0.83467882678E+02  0.11843021834E+03  0.41800000000E+01 0. -1.
         -5    1    3    3    0  502 -0.85709076152E+02 -0.40669466034E+02  0.98363741846E+00  0.94965736689E+02  0.41800000000E+01 0. -1.
        -11    1    4    4    0    0  0.16421610524E+02  0.24807754891E+02  0.94596017212E+02  0.99164007923E+02  0.00000000000E+00 0.  1.
         11    1    4    4    0    0  0.13388321366E+03 -0.37698965795E+02  0.18014580428E+03  0.22759270138E+03  0.00000000000E+00 0. -1.
</event>
<event>
 8    1  0.6901948E-009  0.6529956E+02  0.7561462E-02  0.1376848E+00
         -1   -1    0    0    0  501 -0.00000000000E+00  0.00000000000E+00  0.60851543308E+02  0.60851543308E+02  0.00000000000E+00 0.  1.
          1   -1    0    0  501    0  0.00000000000E+00 -0.00000000000E+00 -0.19347456622E+03  0.19347456622E+03  0.00000000000E+00 0. -1.
         25    2    1    2    0    0 -0.18732576780E+02 -0.94963092081E+01 -0.74930584190E+02  0.14732100695E+03  0.12509115604E+03 0.  0.
         23    2    1    2    0    0  0.18732576780E+02  0.94963092081E+01 -0.57692438720E+02  0.10700510258E+03  0.87638947800E+02 0.  0.
          5    1    3    3  502    0 -0.23957234039E+02 -0.24533044569E+02 -0.10636764286E+03  0.11183634108E+03  0.41800000000E+01 0. -1.
         -5    1    3    3    0  502  0.52246572594E+01  0.15036735361E+02  0.31437058670E+02  0.35484665865E+02  0.41800000000E+01 0. -1.
        -11    1    4    4    0    0  0.41191087508E+02 -0.17262756983E+02 -0.66532043146E+01  0.45154995255E+02  0.00000000000E+00 0.  1.
         11    1    4    4    0    0 -0.22458510728E+02  0.26759066191E+02 -0.51039234405E+02  0.61850107326E+02  0.00000000000E+00 0. -1.
</event>
<event>
 8    1  0.6901948E-009  0.1021956E+03  0.7561462E-02  0.1275745E+00
          1   -1    0    0  501    0  0.00000000000E+00  0.00000000000E+00  0.10397172774E+03  0.10397172774E+03  0.00000000000E+00 0. -1.
         -1   -1    0    0    0  501 -0.00000000000E+00 -0.00000000000E+00 -0.12743812823E+03  0.12743812823E+03  0.00000000000E+00 0.  1.
         25    2    1    2    0    0 -0.56226874357E+01 -0.10389437240E+02  0.21325986016E+02  0.12744465292E+03  0.12509111422E+03 0.  0.
         23    2    1    2    0    0  0.56226874357E+01  0.10389437240E+02 -0.44792386502E+02  0.10396520305E+03  0.93074435461E+02 0.  0.
          5    1    3    3  502    0 -0.27445382549E+02  0.49042152141E+02 -0.90875652039E+01  0.57082729010E+02  0.41800000000E+01 0. -1.
         -5    1    3    3    0  502  0.21822695113E+02 -0.59431589381E+02  0.30413551220E+02  0.70361923909E+02  0.41800000000E+01 0. -1.
        -11    1    4    4    0    0  0.28466281768E+02 -0.27991218641E+02  0.10838474626E+01  0.39937604385E+02  0.00000000000E+00 0.  1.
         11    1    4    4    0    0 -0.22843594332E+02  0.38380655882E+02 -0.45876233965E+02  0.64027598664E+02  0.00000000000E+00 0. -1.
</event>
<event>
 8    1  0.6901948E-009  0.1209580E+03  0.7561462E-02  0.1241525E+00
         -2   -1    0    0    0  501 -0.00000000000E+00  0.00000000000E+00  0.27298606920E+02  0.27298606920E+02  0.00000000000E+00 0. -1.
          2   -1    0    0  501    0  0.00000000000E+00 -0.00000000000E+00 -0.75961568210E+03  0.75961568210E+03  0.00000000000E+00 0.  1.
         25    2    1    2    0    0 -0.78676455417E+02  0.47241754376E+02 -0.46741779197E+03  0.49249218144E+03  0.12508952209E+03 0.  0.
         23    2    1    2    0    0  0.78676455417E+02 -0.47241754376E+02 -0.26489928321E+03  0.29442210758E+03  0.89949870450E+02 0.  0.
          5    1    3    3  502    0 -0.67854260165E+02 -0.15008154098E+02 -0.36866955732E+03  0.37518550106E+03  0.41800000000E+01 0.  1.
         -5    1    3    3    0  502 -0.10822195252E+02  0.62249908474E+02 -0.98748234656E+02  0.11730668038E+03  0.41800000000E+01 0.  1.
        -11    1    4    4    0    0  0.48338373778E+02 -0.59144436946E+02 -0.97388919479E+02  0.12377101615E+03  0.00000000000E+00 0. -1.
         11    1    4    4    0    0  0.30338081639E+02  0.11902682570E+02 -0.16751036373E+03  0.17065109143E+03  0.00000000000E+00 0.  1.
</event>
<event>
 7    1  0.6901948E-009  0.9946433E+02  0.7561462E-02  0.1281426E+00
          1   -1    0    0  501    0  0.00000000000E+00  0.00000000000E+00  0.11651513807E+04  0.11651513807E+04  0.00000000000E+00 0. -1.
         -1   -1    0    0    0  501 -0.00000000000E+00 -0.00000000000E+00 -0.15020801116E+02  0.15020801116E+02  0.00000000000E+00 0.  1.
         23    2    1    2    0    0 -0.31461554228E+02  0.32009066814E+02  0.21451000113E+03  0.23515198059E+03  0.85249654774E+02 0.  0.
          5    1    1    2  502    0 -0.34510019345E+01  0.30572160137E+02  0.71845904593E+02  0.78267955107E+02  0.41800000000E+01 0.  1.
         -5    1    1    2    0  502  0.34912556163E+02 -0.62581226951E+02  0.86377467385E+03  0.86675224611E+03  0.41800000000E+01 0.  1.
        -11    1    3    3    0    0  0.93462949875E+01 -0.24598181399E+02  0.51495644990E+02  0.57829276418E+02  0.00000000000E+00 0.  1.
         11    1    3    3    0    0 -0.40807849216E+02  0.56607248213E+02  0.16301435614E+03  0.17732270417E+03  0.00000000000E+00 0. -1.
</event>
<event>
 8    1  0.6901948E-009  0.1242532E+03  0.7561462E-02  0.1236241E+00
         -1   -1    0    0    0  501 -0.00000000000E+00  0.00000000000E+00  0.53262105456E+03  0.53262105456E+03  0.00000000000E+00 0.  1.
          1   -1    0    0  501    0  0.00000000000E+00 -0.00000000000E+00 -0.36079302785E+02  0.36079302785E+02  0.00000000000E+00 0. -1.
         25    2    1    2    0    0 -0.83019293158E+02  0.14059684863E+02  0.31663160545E+03  0.35070457884E+03  0.12509296652E+03 0.  0.
         23    2    1    2    0    0  0.83019293158E+02 -0.14059684863E+02  0.17991014632E+03  0.21799577851E+03  0.89803234469E+02 0.  0.
          5    1    3    3  502    0  0.24379535492E+02  0.25260188887E+02  0.38256966420E+02  0.52091331074E+02  0.41800000000E+01 0.  1.
         -5    1    3    3    0  502 -0.10739882865E+03 -0.11200504024E+02  0.27837463903E+03  0.29861324776E+03  0.41800000000E+01 0.  1.
        -11    1    4    4    0    0  0.44276188847E+01  0.19234192949E+02  0.97054952193E+02  0.99041515198E+02  0.00000000000E+00 0.  1.
         11    1    4    4    0    0  0.78591674273E+02 -0.33293877811E+02  0.82855194130E+02  0.11895426331E+03  0.00000000000E+00 0. -1.
</event>
<event>
 8    1  0.6901948E-009  0.8278064E+02  0.7561462E-02  0.1321341E+00
         -3   -1    0    0    0  501 -0.00000000000E+00  0.00000000000E+00  0.77134443226E+03  0.77134443226E+03  0.00000000000E+00 0.  1.
          3   -1    0    0  501    0  0.00000000000E+00 -0.00000000000E+00 -0.20284353793E+02  0.20284353793E+02  0.00000000000E+00 0. -1.
         25    2    1    2    0    0 -0.36275700383E+02 -0.20299160664E+02  0.40413815777E+03  0.42509153764E+03  0.12508869831E+03 0.  0.
         23    2    1    2    0    0  0.36275700383E+02  0.20299160664E+02  0.34692192070E+03  0.36653724841E+03  0.11075537483E+03 0.  0.
          5    1    3    3  502    0 -0.17268888159E+02  0.45862292741E+01  0.39008347941E+03  0.39051484134E+03  0.41800000000E+01 0.  1.
         -5    1    3    3    0  502 -0.19006812223E+02 -0.24885389938E+02  0.14054678362E+02  0.34576696301E+02  0.41800000000E+01 0.  1.
        -11    1    4    4    0    0  0.73552982278E+02  0.81438187550E+00  0.18121126959E+03  0.19557154355E+03  0.00000000000E+00 0. -1.
         11    1    4    4    0    0 -0.37277281895E+02  0.19484778788E+02  0.16571065111E+03  0.17096570487E+03  0.00000000000E+00 0.  1.
</event>
<event>
 8    1  0.6901948E-009  0.1370772E+03  0.7561462E-02  0.1217317E+00
          2   -1    0    0  501    0  0.00000000000E+00  0.00000000000E+00  0.20242100964E+03  0.20242100964E+03  0.00000000000E+00 0. -1.
         -2   -1    0    0    0  501 -0.00000000000E+00 -0.00000000000E+00 -0.11318699963E+03  0.11318699963E+03  0.00000000000E+00 0.  1.
         25    2    1    2    0    0  0.67956104729E+02  0.80768848331E+02  0.36378934086E+02  0.16766696219E+03  0.12508854597E+03 0.  0.
         23    2    1    2    0    0 -0.67956104729E+02 -0.80768848331E+02  0.52855075918E+02  0.14794104709E+03  0.89169811779E+02 0.  0.
          5    1    3    3  502    0  0.70624697677E+02  0.10331612128E+03  0.56188391930E+02  0.13724677274E+03  0.41800000000E+01 0. -1.
         -5    1    3    3    0  502 -0.26685929475E+01 -0.22547272953E+02 -0.19809457844E+02  0.30420189447E+02  0.41800000000E+01 0. -1.
        -11    1    4    4    0    0 -0.42918287663E+02 -0.17439052253E+01 -0.97667786930E+01  0.44050091798E+02  0.00000000000E+00 0.  1.
         11    1    4    4    0    0 -0.25037817067E+02 -0.79024943106E+02  0.62621854611E+02  0.10389095529E+03  0.00000000000E+00 0. -1.
</event>
<event>
 8    1  0.6901948E-009  0.1361315E+03  0.7561462E-02  0.1218631E+00
         -1   -1    0    0    0  501 -0.00000000000E+00  0.00000000000E+00  0.21462394369E+02  0.21462394369E+02  0.00000000000E+00 0. -1.
          1   -1    0    0  501    0  0.00000000000E+00 -0.00000000000E+00 -0.10045642855E+04  0.10045642855E+04  0.00000000000E+00 0.  1.
         25    2    1    2    0    0  0.36376815166E+02  0.85077050270E+02 -0.41369894713E+03  0.44199011919E+03  0.12508824660E+03 0.  0.
         23    2    1    2    0    0 -0.36376815166E+02 -0.85077050270E+02 -0.56940294399E+03  0.58403656067E+03  0.91200956195E+02 0.  0.
          5    1    3    3  502    0  0.30394531162E+02  0.11763334395E+03 -0.30689268148E+03  0.33009395856E+03  0.41800000000E+01 0.  1.
         -5    1    3    3    0  502  0.59822840040E+01 -0.32556293682E+02 -0.10680626565E+03  0.11189616063E+03  0.41800000000E+01 0.  1.
        -11    1    4    4    0    0 -0.20907826862E+02  0.84366543912E+01 -0.37510704882E+02  0.43764909941E+02  0.00000000000E+00 0. -1.
         11    1    4    4    0    0 -0.15468988305E+02 -0.93513704661E+02 -0.53189223910E+03  0.54027165072E+03  0.00000000000E+00 0.  1.
</event>
<event>
 8    1  0.6901948E-009  0.1097358E+03  0.7561462E-02  0.1261060E+00
         -2   -1    0    0    0  501 -0.00000000000E+00  0.00000000000E+00  0.30944532324E+03  0.30944532324E+03  0.00000000000E+00 0. -1.
          2   -1    0    0  501    0  0.00000000000E+00 -0.00000000000E+00 -0.47049385096E+02  0.47049385096E+02  0.00000000000E+00 0.  1.
         25    2    1    2    0    0 -0.55698476528E+02  0.18479079771E+02  0.19230635241E+03  0.23679647679E+03  0.12508813518E+03 0.  0.
         23    2    1    2    0    0  0.55698476528E+02 -0.18479079771E+02  0.70089585731E+02  0.11969823155E+03  0.77274316120E+02 0.  0.
          5    1    3    3  502    0 -0.59028341976E+02  0.66891686482E+02  0.12969733624E+03  0.15747290023E+03  0.41800000000E+01 0.  1.
         -5    1    3    3    0  502  0.33298654475E+01 -0.48412606711E+02  0.62609016170E+02  0.79323576560E+02  0.41800000000E+01 0.  1.
        -11    1    4    4    0    0  0.46200326564E+02  0.13469764503E+02  0.73873229095E+01  0.48687547383E+02  0.00000000000E+00 0.  1.
         11    1    4    4    0    0  0.94981499641E+01 -0.31948844274E+02  0.62702262821E+02  0.71010684169E+02  0.00000000000E+00 0. -1.
</event>
<event>
 8    1  0.6901948E-009  0.1517121E+03  0.7561462E-02  0.1198385E+00
         -3   -1    0    0    0  501 -0.00000000000E+00  0.00000000000E+00  0.45669366312E+03  0.45669366312E+03  0.00000000000E+00 0.  1.
          3   -1    0    0  501    0  0.00000000000E+00 -0.00000000000E+00 -0.69007996100E+02  0.69007996100E+02  0.00000000000E+00 0. -1.
         25    2    1    2    0    0 -0.85534640270E+02  0.68802296761E+02  0.76321561585E+02  0.18309266261E+03  0.12509201259E+03 0.  0.
         23    2    1    2    0    0  0.85534640270E+02 -0.68802296761E+02  0.31136410544E+03  0.34260899661E+03  0.91560841389E+02 0.  0.
          5    1    3    3  502    0 -0.63599741845E+02  0.10212288015E+03  0.34683445933E+02  0.12527738677E+03  0.41800000000E+01 0.  1.
         -5    1    3    3    0  502 -0.21934898425E+02 -0.33320583391E+02  0.41638115652E+02  0.57815275848E+02  0.41800000000E+01 0.  1.
        -11    1    4    4    0    0 -0.17386870510E+02 -0.26417072413E+02  0.70776324597E+02  0.77520662436E+02  0.00000000000E+00 0.  1.
         11    1    4    4    0    0  0.10292151078E+03 -0.42385224347E+02  0.24058778084E+03  0.26508833417E+03  0.00000000000E+00 0. -1.
</event>
<event>
 8    1  0.6901948E-009  0.1138756E+03  0.7561462E-02  0.1253557E+00
          1   -1    0    0  501    0  0.00000000000E+00  0.00000000000E+00  0.58898055650E+03  0.58898055650E+03  0.00000000000E+00 0. -1.
         -1   -1    0    0    0  501 -0.00000000000E+00 -0.00000000000E+00 -0.26480854506E+02  0.26480854506E+02  0.00000000000E+00 0.  1.
         25    2    1    2    0    0  0.19070947003E+02  0.51791820787E+02  0.38678450072E+03  0.41023870237E+03  0.12508976460E+03 0.  0.
         23    2    1    2    0    0 -0.19070947003E+02 -0.51791820787E+02  0.17571520127E+03  0.20522270863E+03  0.90523115606E+02 0.  0.
          5    1    3    3  502    0  0.12401066186E+01  0.87687290919E+02  0.32359281071E+03  0.33529148274E+03  0.41800000000E+01 0. -1.
         -5    1    3    3    0  502  0.17830840385E+02 -0.35895470132E+02  0.63191690002E+02  0.74947219629E+02  0.41800000000E+01 0. -1.
        -11    1    4    4    0    0 -0.24197872084E+02  0.17697975706E+02  0.89400880609E+02  0.94293545967E+02  0.00000000000E+00 0. -1.
         11    1    4    4    0    0  0.51269250803E+01 -0.69489796493E+02  0.86314320666E+02  0.11092916266E+03  0.00000000000E+00 0.  1.
</event>
<event>
 8    1  0.6901948E-009  0.3261870E+03  0.7561462E-02  0.1072837E+00
          1   -1    0    0  501    0  0.00000000000E+00  0.00000000000E+00  0.11695800969E+04  0.11695800969E+04  0.00000000000E+00 0. -1.
         -1   -1    0    0    0  501 -0.00000000000E+00 -0.00000000000E+00 -0.36963137909E+03  0.36963137909E+03  0.00000000000E+00 0.  1.
         25    2    1    2    0    0 -0.26628745728E+03  0.17086989276E+03 -0.26062516031E+03  0.42857806219E+03  0.12509256990E+03 0.  0.
         23    2    1    2    0    0  0.26628745728E+03 -0.17086989276E+03  0.10605738781E+04  0.11106334138E+04  0.92650411370E+02 0.  0.
          5    1    3    3  502    0 -0.15770410382E+03  0.16201406024E+03 -0.13990300390E+03  0.26591251000E+03  0.41800000000E+01 0. -1.
         -5    1    3    3    0  502 -0.10858335346E+03  0.88558325232E+01 -0.12072215641E+03  0.16266555219E+03  0.41800000000E+01 0. -1.
        -11    1    4    4    0    0  0.77701102456E+02 -0.62435937734E+02  0.48913948785E+03  0.49919249415E+03  0.00000000000E+00 0.  1.
         11    1    4    4    0    0  0.18858635482E+03 -0.10843395503E+03  0.57143439027E+03  0.61144091964E+03  0.00000000000E+00 0. -1.
</event>
<event>
 8    1  0.6901948E-009  0.9005934E+02  0.7561462E-02  0.1302708E+00
          1   -1    0    0  501    0  0.00000000000E+00  0.00000000000E+00  0.55106084562E+03  0.55106084562E+03  0.00000000000E+00 0. -1.
         -1   -1    0    0    0  501 -0.00000000000E+00 -0.00000000000E+00 -0.35260295455E+02  0.35260295455E+02  0.00000000000E+00 0.  1.
         25    2    1    2    0    0  0.52351804501E+02  0.19784872666E+01  0.13375531902E+03  0.19047892813E+03  0.12508841212E+03 0.  0.
         23    2    1    2    0    0 -0.52351804501E+02 -0.19784872666E+01  0.38204523115E+03  0.39584221295E+03  0.89374901762E+02 0.  0.
          5    1    3    3  502    0 -0.10322583316E+02  0.32769399192E+02  0.11199079353E+03  0.11721689079E+03  0.41800000000E+01 0. -1.
         -5    1    3    3    0  502  0.62674387817E+02 -0.30790911926E+02  0.21764525487E+02  0.73262037340E+02  0.41800000000E+01 0. -1.
        -11    1    4    4    0    0  0.11496821746E+02  0.15875698094E+01  0.37745702488E+01  0.12204288948E+02  0.00000000000E+00 0.  1.
         11    1    4    4    0    0 -0.63848626247E+02 -0.35660570760E+01  0.37827066090E+03  0.38363792401E+03  0.00000000000E+00 0. -1.
</event>
<event>
 8    1  0.6901948E-009  0.1145713E+03  0.7561462E-02  0.1252331E+00
         -1   -1    0    0    0  501 -0.00000000000E+00  0.00000000000E+00  0.81915986742E+02  0.81915986742E+02  0.00000000000E+00 0.  1.
          1   -1    0    0  501    0  0.00000000000E+00 -0.00000000000E+00 -0.25590584979E+03  0.25590584979E+03  0.00000000000E+00 0. -1.
         25    2    1    2    0    0  0.17828905198E-01  0.60785010148E+02 -0.83645594793E+01  0.13933056843E+03  0.12509286018E+03 0.  0.
         23    2    1    2    0    0 -0.17828905198E-01 -0.60785010148E+02 -0.16562530357E+03  0.19849126810E+03  0.90951770482E+02 0.  0.
          5    1    3    3  502    0  0.60903481371E+02  0.33244617697E+02  0.91782283501E+01  0.70115268841E+02  0.41800000000E+01 0. -1.
         -5    1    3    3    0  502 -0.60885652466E+02  0.27540392451E+02 -0.17542787829E+02  0.69215299590E+02  0.41800000000E+01 0. -1.
        -11    1    4    4    0    0 -0.33437824823E+02 -0.44037986238E+02 -0.14632007256E+03  0.15641929547E+03  0.00000000000E+00 0.  1.
         11    1    4    4    0    0  0.33419995918E+02 -0.16747023910E+02 -0.19305231009E+02  0.42071972634E+02  0.00000000000E+00 0. -1.
</event>
<event>
 8    1  0.6901948E-009  0.1149882E+03  0.7561462E-02  0.1251602E+00
         -1   -1    0    0    0  501 -0.00000000000E+00  0.00000000000E+00  0.51718487138E+02  0.51718487138E+02  0.00000000000E+00 0.  1.
          1   -1    0    0  501    0  0.00000000000E+00 -0.00000000000E+00 -0.32467959386E+03  0.32467959386E+03  0.00000000000E+00 0. -1.
         25    2    1    2    0    0  0.71792910026E+02  0.10409064857E+01 -0.16142645654E+03  0.21647727606E+03  0.12509438342E+03 0.  0.
         23    2    1    2    0    0 -0.71792910026E+02 -0.10409064857E+01 -0.11153465018E+03  0.15992080493E+03  0.89327376787E+02 0.  0.
          5    1    3    3  502    0  0.78941181042E+02  0.33078598583E+02 -0.47785112297E+02  0.98116222439E+02  0.41800000000E+01 0. -1.
         -5    1    3    3    0  502 -0.71482710160E+01 -0.32037692097E+02 -0.11364134424E+03  0.11836105362E+03  0.41800000000E+01 0. -1.
        -11    1    4    4    0    0  0.17125219248E+02 -0.12963541499E+02 -0.79891211565E+01  0.22916208223E+02  0.00000000000E+00 0. -1.
         11    1    4    4    0    0 -0.88918129274E+02  0.11922635013E+02 -0.10354552902E+03  0.13700459671E+03  0.00000000000E+00 0.  1.
</event>
<event>
 8    1  0.6901948E-009  0.1070342E+03  0.7561462E-02  0.1266163E+00
          2   -1    0    0  501    0  0.00000000000E+00  0.00000000000E+00  0.32826258376E+03  0.32826258376E+03  0.00000000000E+00 0. -1.
         -2   -1    0    0    0  501 -0.00000000000E+00 -0.00000000000E+00 -0.41632003838E+02  0.41632003838E+02  0.00000000000E+00 0.  1.
         25    2    1    2    0    0 -0.37225197190E+02 -0.39653599378E+02  0.16744180358E+03  0.21596871712E+03  0.12509039107E+03 0.  0.
         23    2    1    2    0    0  0.37225197190E+02  0.39653599378E+02  0.11918877633E+03  0.15392587047E+03  0.80802759529E+02 0.  0.
          5    1    3    3  502    0 -0.57444088869E+02  0.29091048824E+02  0.83376787158E+02  0.10542899746E+03  0.41800000000E+01 0. -1.
         -5    1    3    3    0  502  0.20218891679E+02 -0.68744648201E+02  0.84065016425E+02  0.11053971967E+03  0.41800000000E+01 0. -1.
        -11    1    4    4    0    0  0.47875990879E+02  0.13834486232E+02  0.11545061310E+03  0.12574715733E+03  0.00000000000E+00 0. -1.
         11    1    4    4    0    0 -0.10650793689E+02  0.25819113146E+02  0.37381632323E+01  0.28178713140E+02  0.00000000000E+00 0.  1.
</event>
<event>
 8    1  0.6901948E-009  0.1119446E+03  0.7561462E-02  0.1257011E+00
          2   -1    0    0  501    0  0.00000000000E+00  0.00000000000E+00  0.74012318484E+03  0.74012318484E+03  0.00000000000E+00 0. -1.
         -2   -1    0    0    0  501 -0.00000000000E+00 -0.00000000000E+00 -0.33300448073E+02  0.33300448073E+02  0.00000000000E+00 0.  1.
         25    2    1    2    0    0 -0.10253680442E+03  0.75193051206E+01  0.48575735324E+03  0.51203299268E+03  0.12508894096E+03 0.  0.
         23    2    1    2    0    0  0.10253680442E+03 -0.75193051206E+01  0.22106538352E+03  0.26139064023E+03  0.94259359206E+02 0.  0.
          5    1    3    3  502    0  0.70887813261E+01  0.19810778727E+01  0.26805220600E+03  0.26818581811E+03  0.41800000000E+01 0. -1.
         -5    1    3    3    0  502 -0.10962558575E+03  0.55382272479E+01  0.21770514724E+03  0.24384717457E+03  0.41800000000E+01 0. -1.
        -11    1    4    4    0    0  0.57332219067E+02 -0.16139613073E+02  0.20365880575E+03  0.21218948988E+03  0.00000000000E+00 0. -1.
         11    1    4    4    0    0  0.45204585358E+02  0.86203079527E+01  0.17406577768E+02  0.49201150354E+02  0.00000000000E+00 0.  1.
</event>
<event>
 8    1  0.6901948E-009  0.1214197E+03  0.7561462E-02  0.1240773E+00
         -3   -1    0    0    0  501 -0.00000000000E+00  0.00000000000E+00  0.45780366427E+03  0.45780366427E+03  0.00000000000E+00 0.  1.
          3   -1    0    0  501    0  0.00000000000E+00 -0.00000000000E+00 -0.49732697634E+02  0.49732697634E+02  0.00000000000E+00 0. -1.
         25    2    1    2    0    0 -0.52731797739E+02 -0.77516115949E+02  0.29663975424E+03  0.33530890691E+03  0.12509008168E+03 0.  0.
         23    2    1    2    0    0  0.52731797739E+02  0.77516115949E+02  0.11143121240E+03  0.17222745499E+03  0.91956459441E+02 0.  0.
          5    1    3    3  502    0  0.25291860953E+01 -0.68189680657E+02  0.56527388450E+02  0.88707651165E+02  0.41800000000E+01 0. -1.
         -5    1    3    3    0  502 -0.55260983835E+02 -0.93264352926E+01  0.24011236579E+03  0.24660125575E+03  0.41800000000E+01 0. -1.
        -11    1    4    4    0    0  0.86101804466E+00  0.64884503810E+02  0.97385124672E+02  0.11702394069E+03  0.00000000000E+00 0.  1.
         11    1    4    4    0    0  0.51870779695E+02  0.12631612139E+02  0.14046087724E+02  0.55203514306E+02  0.00000000000E+00 0. -1.
</event>
<event>
 8    1  0.6901948E-009  0.1413200E+03  0.7561462E-02  0.1211564E+00
          3   -1    0    0  501    0  0.00000000000E+00  0.00000000000E+00  0.18853624407E+03  0.18853624407E+03  0.00000000000E+00 0. -1.
         -3   -1    0    0    0  501 -0.00000000000E+00 -0.00000000000E+00 -0.20909990504E+03  0.20909990504E+03  0.00000000000E+00 0.  1.
         25    2    1    2    0    0  0.92390216373E+02  0.10552810933E+02  0.12690336989E+03  0.20099497458E+03  0.12508877095E+03 0.  0.
         23    2    1    2    0    0 -0.92390216373E+02 -0.10552810933E+02 -0.14746703086E+03  0.19664117453E+03  0.90961048964E+02 0.  0.
          5    1    3    3  502    0  0.38200146346E+02 -0.55736086503E+02  0.38616920208E+02  0.77939088049E+02  0.41800000000E+01 0.  1.
         -5    1    3    3    0  502  0.54190070027E+02  0.66288897436E+02  0.88286449683E+02  0.12305588653E+03  0.41800000000E+01 0.  1.
        -11    1    4    4    0    0 -0.70203897905E+02  0.35078159983E+02 -0.10040119771E+03  0.12743415982E+03  0.00000000000E+00 0. -1.
         11    1    4    4    0    0 -0.22186318468E+02 -0.45630970916E+02 -0.47065833156E+02  0.69207014706E+02  0.00000000000E+00 0.  1.
</event>
<event>
 8    1  0.6901948E-009  0.8930992E+02  0.7561462E-02  0.1304531E+00
          3   -1    0    0  501    0  0.00000000000E+00  0.00000000000E+00  0.13748464177E+03  0.13748464177E+03  0.00000000000E+00 0. -1.
         -3   -1    0    0    0  501 -0.00000000000E+00 -0.00000000000E+00 -0.11662609425E+03  0.11662609425E+03  0.00000000000E+00 0.  1.
         25    2    1    2    0    0  0.64950070178E+02  0.87429770003E+01  0.61618078428E+01  0.14135604865E+03  0.12509441775E+03 0.  0.
         23    2    1    2    0    0 -0.64950070178E+02 -0.87429770003E+01  0.14696739684E+02  0.11275468737E+03  0.90568615444E+02 0.  0.
          5    1    3    3  502    0  0.71973454697E+02  0.15899808569E+02  0.54530399533E+02  0.91782454569E+02  0.41800000000E+01 0. -1.
         -5    1    3    3    0  502 -0.70233845183E+01 -0.71568315686E+01 -0.48368591690E+02  0.49573594083E+02  0.41800000000E+01 0. -1.
        -11    1    4    4    0    0  0.91216923312E+01  0.13764904470E+02 -0.21651838779E+02  0.27230130161E+02  0.00000000000E+00 0.  1.
         11    1    4    4    0    0 -0.74071762510E+02 -0.22507881471E+02  0.36348578463E+02  0.85524557209E+02  0.00000000000E+00 0. -1.
</event>
<event>
 8    1  0.6901948E-009  0.9667711E+02  0.7561462E-02  0.1287443E+00
          1   -1    0    0  501    0  0.00000000000E+00  0.00000000000E+00  0.20989873861E+03  0.20989873861E+03  0.00000000000E+00 0. -1.
         -1   -1    0    0    0  501 -0.00000000000E+00 -0.00000000000E+00 -0.96347433648E+02  0.96347433648E+02  0.00000000000E+00 0.  1.
         25    2    1    2    0    0  0.33398790279E+02 -0.10884646257E+02 -0.29258123034E+02  0.13318109241E+03  0.12508881204E+03 0.  0.
         23    2    1    2    0    0 -0.33398790279E+02  0.10884646257E+02  0.14280942800E+03  0.17306507984E+03  0.91230666011E+02 0.  0.
          5    1    3    3  502    0  0.62844233664E+02  0.27755208652E+02  0.11311154924E+02  0.69750727149E+02  0.41800000000E+01 0.  1.
         -5    1    3    3    0  502 -0.29445443385E+02 -0.38639854909E+02 -0.40569277958E+02  0.63430365264E+02  0.41800000000E+01 0.  1.
        -11    1    4    4    0    0 -0.34837951455E+02 -0.23068365839E+02  0.13032789353E+03  0.13686194575E+03  0.00000000000E+00 0. -1.
         11    1    4    4    0    0  0.14391611760E+01  0.33953012096E+02  0.12481534467E+02  0.36203134090E+02  0.00000000000E+00 0.  1.
</event>
<event>
 8    1  0.6901948E-009  0.1088227E+03  0.7561462E-02  0.1262766E+00
          1   -1    0    0  501    0  0.00000000000E+00  0.00000000000E+00  0.11068879483E+03  0.11068879483E+03  0.00000000000E+00 0. -1.
         -1   -1    0    0    0  501 -0.00000000000E+00 -0.00000000000E+00 -0.17347425427E+03  0.17347425427E+03  0.00000000000E+00 0.  1.
         25    2    1    2    0    0 -0.13699103009E+01 -0.30598845806E+02 -0.11690687303E+03  0.17393623353E+03  0.12509368631E+03 0.  0.
         23    2    1    2    0    0  0.13699103009E+01  0.30598845806E+02  0.54121413591E+02  0.11022681557E+03  0.91009106369E+02 0.  0.
          5    1    3    3  502    0  0.18709586949E+02 -0.75578356999E+02 -0.58875259010E+02  0.97703148435E+02  0.41800000000E+01 0.  1.
         -5    1    3    3    0  502 -0.20079497250E+02  0.44979511194E+02 -0.58031614023E+02  0.76233085096E+02  0.41800000000E+01 0.  1.
        -11    1    4    4    0    0 -0.32992390281E+02 -0.12356334784E+02  0.33842748238E+01  0.35392515336E+02  0.00000000000E+00 0. -1.
         11    1    4    4    0    0  0.34362300582E+02  0.42955180590E+02  0.50737138767E+02  0.74834300231E+02  0.00000000000E+00 0.  1.
</event>
<event>
 8    1  0.6901948E-009  0.1680440E+03  0.7561462E-02  0.1179903E+00
         -2   -1    0    0    0  501 -0.00000000000E+00  0.00000000000E+00  0.25003328377E+03  0.25003328377E+03  0.00000000000E+00 0.  1.
          2   -1    0    0  501    0  0.00000000000E+00 -0.00000000000E+00 -0.12482474530E+03  0.12482474530E+03  0.00000000000E+00 0. -1.
         25    2    1    2    0    0 -0.84803295019E+02  0.10999881264E+03  0.62422702081E+02  0.19706510999E+03  0.12508687466E+03 0.  0.
         23    2    1    2    0    0  0.84803295019E+02 -0.10999881264E+03  0.62785836394E+02  0.17779291908E+03  0.91525533029E+02 0.  0.
          5    1    3    3  502    0 -0.41072466718E+02  0.12885568357E+03  0.62999645964E+02  0.14925536004E+03  0.41800000000E+01 0. -1.
         -5    1    3    3    0  502 -0.43730828301E+02 -0.18856870932E+02 -0.57694388337E+00  0.47809749942E+02  0.41800000000E+01 0. -1.
        -11    1    4    4    0    0  0.51023104184E+02 -0.10762897217E+03  0.76167138671E+02  0.14138170258E+03  0.00000000000E+00 0.  1.
         11    1    4    4    0    0  0.33780190835E+02 -0.23698404706E+01 -0.13381302278E+02  0.36411216504E+02  0.00000000000E+00 0. -1.
</event>
<event>
 8    1  0.6901948E-009  0.1387814E+03  0.7561462E-02  0.1214978E+00
          3   -1    0    0  501    0  0.00000000000E+00  0.00000000000E+00  0.40480523885E+03  0.40480523885E+03  0.00000000000E+00 0. -1.
         -3   -1    0    0    0  501 -0.00000000000E+00 -0.00000000000E+00 -0.53030291004E+02  0.53030291004E+02  0.00000000000E+00 0.  1.
         25    2    1    2    0    0  0.73410898010E+02  0.59006586728E+02  0.14190521064E+03  0.21132205257E+03  0.12509589870E+03 0.  0.
         23    2    1    2    0    0 -0.73410898010E+02 -0.59006586728E+02  0.20986973721E+03  0.24651347729E+03  0.88615183032E+02 0.  0.
          5    1    3    3  502    0  0.60011964244E+02 -0.25109424767E+02  0.91218604959E+02  0.11211701635E+03  0.41800000000E+01 0.  1.
         -5    1    3    3    0  502  0.13398933766E+02  0.84116011495E+02  0.50686605678E+02  0.99205036218E+02  0.41800000000E+01 0.  1.
        -11    1    4    4    0    0 -0.90619764870E+02 -0.34100756755E+02  0.13849587271E+03  0.16898494062E+03  0.00000000000E+00 0. -1.
         11    1    4    4    0    0  0.17208866860E+02 -0.24905829973E+02  0.71373864497E+02  0.77528536672E+02  0.00000000000E+00 0.  1.
</event>
<event>
 8    1  0.6901948E-009  0.7591754E+02  0.7561462E-02  0.1341053E+00
          2   -1    0    0  501    0  0.00000000000E+00  0.00000000000E+00  0.59697137659E+02  0.59697137659E+02  0.00000000000E+00 0. -1.
         -2   -1    0    0    0  501 -0.00000000000E+00 -0.00000000000E+00 -0.35121642863E+03  0.35121642863E+03  0.00000000000E+00 0.  1.
         25    2    1    2    0    0  0.31606337829E+02  0.15753239847E+02 -0.28705091993E+03  0.31510538660E+03  0.12508416716E+03 0.  0.
         23    2    1    2    0    0 -0.31606337829E+02 -0.15753239847E+02 -0.44683710436E+01  0.95808179693E+02  0.88950074759E+02 0.  0.
          5    1    3    3  502    0  0.57258754295E+02  0.31115189245E+02 -0.27491881170E+03  0.28256777129E+03  0.41800000000E+01 0. -1.
         -5    1    3    3    0  502 -0.25652416465E+02 -0.15361949398E+02 -0.12132108226E+02  0.32537615307E+02  0.41800000000E+01 0. -1.
        -11    1    4    4    0    0  0.38890614393E+01  0.11147078681E+02 -0.38171875579E+02  0.39955903785E+02  0.00000000000E+00 0.  1.
         11    1    4    4    0    0 -0.35495399269E+02 -0.26900318528E+02  0.33703504536E+02  0.55852275908E+02  0.00000000000E+00 0. -1.
</event>
<event>
 8    1  0.6901948E-009  0.9400166E+02  0.7561462E-02  0.1293441E+00
         -2   -1    0    0    0  501 -0.00000000000E+00  0.00000000000E+00  0.23460663184E+02  0.23460663184E+02  0.00000000000E+00 0.  1.
          2   -1    0    0  501    0  0.00000000000E+00 -0.00000000000E+00 -0.66552658601E+03  0.66552658601E+03  0.00000000000E+00 0. -1.
         25    2    1    2    0    0  0.26645554608E+02  0.54828101678E+01 -0.51204706492E+03  0.52780506567E+03  0.12508374739E+03 0.  0.
         23    2    1    2    0    0 -0.26645554608E+02 -0.54828101678E+01 -0.13001885790E+03  0.16118218353E+03  0.91294830565E+02 0.  0.
          5    1    3    3  502    0 -0.14222155169E+01  0.44908162511E+02 -0.71235878761E+02  0.84325491875E+02  0.41800000000E+01 0. -1.
         -5    1    3    3    0  502  0.28067770125E+02 -0.39425352343E+02 -0.44081118616E+03  0.44347957379E+03  0.41800000000E+01 0. -1.
        -11    1    4    4    0    0 -0.10810600679E+02  0.42458847102E+02 -0.71878925724E+02  0.84179586288E+02  0.00000000000E+00 0. -1.
         11    1    4    4    0    0 -0.15834953929E+02 -0.47941657269E+02 -0.58139932180E+02  0.77002597239E+02  0.00000000000E+00 0.  1.
</event>
<event>
 8    1  0.6901948E-009  0.8779968E+02  0.7561462E-02  0.1308269E+00
          2   -1    0    0  501    0  0.00000000000E+00  0.00000000000E+00  0.23727130194E+03  0.23727130194E+03  0.00000000000E+00 0. -1.
         -2   -1    0    0    0  501 -0.00000000000E+00 -0.00000000000E+00 -0.92171748227E+02  0.92171748227E+02  0.00000000000E+00 0.  1.
         25    2    1    2    0    0 -0.43285434813E+02  0.59634903844E+02  0.15031968205E+03  0.20898508986E+03  0.12509520514E+03 0.  0.
         23    2    1    2    0    0  0.43285434813E+02 -0.59634903844E+02 -0.52201283369E+01  0.12045796031E+03  0.95146833044E+02 0.  0.
          5    1    3    3  502    0 -0.35431513705E+02  0.60115115373E+02  0.17193650692E+03  0.18560402493E+03  0.41800000000E+01 0.  1.
         -5    1    3    3    0  502 -0.78539211083E+01 -0.48021152978E+00 -0.21616824867E+02  0.23381064929E+02  0.41800000000E+01 0.  1.
        -11    1    4    4    0    0  0.33574224123E+02 -0.72949431945E+02 -0.34069907215E+02  0.87233059812E+02  0.00000000000E+00 0.  1.
         11    1    4    4    0    0  0.97112106895E+01  0.13314528102E+02  0.28849778878E+02  0.33224900495E+02  0.00000000000E+00 0. -1.
</event>
<event>
 8    1  0.6901948E-009  0.1059424E+03  0.7561462E-02  0.1268274E+00
          3   -1    0    0  501    0  0.00000000000E+00  0.00000000000E+00  0.55052121652E+02  0.55052121652E+02  0.00000000000E+00 0. -1.
         -3   -1    0    0    0  501 -0.00000000000E+00 -0.00000000000E+00 -0.30653587884E+03  0.30653587884E+03  0.00000000000E+00 0.  1.
         25    2    1    2    0    0  0.27745268546E+02  0.40638784525E+02 -0.21258539456E+03  0.25151802356E+03  0.12508978960E+03 0.  0.
         23    2    1    2    0    0 -0.27745268546E+02 -0.40638784525E+02 -0.38898362629E+02  0.11006997693E+03  0.90448916369E+02 0.  0.
          5    1    3    3  502    0  0.63882775260E+02  0.36168197146E+02 -0.60922412381E+02  0.95489057960E+02  0.41800000000E+01 0.  1.
         -5    1    3    3    0  502 -0.36137506715E+02  0.44705873794E+01 -0.15166298218E+03  0.15602896560E+03  0.41800000000E+01 0.  1.
        -11    1    4    4    0    0  0.32004947933E+02 -0.57645058926E+01 -0.20644068602E+02  0.38519135359E+02  0.00000000000E+00 0.  1.
         11    1    4    4    0    0 -0.59750216479E+02 -0.34874278633E+02 -0.18254294028E+02  0.71550841573E+02  0.00000000000E+00 0. -1.
</event>
<event>
 8    1  0.6901948E-009  0.1063804E+03  0.7561462E-02  0.1267423E+00
          2   -1    0    0  501    0  0.00000000000E+00  0.00000000000E+00  0.52972857687E+03  0.52972857687E+03  0.00000000000E+00 0. -1.
         -2   -1    0    0    0  501 -0.00000000000E+00 -0.00000000000E+00 -0.34532880332E+02  0.34532880332E+02  0.00000000000E+00 0.  1.
         25    2    1    2    0    0  0.62425896438E+02 -0.34488590301E+02  0.19820021469E+03  0.24497761806E+03  0.12507698766E+03 0.  0.
         23    2    1    2    0    0 -0.62425896438E+02  0.34488590301E+02  0.29699548185E+03  0.31928383914E+03  0.93002141320E+02 0.  0.
          5    1    3    3  502    0 -0.12753774247E+02  0.34884200831E+02  0.29394996669E+02  0.47551072063E+02  0.41800000000E+01 0.  1.
         -5    1    3    3    0  502  0.75179670685E+02 -0.69372791132E+02  0.16880521802E+03  0.19742654600E+03  0.41800000000E+01 0.  1.
        -11    1    4    4    0    0 -0.47771964938E+02  0.18276607894E+02  0.29254398201E+03  0.29698177796E+03  0.00000000000E+00 0. -1.
         11    1    4    4    0    0 -0.14653931500E+02  0.16211982407E+02  0.44514998369E+01  0.22302061177E+02  0.00000000000E+00 0.  1.
</event>
<event>
 8    1  0.6901948E-009  0.7814024E+02  0.7561462E-02  0.1334414E+00
          4   -1    0    0  501    0  0.00000000000E+00  0.00000000000E+00  0.64843464314E+02  0.64843464314E+02  0.00000000000E+00 0. -1.
         -4   -1    0    0    0  501 -0.00000000000E+00 -0.00000000000E+00 -0.18952521685E+03  0.18952521685E+03  0.00000000000E+00 0.  1.
         25    2    1    2    0    0 -0.14942186560E+02 -0.25927991731E+02 -0.81001425044E+02  0.15200045633E+03  0.12508948065E+03 0.  0.
         23    2    1    2    0    0  0.14942186560E+02  0.25927991731E+02 -0.43680327494E+02  0.10236822484E+03  0.87611373421E+02 0.  0.
          5    1    3    3  502    0 -0.73972264165E+01  0.44211809755E+02 -0.65780523675E+02  0.79711685313E+02  0.41800000000E+01 0.  1.
         -5    1    3    3    0  502 -0.75449601438E+01 -0.70139801486E+02 -0.15220901369E+02  0.72288771013E+02  0.41800000000E+01 0.  1.
        -11    1    4    4    0    0 -0.45236456606E+01  0.19611513845E+02  0.24196754529E+02  0.31473127825E+02  0.00000000000E+00 0. -1.
         11    1    4    4    0    0  0.19465832221E+02  0.63164778857E+01 -0.67877082023E+02  0.70895097016E+02  0.00000000000E+00 0.  1.
</event>
<event>
 8    1  0.6901948E-009  0.1834712E+03  0.7561462E-02  0.1164485E+00
          1   -1    0    0  501    0  0.00000000000E+00  0.00000000000E+00  0.38678305052E+03  0.38678305052E+03  0.00000000000E+00 0. -1.
         -1   -1    0    0    0  501 -0.00000000000E+00 -0.00000000000E+00 -0.11476437509E+03  0.11476437509E+03  0.00000000000E+00 0.  1.
         25    2    1    2    0    0 -0.17174522977E+02  0.17983608424E+03  0.11714028251E+03  0.24900739739E+03  0.12508739640E+03 0.  0.
         23    2    1    2    0    0  0.17174522977E+02 -0.17983608424E+03  0.15487839292E+03  0.25254002822E+03  0.84576402295E+02 0.  0.
          5    1    3    3  502    0 -0.29213468126E+02  0.14766866872E+03  0.14154340756E+03  0.20666753753E+03  0.41800000000E+01 0. -1.
         -5    1    3    3    0  502  0.12038945149E+02  0.32167415514E+02 -0.24403125055E+02  0.42339859867E+02  0.41800000000E+01 0. -1.
        -11    1    4    4    0    0  0.21515743406E+02 -0.16055502815E+03  0.16422780542E+03  0.23067643216E+03  0.00000000000E+00 0. -1.
         11    1    4    4    0    0 -0.43412204291E+01 -0.19281056084E+02 -0.93494125009E+01  0.21863596059E+02  0.00000000000E+00 0.  1.
</event>
<event>
 8    1  0.6901948E-009  0.3375146E+03  0.7561462E-02  0.1067859E+00
         -1   -1    0    0    0  501 -0.00000000000E+00  0.00000000000E+00  0.18180618204E+03  0.18180618204E+03  0.00000000000E+00 0.  1.
          1   -1    0    0  501    0  0.00000000000E+00 -0.00000000000E+00 -0.64276234557E+03  0.64276234557E+03  0.00000000000E+00 0. -1.
         25    2    1    2    0    0 -0.91091145851E+02  0.31027214554E+03 -0.22344744595E+03  0.41248342653E+03  0.12508962750E+03 0.  0.
         23    2    1    2    0    0  0.91091145851E+02 -0.31027214554E+03 -0.23750871759E+03  0.41208510108E+03  0.94007119151E+02 0.  0.
          5    1    3    3  502    0 -0.70155320305E+02  0.76405646735E+02 -0.11143566351E+03  0.15229895378E+03  0.41800000000E+01 0.  1.
         -5    1    3    3    0  502 -0.20935825546E+02  0.23386649881E+03 -0.11201178244E+03  0.26018447275E+03  0.41800000000E+01 0.  1.
        -11    1    4    4    0    0  0.67105211540E+02 -0.78098710617E+02 -0.81793294233E+02  0.13150156272E+03  0.00000000000E+00 0.  1.
         11    1    4    4    0    0  0.23985934311E+02 -0.23217343492E+03 -0.15571542336E+03  0.28058353836E+03  0.00000000000E+00 0. -1.
</event>
<event>
 8    1  0.6901948E-009  0.1362401E+03  0.7561462E-02  0.1218480E+00
          2   -1    0    0  501    0  0.00000000000E+00  0.00000000000E+00  0.52121101783E+03  0.52121101783E+03  0.00000000000E+00 0. -1.
         -2   -1    0    0    0  501 -0.00000000000E+00 -0.00000000000E+00 -0.39685295545E+02  0.39685295545E+02  0.00000000000E+00 0.  1.
         25    2    1    2    0    0  0.81466013261E+02  0.41421605454E+02  0.22029244501E+03  0.26930897351E+03  0.12508437619E+03 0.  0.
         23    2    1    2    0    0 -0.81466013261E+02 -0.41421605454E+02  0.26123327727E+03  0.29158733987E+03  0.91803545153E+02 0.  0.
          5    1    3    3  502    0  0.83870765376E+02 -0.24281036385E+02  0.10606085312E+03  0.13744180942E+03  0.41800000000E+01 0.  1.
         -5    1    3    3    0  502 -0.24047521145E+01  0.65702641839E+02  0.11423159189E+03  0.13186716409E+03  0.41800000000E+01 0.  1.
        -11    1    4    4    0    0 -0.71982712659E+02 -0.62972968469E+02  0.15005181007E+03  0.17794002188E+03  0.00000000000E+00 0.  1.
         11    1    4    4    0    0 -0.94833006023E+01  0.21551363016E+02  0.11118146720E+03  0.11364731799E+03  0.00000000000E+00 0. -1.
</event>
<event>
 8    1  0.6901948E-009  0.7325755E+02  0.7561462E-02  0.1349353E+00
         -1   -1    0    0    0  501 -0.00000000000E+00  0.00000000000E+00  0.18849325988E+03  0.18849325988E+03  0.00000000000E+00 0.  1.
          1   -1    0    0  501    0  0.00000000000E+00 -0.00000000000E+00 -0.63739992849E+02  0.63739992849E+02  0.00000000000E+00 0. -1.
         25    2    1    2    0    0  0.39941508836E+01 -0.19588476440E+01  0.49579765141E+02  0.13463401409E+03  0.12509346231E+03 0.  0.
         23    2    1    2    0    0 -0.39941508836E+01  0.19588476440E+01  0.75173501895E+02  0.11759923865E+03  0.90325717369E+02 0.  0.
          5    1    3    3  502    0 -0.40355901084E+01  0.53458947617E+02 -0.78157332440E+01  0.54338781308E+02  0.41800000000E+01 0. -1.
         -5    1    3    3    0  502  0.80297409920E+01 -0.55417795261E+02  0.57395498385E+02  0.80295232778E+02  0.41800000000E+01 0. -1.
        -11    1    4    4    0    0  0.37568422200E+00  0.18996344461E+02 -0.15941609123E+02  0.24801958449E+02  0.00000000000E+00 0. -1.
         11    1    4    4    0    0 -0.43698351056E+01 -0.17037496817E+02  0.91115111018E+02  0.92797280199E+02  0.00000000000E+00 0.  1.
</event>
<event>
 8    1  0.6901948E-009  0.6955525E+02  0.7561462E-02  0.1361612E+00
         -1   -1    0    0    0  501 -0.00000000000E+00  0.00000000000E+00  0.22885514426E+02  0.22885514426E+02  0.00000000000E+00 0.  1.
          1   -1    0    0  501    0  0.00000000000E+00 -0.00000000000E+00 -0.55844665360E+03  0.55844665360E+03  0.00000000000E+00 0. -1.
         25    2    1    2    0    0 -0.26706062303E+02 -0.18305833055E+02 -0.27732049052E+03  0.30594522257E+03  0.12508999744E+03 0.  0.
         23    2    1    2    0    0  0.26706062303E+02  0.18305833055E+02 -0.25824064866E+03  0.27538694546E+03  0.90007887572E+02 0.  0.
          5    1    3    3  502    0 -0.31178080228E+02 -0.96937455902E+01 -0.48525906647E+01  0.33272532612E+02  0.41800000000E+01 0.  1.
         -5    1    3    3    0  502  0.44720179247E+01 -0.86120874653E+01 -0.27246789986E+03  0.27267268995E+03  0.41800000000E+01 0.  1.
        -11    1    4    4    0    0 -0.23450629803E+02 -0.21330266799E+02 -0.82579158580E+02  0.88454676257E+02  0.00000000000E+00 0.  1.
         11    1    4    4    0    0  0.50156692106E+02  0.39636099855E+02 -0.17566149008E+03  0.18693226921E+03  0.00000000000E+00 0. -1.
</event>
<event>
 8    1  0.6901948E-009  0.9527522E+02  0.7561462E-02  0.1290557E+00
         -4   -1    0    0    0  501 -0.00000000000E+00  0.00000000000E+00  0.72190011794E+02  0.72190011794E+02  0.00000000000E+00 0.  1.
          4   -1    0    0  501    0  0.00000000000E+00 -0.00000000000E+00 -0.21381359098E+03  0.21381359098E+03  0.00000000000E+00 0. -1.
         25    2    1    2    0    0 -0.49165213159E+01  0.22345582402E+02 -0.15344236575E+03  0.19928703591E+03  0.12508903165E+03 0.  0.
         23    2    1    2    0    0  0.49165213159E+01 -0.22345582402E+02  0.11818786562E+02  0.86716566866E+02  0.82804480667E+02 0.  0.
          5    1    3    3  502    0  0.15420779954E+02  0.71782592905E+02 -0.89627961746E+02  0.11593612476E+03  0.41800000000E+01 0. -1.
         -5    1    3    3    0  502 -0.20337301270E+02 -0.49437010503E+02 -0.63814404003E+02  0.83350911145E+02  0.41800000000E+01 0. -1.
        -11    1    4    4    0    0 -0.25597548582E+01 -0.42147445448E+02  0.35348281811E+02  0.55067781231E+02  0.00000000000E+00 0.  1.
         11    1    4    4    0    0  0.74762761741E+01  0.19801863046E+02 -0.23529495249E+02  0.31648785635E+02  0.00000000000E+00 0. -1.
</event>
<event>
 8    1  0.6901948E-009  0.1130011E+03  0.7561462E-02  0.1255111E+00
          2   -1    0    0  501    0  0.00000000000E+00  0.00000000000E+00  0.26746528261E+02  0.26746528261E+02  0.00000000000E+00 0. -1.
         -2   -1    0    0    0  501 -0.00000000000E+00 -0.00000000000E+00 -0.54820660570E+03  0.54820660570E+03  0.00000000000E+00 0.  1.
         25    2    1    2    0    0  0.39399189381E+02 -0.15850088796E+02 -0.20568119499E+03  0.24444905360E+03  0.12508822645E+03 0.  0.
         23    2    1    2    0    0 -0.39399189381E+02  0.15850088796E+02 -0.31577888246E+03  0.33050408036E+03  0.87824387801E+02 0.  0.
          5    1    3    3  502    0  0.80596576302E+02  0.79348180111E+01 -0.10207294339E+03  0.13036536205E+03  0.41800000000E+01 0.  1.
         -5    1    3    3    0  502 -0.41197386920E+02 -0.23784906807E+02 -0.10360825159E+03  0.11408369156E+03  0.41800000000E+01 0.  1.
        -11    1    4    4    0    0 -0.11132910038E+02 -0.36227948903E+02 -0.10890390491E+03  0.11531030514E+03  0.00000000000E+00 0. -1.
         11    1    4    4    0    0 -0.28266279343E+02  0.52078037699E+02 -0.20687497755E+03  0.21519377522E+03  0.00000000000E+00 0.  1.
</event>
<event>
 8    1  0.6901948E-009  0.1060988E+03  0.7561462E-02  0.1267970E+00
         -2   -1    0    0    0  501 -0.00000000000E+00  0.00000000000E+00  0.17617515257E+02  0.17617515257E+02  0.00000000000E+00 0.  1.
          2   -1    0    0  501    0  0.00000000000E+00 -0.00000000000E+00 -0.78804465634E+03  0.78804465634E+03  0.00000000000E+00 0. -1.
         25    2    1    2    0    0  0.26367176554E+02 -0.23299560624E+02 -0.45136931520E+03  0.46970181313E+03  0.12508971589E+03 0.  0.
         23    2    1    2    0    0 -0.26367176554E+02  0.23299560624E+02 -0.31905782588E+03  0.33596035847E+03  0.99163343454E+02 0.  0.
          5    1    3    3  502    0 -0.13687045676E+02 -0.57298508190E+02 -0.11550994137E+03  0.12973231369E+03  0.41800000000E+01 0. -1.
         -5    1    3    3    0  502  0.40054222230E+02  0.33998947566E+02 -0.33585937384E+03  0.33996949944E+03  0.41800000000E+01 0. -1.
        -11    1    4    4    0    0 -0.56012894386E+02  0.37657755838E+02 -0.16222577998E+03  0.17570644440E+03  0.00000000000E+00 0.  1.
         11    1    4    4    0    0  0.29645717833E+02 -0.14358195214E+02 -0.15683204589E+03  0.16025391407E+03  0.00000000000E+00 0. -1.
</event>
<event>
 8    1  0.6901948E-009  0.2432648E+03  0.7561462E-02  0.1117637E+00
         -2   -1    0    0    0  501 -0.00000000000E+00  0.00000000000E+00  0.34189726866E+02  0.34189726866E+02  0.00000000000E+00 0.  1.
          2   -1    0    0  501    0  0.00000000000E+00 -0.00000000000E+00 -0.18742120536E+04  0.18742120536E+04  0.00000000000E+00 0. -1.
         25    2    1    2    0    0  0.21246457293E+03 -0.82853019147E+02 -0.93981459139E+03  0.97514354769E+03  0.12509058673E+03 0.  0.
         23    2    1    2    0    0 -0.21246457293E+03  0.82853019147E+02 -0.90020773533E+03  0.93325823276E+03  0.92688428234E+02 0.  0.
          5    1    3    3  502    0  0.76764761626E+02 -0.84200236387E+02 -0.29669907630E+03  0.31785267454E+03  0.41800000000E+01 0. -1.
         -5    1    3    3    0  502  0.13569981131E+03  0.13472172394E+01 -0.64311551508E+03  0.65729087315E+03  0.41800000000E+01 0. -1.
        -11    1    4    4    0    0 -0.20036336921E+03  0.57185493220E+02 -0.85384080709E+03  0.87889691330E+03  0.00000000000E+00 0. -1.
         11    1    4    4    0    0 -0.12101203718E+02  0.25667525927E+02 -0.46366928240E+02  0.54361319456E+02  0.00000000000E+00 0.  1.
</event>
<event>
 8    1  0.6901948E-009  0.1436451E+03  0.7561462E-02  0.1208507E+00
         -2   -1    0    0    0  501 -0.00000000000E+00  0.00000000000E+00  0.22576981927E+02  0.22576981927E+02  0.00000000000E+00 0.  1.
          2   -1    0    0  501    0  0.00000000000E+00 -0.00000000000E+00 -0.12291806914E+04  0.12291806914E+04  0.00000000000E+00 0. -1.
         25    2    1    2    0    0 -0.11352411145E+03 -0.55945270103E+02 -0.67066323614E+03  0.69386893111E+03  0.12508924864E+03 0.  0.
         23    2    1    2    0    0  0.11352411145E+03  0.55945270103E+02 -0.53594047337E+03  0.55788874225E+03  0.89387138946E+02 0.  0.
          5    1    3    3  502    0 -0.10025997972E+03 -0.24568593900E+02 -0.23317719476E+03  0.25503873411E+03  0.41800000000E+01 0.  1.
         -5    1    3    3    0  502 -0.13264131729E+02 -0.31376676203E+02 -0.43748604138E+03  0.43883019700E+03  0.41800000000E+01 0.  1.
        -11    1    4    4    0    0  0.25234515361E+02 -0.20779951478E+02 -0.66568146365E+02  0.74161346127E+02  0.00000000000E+00 0. -1.
         11    1    4    4    0    0  0.88289596084E+02  0.76725221581E+02 -0.46937232701E+03  0.48372739613E+03  0.00000000000E+00 0.  1.
</event>
<event>
 8    1  0.6901948E-009  0.1227126E+03  0.7561462E-02  0.1238688E+00
          3   -1    0    0  501    0  0.00000000000E+00  0.00000000000E+00  0.49382615053E+03  0.49382615053E+03  0.00000000000E+00 0. -1.
         -3   -1    0    0    0  501 -0.00000000000E+00 -0.00000000000E+00 -0.44507079445E+02  0.44507079445E+02  0.00000000000E+00 0.  1.
         25    2    1    2    0    0 -0.44895290982E+02  0.38250774227E+02  0.98988323917E+02  0.17007165580E+03  0.12508785294E+03 0.  0.
         23    2    1    2    0    0  0.44895290982E+02 -0.38250774227E+02  0.35033074717E+03  0.36826157418E+03  0.96985801649E+02 0.  0.
          5    1    3    3  502    0  0.25192644842E+02  0.59180939486E+02  0.38628256995E+02  0.75144311768E+02  0.41800000000E+01 0.  1.
         -5    1    3    3    0  502 -0.70087935825E+02 -0.20930165259E+02  0.60360066922E+02  0.94927344031E+02  0.41800000000E+01 0.  1.
        -11    1    4    4    0    0 -0.39295229695E+01  0.26398413921E+02  0.14667540738E+03  0.14908384399E+03  0.00000000000E+00 0.  1.
         11    1    4    4    0    0  0.48824813952E+02 -0.64649188148E+02  0.20365533979E+03  0.21917773018E+03  0.00000000000E+00 0. -1.
</event>
<event>
 8    1  0.6901948E-009  0.8763072E+02  0.7561462E-02  0.1308693E+00
          1   -1    0    0  501    0  0.00000000000E+00  0.00000000000E+00  0.30101562791E+03  0.30101562791E+03  0.00000000000E+00 0. -1.
         -1   -1    0    0    0  501 -0.00000000000E+00 -0.00000000000E+00 -0.47183022747E+02  0.47183022747E+02  0.00000000000E+00 0.  1.
         25    2    1    2    0    0 -0.27267872883E+01  0.47580868605E+02  0.16181810328E+03  0.21001274257E+03  0.12509547981E+03 0.  0.
         23    2    1    2    0    0  0.27267872883E+01 -0.47580868605E+02  0.92014501884E+02  0.13818590808E+03  0.91418281589E+02 0.  0.
          5    1    3    3  502    0  0.38927992072E+02  0.65710232453E+02  0.56057578402E+02  0.94832208200E+02  0.41800000000E+01 0. -1.
         -5    1    3    3    0  502 -0.41654779360E+02 -0.18129363847E+02  0.10576052488E+03  0.11518053438E+03  0.41800000000E+01 0. -1.
        -11    1    4    4    0    0 -0.83090516507E+01 -0.36787386652E+02  0.10893689799E+03  0.11528052697E+03  0.00000000000E+00 0. -1.
         11    1    4    4    0    0  0.11035838939E+02 -0.10793481953E+02 -0.16922396104E+02  0.22905381107E+02  0.00000000000E+00 0.  1.
</event>
<event>
 8    1  0.6901948E-009  0.1635895E+03  0.7561462E-02  0.1184703E+00
         -2   -1    0    0    0  501 -0.00000000000E+00  0.00000000000E+00  0.67984924182E+02  0.67984924182E+02  0.00000000000E+00 0.  1.
          2   -1    0    0  501    0  0.00000000000E+00 -0.00000000000E+00 -0.50393850833E+03  0.50393850833E+03  0.00000000000E+00 0. -1.
         25    2    1    2    0    0  0.14868293424E+03  0.18368009125E+02 -0.20542872607E+03  0.28335904737E+03  0.12508952610E+03 0.  0.
         23    2    1    2    0    0 -0.14868293424E+03 -0.18368009125E+02 -0.23052485809E+03  0.28856438514E+03  0.87656691034E+02 0.  0.
          5    1    3    3  502    0  0.95250761200E+02 -0.24740671050E+02 -0.18825409955E+03  0.21246620134E+03  0.41800000000E+01 0. -1.
         -5    1    3    3    0  502  0.53432173044E+02  0.43108680175E+02 -0.17174626512E+02  0.70892846032E+02  0.41800000000E+01 0. -1.
        -11    1    4    4    0    0 -0.12602392544E+03 -0.36136779236E+02 -0.22319475865E+03  0.25885091633E+03  0.00000000000E+00 0. -1.
         11    1    4    4    0    0 -0.22659008807E+02  0.17768770111E+02 -0.73300994413E+01  0.29713468818E+02  0.00000000000E+00 0.  1.
</event>
<event>
 8    1  0.6901948E-009  0.1369541E+03  0.7561462E-02  0.1217487E+00
          1   -1    0    0  501    0  0.00000000000E+00  0.00000000000E+00  0.55927802559E+03  0.55927802559E+03  0.00000000000E+00 0. -1.
         -1   -1    0    0    0  501 -0.00000000000E+00 -0.00000000000E+00 -0.49980380668E+02  0.49980380668E+02  0.00000000000E+00 0.  1.
         25    2    1    2    0    0 -0.53308240588E+02  0.89879269321E+02  0.39062554330E+03  0.42327024035E+03  0.12509728104E+03 0.  0.
         23    2    1    2    0    0  0.53308240588E+02 -0.89879269321E+02  0.11867210162E+03  0.18598816590E+03  0.97920777079E+02 0.  0.
          5    1    3    3  502    0 -0.59847279927E+02  0.10891895120E+03  0.23114718109E+03  0.26247195387E+03  0.41800000000E+01 0.  1.
         -5    1    3    3    0  502  0.65390393390E+01 -0.19039681881E+02  0.15947836221E+03  0.16079828648E+03  0.41800000000E+01 0.  1.
        -11    1    4    4    0    0  0.14213213864E+02 -0.88757355557E+02  0.11604810311E+03  0.14678912033E+03  0.00000000000E+00 0. -1.
         11    1    4    4    0    0  0.39095026723E+02 -0.11219137638E+01  0.26239985112E+01  0.39199045565E+02  0.00000000000E+00 0.  1.
</event>
<event>
 7    1  0.6901948E-009  0.9896982E+02  0.7561462E-02  0.1282477E+00
         -4   -1    0    0    0  501 -0.00000000000E+00  0.00000000000E+00  0.68221175778E+03  0.68221175778E+03  0.00000000000E+00 0.  1.
          4   -1    0    0  501    0  0.00000000000E+00 -0.00000000000E+00 -0.15638310486E+02  0.15638310486E+02  0.00000000000E+00 0. -1.
         25    2    1    2    0    0 -0.42136570116E+02 -0.23551863299E+02  0.49780562918E+03  0.51554667298E+03  0.12509095399E+03 0.  0.
          5    1    3    3  502    0 -0.73688242278E+02 -0.50524285908E+02  0.38555920488E+03  0.39579797041E+03  0.41800000000E+01 0. -1.
         -5    1    3    3    0  502  0.31551672161E+02  0.26972422609E+02  0.11224642431E+03  0.11974870257E+03  0.41800000000E+01 0. -1.
        -11    1    1    2    0    0 -0.31284416645E+01 -0.99709704333E+01  0.13095494134E+02  0.16754085031E+02  0.00000000000E+00 0. -1.
         11    1    1    2    0    0  0.45265011781E+02  0.33522833732E+02  0.15567232397E+03  0.16554931025E+03  0.00000000000E+00 0.  1.
</event>
<event>
 8    1  0.6901948E-009  0.3360850E+03  0.7561462E-02  0.1068476E+00
          1   -1    0    0  501    0  0.00000000000E+00  0.00000000000E+00  0.53600865798E+03  0.53600865798E+03  0.00000000000E+00 0. -1.
         -1   -1    0    0    0  501 -0.00000000000E+00 -0.00000000000E+00 -0.29433258668E+03  0.29433258668E+03  0.00000000000E+00 0.  1.
         25    2    1    2    0    0 -0.31806050582E+03 -0.83883171946E+02  0.32442175883E+03  0.47864045918E+03  0.12509332383E+03 0.  0.
         23    2    1    2    0    0  0.31806050582E+03  0.83883171946E+02 -0.82745687530E+02  0.35170078548E+03  0.92993127724E+02 0.  0.
          5    1    3    3  502    0 -0.73728309947E+02 -0.37105447679E+02  0.19176518766E+02  0.84840374864E+02  0.41800000000E+01 0.  1.
         -5    1    3    3    0  502 -0.24433219587E+03 -0.46777724267E+02  0.30524524007E+03  0.39380008432E+03  0.41800000000E+01 0.  1.
        -11    1    4    4    0    0  0.22607064887E+03  0.16462719675E+02 -0.41602201533E+02  0.23045542430E+03  0.00000000000E+00 0.  1.
         11    1    4    4    0    0  0.91989856949E+02  0.67420452271E+02 -0.41143485997E+02  0.12124536117E+03  0.00000000000E+00 0. -1.
</event>
<event>
 8    1  0.6901948E-009  0.9719330E+02  0.7561462E-02  0.1286311E+00
          1   -1    0    0  501    0  0.00000000000E+00  0.00000000000E+00  0.32205397717E+02  0.32205397717E+02  0.00000000000E+00 0. -1.
         -1   -1    0    0    0  501 -0.00000000000E+00 -0.00000000000E+00 -0.36738610191E+03  0.36738610191E+03  0.00000000000E+00 0.  1.
         25    2    1    2    0    0 -0.82108552435E+01 -0.11299657895E+02 -0.17538038128E+03  0.21587568220E+03  0.12509568983E+03 0.  0.
         23    2    1    2    0    0  0.82108552435E+01  0.11299657895E+02 -0.15980032291E+03  0.18371581743E+03  0.89555892931E+02 0.  0.
          5    1    3    3  502    0  0.50182416629E+02  0.87427379157E+01 -0.33557683565E+02  0.61141646455E+02  0.41800000000E+01 0.  1.
         -5    1    3    3    0  502 -0.58393271872E+02 -0.20042395810E+02 -0.14182269772E+03  0.15473403574E+03  0.41800000000E+01 0.  1.
        -11    1    4    4    0    0  0.43030024429E+02 -0.43006409010E+01 -0.12427251802E+03  0.13158167520E+03  0.00000000000E+00 0.  1.
         11    1    4    4    0    0 -0.34819169185E+02  0.15600298796E+02 -0.35527804898E+02  0.52134142231E+02  0.00000000000E+00 0. -1.
</event>
<event>
 8    1  0.6901948E-009  0.1715758E+03  0.7561462E-02  0.1176214E+00
         -2   -1    0    0    0  501 -0.00000000000E+00  0.00000000000E+00  0.65916879722E+02  0.65916879722E+02  0.00000000000E+00 0.  1.
          2   -1    0    0  501    0  0.00000000000E+00 -0.00000000000E+00 -0.56955772988E+03  0.56955772988E+03  0.00000000000E+00 0. -1.
         25    2    1    2    0    0 -0.70802183225E+02  0.13040135928E+03 -0.36161449336E+03  0.41040047021E+03  0.12508413362E+03 0.  0.
         23    2    1    2    0    0  0.70802183225E+02 -0.13040135928E+03 -0.14202635680E+03  0.22507413940E+03  0.92029443925E+02 0.  0.
          5    1    3    3  502    0  0.26737031608E+02 -0.40264682085E+00 -0.85169564268E+02  0.89366425805E+02  0.41800000000E+01 0. -1.
         -5    1    3    3    0  502 -0.97539214833E+02  0.13080400610E+03 -0.27644492910E+03  0.32103404440E+03  0.41800000000E+01 0. -1.
        -11    1    4    4    0    0  0.71336732480E+02 -0.10206198283E+03 -0.15064636452E+03  0.19544795953E+03  0.00000000000E+00 0. -1.
         11    1    4    4    0    0 -0.53454925521E+00 -0.28339376453E+02  0.86200077236E+01  0.29626179872E+02  0.00000000000E+00 0.  1.
</event>
<event>
 8    1  0.6901948E-009  0.1351362E+03  0.7561462E-02  0.1220028E+00
         -2   -1    0    0    0  501 -0.00000000000E+00  0.00000000000E+00  0.96570126996E+02  0.96570126996E+02  0.00000000000E+00 0.  1.
          2   -1    0    0  501    0  0.00000000000E+00 -0.00000000000E+00 -0.26895344089E+03  0.26895344089E+03  0.00000000000E+00 0. -1.
         25    2    1    2    0    0 -0.53205454280E+01 -0.11802440450E+03 -0.10789047555E+03  0.20309086429E+03  0.12508987242E+03 0.  0.
         23    2    1    2    0    0  0.53205454280E+01  0.11802440450E+03 -0.64492838344E+02  0.16243270360E+03  0.90922982465E+02 0.  0.
          5    1    3    3  502    0  0.89929971705E+01 -0.89953523457E+02  0.12198852151E+00  0.90498605855E+02  0.41800000000E+01 0.  1.
         -5    1    3    3    0  502 -0.14313542599E+02 -0.28070881039E+02 -0.10801246407E+03  0.11259225843E+03  0.41800000000E+01 0.  1.
        -11    1    4    4    0    0  0.43307838001E+02  0.92745617816E+02 -0.53502868468E+02  0.11549837830E+03  0.00000000000E+00 0.  1.
         11    1    4    4    0    0 -0.37987292573E+02  0.25278786680E+02 -0.10989969877E+02  0.46934325295E+02  0.00000000000E+00 0. -1.
</event>
<event>
 8    1  0.6901948E-009  0.1190443E+03  0.7561462E-02  0.1244682E+00
         -2   -1    0    0    0  501 -0.00000000000E+00  0.00000000000E+00  0.18695804755E+02  0.18695804755E+02  0.00000000000E+00 0.  1.
          2   -1    0    0  501    0  0.00000000000E+00 -0.00000000000E+00 -0.77870081246E+03  0.77870081246E+03  0.00000000000E+00 0. -1.
         25    2    1    2    0    0  0.21853311028E+02  0.40737377510E+02 -0.41512475867E+03  0.43601985866E+03  0.12509057024E+03 0.  0.
         23    2    1    2    0    0 -0.21853311028E+02 -0.40737377510E+02 -0.34488024904E+03  0.36137675855E+03  0.97538065981E+02 0.  0.
          5    1    3    3  502    0  0.72583609448E+02  0.28621626359E+02 -0.20249514431E+03  0.21704684684E+03  0.41800000000E+01 0. -1.
         -5    1    3    3    0  502 -0.50730298421E+02  0.12115751152E+02 -0.21262961436E+03  0.21897301182E+03  0.41800000000E+01 0. -1.
        -11    1    4    4    0    0  0.23915838424E+02 -0.54764675008E+02 -0.20496464950E+03  0.21349858196E+03  0.00000000000E+00 0. -1.
         11    1    4    4    0    0 -0.45769149452E+02  0.14027297497E+02 -0.13991559954E+03  0.14787817659E+03  0.00000000000E+00 0.  1.
</event>
<event>
 8    1  0.6901948E-009  0.1260054E+03  0.7561462E-02  0.1233506E+00
          2   -1    0    0  501    0  0.00000000000E+00  0.00000000000E+00  0.34487872283E+03  0.34487872283E+03  0.00000000000E+00 0. -1.
         -2   -1    0    0    0  501 -0.00000000000E+00 -0.00000000000E+00 -0.62950705630E+02  0.62950705630E+02  0.00000000000E+00 0.  1.
         25    2    1    2    0    0 -0.98159160126E+02  0.75199353128E+01  0.16972877904E+03  0.23269427526E+03  0.12508795769E+03 0.  0.
         23    2    1    2    0    0  0.98159160126E+02 -0.75199353128E+01  0.11219923816E+03  0.17513515320E+03  0.91607219693E+02 0.  0.
          5    1    3    3  502    0 -0.56486234621E+02  0.40238965739E+02  0.16536495017E+03  0.17936808025E+03  0.41800000000E+01 0. -1.
         -5    1    3    3    0  502 -0.41672925505E+02 -0.32719030426E+02  0.43638288686E+01  0.53326195013E+02  0.41800000000E+01 0. -1.
        -11    1    4    4    0    0  0.30457645102E+02 -0.43198992527E+02  0.23104340778E+02  0.57685627875E+02  0.00000000000E+00 0.  1.
         11    1    4    4    0    0  0.67701515024E+02  0.35679057214E+02  0.89094897383E+02  0.11744952533E+03  0.00000000000E+00 0. -1.
</event>
<event>
 8    1  0.6901948E-009  0.1160679E+03  0.7561462E-02  0.1249728E+00
          2   -1    0    0  501    0  0.00000000000E+00  0.00000000000E+00  0.69595026584E+03  0.69595026584E+03  0.00000000000E+00 0. -1.
         -2   -1    0    0    0  501 -0.00000000000E+00 -0.00000000000E+00 -0.22828535642E+02  0.22828535642E+02  0.00000000000E+00 0.  1.
         25    2    1    2    0    0  0.63443361691E+00  0.63035141192E+02  0.33287568841E+03  0.36114676660E+03  0.12508769547E+03 0.  0.
         23    2    1    2    0    0 -0.63443361691E+00 -0.63035141192E+02  0.34024604178E+03  0.35763203488E+03  0.90329795151E+02 0.  0.
          5    1    3    3  502    0 -0.56059035055E+02  0.10793274963E+02  0.93521931010E+02  0.10964914124E+03  0.41800000000E+01 0.  1.
         -5    1    3    3    0  502  0.56693468672E+02  0.52241866229E+02  0.23935375740E+03  0.25149762535E+03  0.41800000000E+01 0.  1.
        -11    1    4    4    0    0  0.36816966361E+02 -0.36047061606E+02  0.94944365751E+02  0.10802459095E+03  0.00000000000E+00 0. -1.
         11    1    4    4    0    0 -0.37451399978E+02 -0.26988079586E+02  0.24530167603E+03  0.24960744393E+03  0.00000000000E+00 0.  1.
</event>
<event>
 8    1  0.6901948E-009  0.1094417E+03  0.7561462E-02  0.1261607E+00
         -2   -1    0    0    0  501 -0.00000000000E+00  0.00000000000E+00  0.13297768697E+03  0.13297768697E+03  0.00000000000E+00 0.  1.
          2   -1    0    0  501    0  0.00000000000E+00 -0.00000000000E+00 -0.14343691828E+03  0.14343691828E+03  0.00000000000E+00 0. -1.
         25    2    1    2    0    0 -0.86671826746E+02 -0.85400432800E+01 -0.16562051046E+02  0.15332063444E+03  0.12509187631E+03 0.  0.
         23    2    1    2    0    0  0.86671826746E+02  0.85400432800E+01  0.61028197317E+01  0.12309397081E+03  0.86775246178E+02 0.  0.
          5    1    3    3  502    0  0.66593833376E+01  0.15165306318E+02 -0.48786877961E+02  0.51691060768E+02  0.41800000000E+01 0.  1.
         -5    1    3    3    0  502 -0.93331210083E+02 -0.23705349598E+02  0.32224826915E+02  0.10162957367E+03  0.41800000000E+01 0.  1.
        -11    1    4    4    0    0  0.35480013901E+02  0.33202682116E+02 -0.28724002213E+02  0.56447478148E+02  0.00000000000E+00 0. -1.
         11    1    4    4    0    0  0.51191812845E+02 -0.24662638836E+02  0.34826821945E+02  0.66646492657E+02  0.00000000000E+00 0.  1.
</event>
<event>
 8    1  0.6901948E-009  0.1048543E+03  0.7561462E-02  0.1270407E+00
         -1   -1    0    0    0  501 -0.00000000000E+00  0.00000000000E+00  0.29188802128E+03  0.29188802128E+03  0.00000000000E+00 0.  1.
          1   -1    0    0  501    0  0.00000000000E+00 -0.00000000000E+00 -0.45968757043E+02  0.45968757043E+02  0.00000000000E+00 0. -1.
         25    2    1    2    0    0  0.36172128596E+02 -0.18374491959E+02  0.13120690249E+03  0.18576584998E+03  0.12509058684E+03 0.  0.
         23    2    1    2    0    0 -0.36172128596E+02  0.18374491959E+02  0.11471236175E+03  0.15209092835E+03  0.91250642212E+02 0.  0.
          5    1    3    3  502    0  0.70242976371E+02 -0.30056732981E+02  0.37346933747E+02  0.85145456645E+02  0.41800000000E+01 0. -1.
         -5    1    3    3    0  502 -0.34070847775E+02  0.11682241022E+02  0.93859968738E+02  0.10062039334E+03  0.41800000000E+01 0. -1.
        -11    1    4    4    0    0  0.29114547991E+02  0.11423359158E+02  0.55364753243E+02  0.63587781380E+02  0.00000000000E+00 0.  1.
         11    1    4    4    0    0 -0.65286676587E+02  0.69511328009E+01  0.59347608511E+02  0.88503146966E+02  0.00000000000E+00 0. -1.
</event>
<event>
 8    1  0.6901948E-009  0.1113000E+03  0.7561462E-02  0.1258181E+00
         -1   -1    0    0    0  501 -0.00000000000E+00  0.00000000000E+00  0.50459472637E+02  0.50459472637E+02  0.00000000000E+00 0.  1.
          1   -1    0    0  501    0  0.00000000000E+00 -0.00000000000E+00 -0.40029589378E+03  0.40029589378E+03  0.00000000000E+00 0. -1.
         25    2    1    2    0    0  0.74005020220E+02 -0.62333647242E+02 -0.22535103398E+03  0.27530078356E+03  0.12508079915E+03 0.  0.
         23    2    1    2    0    0 -0.74005020220E+02  0.62333647242E+02 -0.12448538717E+03  0.17545458286E+03  0.76977090310E+02 0.  0.
          5    1    3    3  502    0  0.15696350133E+02  0.31229225570E+01  0.13172121806E+02  0.21144863340E+02  0.41800000000E+01 0.  1.
         -5    1    3    3    0  502  0.58308670087E+02 -0.65456569799E+02 -0.23852315578E+03  0.25415592022E+03  0.41800000000E+01 0.  1.
        -11    1    4    4    0    0 -0.67728011580E+01  0.49364197524E+02 -0.78485635773E+02  0.92966068301E+02  0.00000000000E+00 0.  1.
         11    1    4    4    0    0 -0.67232219062E+02  0.12969449718E+02 -0.45999751396E+02  0.82488514561E+02  0.00000000000E+00 0. -1.
</event>
<event>
 8    1  0.6901948E-009  0.6302095E+02  0.7561462E-02  0.1385574E+00
         -1   -1    0    0    0  501 -0.00000000000E+00  0.00000000000E+00  0.10847036652E+02  0.10847036652E+02  0.00000000000E+00 0.  1.
          1   -1    0    0  501    0  0.00000000000E+00 -0.00000000000E+00 -0.16661796574E+04  0.16661796574E+04  0.00000000000E+00 0. -1.
         25    2    1    2    0    0 -0.15391276380E+02  0.77641302610E+01 -0.13900483760E+04  0.13957716580E+04  0.12508741210E+03 0.  0.
         23    2    1    2    0    0  0.15391276380E+02 -0.77641302610E+01 -0.26528424472E+03  0.28125503598E+03  0.91823154276E+02 0.  0.
          5    1    3    3  502    0 -0.16852335891E+02 -0.63227536539E+01 -0.27431266452E+02  0.33074540328E+02  0.41800000000E+01 0. -1.
         -5    1    3    3    0  502  0.14610595116E+01  0.14086883915E+02 -0.13626171096E+04  0.13626971177E+04  0.41800000000E+01 0. -1.
        -11    1    4    4    0    0 -0.34922905145E+02  0.14453674785E+02 -0.12440734404E+03  0.13002194149E+03  0.00000000000E+00 0.  1.
         11    1    4    4    0    0  0.50314181524E+02 -0.22217805046E+02 -0.14087690068E+03  0.15123309449E+03  0.00000000000E+00 0. -1.
</event>
<event>
 8    1  0.6901948E-009  0.1231598E+03  0.7561462E-02  0.1237974E+00
          2   -1    0    0  501    0  0.00000000000E+00  0.00000000000E+00  0.29260842765E+02  0.29260842765E+02  0.00000000000E+00 0. -1.
         -2   -1    0    0    0  501 -0.00000000000E+00 -0.00000000000E+00 -0.62079579722E+03  0.62079579722E+03  0.00000000000E+00 0.  1.
         25    2    1    2    0    0  0.52276504880E+02  0.53141350829E+02 -0.25062987805E+03  0.28986322418E+03  0.12509403195E+03 0.  0.
         23    2    1    2    0    0 -0.52276504880E+02 -0.53141350829E+02 -0.34090507641E+03  0.36019341581E+03  0.89253512771E+02 0.  0.
          5    1    3    3  502    0  0.20839697800E+02  0.85155524593E+02 -0.21562059067E+03  0.23279920080E+03  0.41800000000E+01 0. -1.
         -5    1    3    3    0  502  0.31436807080E+02 -0.32014173764E+02 -0.35009287386E+02  0.57064023382E+02  0.41800000000E+01 0. -1.
        -11    1    4    4    0    0 -0.44797663091E+02  0.13219775493E+02 -0.18042904879E+03  0.18637659383E+03  0.00000000000E+00 0.  1.
         11    1    4    4    0    0 -0.74788417882E+01 -0.66361126322E+02 -0.16047602762E+03  0.17381682198E+03  0.00000000000E+00 0. -1.
</event>
<event>
 8    1  0.6901948E-009  0.9591420E+02  0.7561462E-02  0.1289130E+00
         -2   -1    0    0    0  501 -0.00000000000E+00  0.00000000000E+00  0.21538222807E+03  0.21538222807E+03  0.00000000000E+00 0.  1.
          2   -1    0    0  501    0  0.00000000000E+00 -0.00000000000E+00 -0.58136011988E+02  0.58136011988E+02  0.00000000000E+00 0. -1.
         25    2    1    2    0    0  0.14930883505E+02 -0.10597002651E+02  0.10012975000E+03  0.16127096943E+03  0.12508849267E+03 0.  0.
         23    2    1    2    0    0 -0.14930883505E+02  0.10597002651E+02  0.57116466086E+02  0.11224727063E+03  0.94878508203E+02 0.  0.
          5    1    3    3  502    0 -0.11700872641E+02 -0.52443690334E+02  0.52811346897E+01  0.54153613545E+02  0.41800000000E+01 0. -1.
         -5    1    3    3    0  502  0.26631756147E+02  0.41846687683E+02  0.94848615309E+02  0.10711735588E+03  0.41800000000E+01 0. -1.
        -11    1    4    4    0    0  0.27376757744E+02  0.30853025276E+02  0.49976781667E+02  0.64800268048E+02  0.00000000000E+00 0.  1.
         11    1    4    4    0    0 -0.42307641250E+02 -0.20256022625E+02  0.71396844190E+01  0.47447002585E+02  0.00000000000E+00 0. -1.
</event>
<event>
 8    1  0.6901948E-009  0.1257210E+03  0.7561462E-02  0.1233947E+00
          4   -1    0    0  501    0  0.00000000000E+00  0.00000000000E+00  0.14006029134E+03  0.14006029134E+03  0.00000000000E+00 0. -1.
         -4   -1    0    0    0  501 -0.00000000000E+00 -0.00000000000E+00 -0.14971508774E+03  0.14971508774E+03  0.00000000000E+00 0.  1.
         25    2    1    2    0    0 -0.18088945812E+02 -0.95044210905E+02 -0.32259199158E+02  0.16139422657E+03  0.12508728334E+03 0.  0.
         23    2    1    2    0    0  0.18088945812E+02  0.95044210905E+02  0.22604402756E+02  0.12838115251E+03  0.81302824728E+02 0.  0.
          5    1    3    3  502    0 -0.63721378743E+02 -0.80534635823E+02  0.12727689299E+01  0.10278781064E+03  0.41800000000E+01 0. -1.
         -5    1    3    3    0  502  0.45632432931E+02 -0.14509575082E+02 -0.33531968088E+02  0.58606415929E+02  0.41800000000E+01 0. -1.
        -11    1    4    4    0    0  0.34018054336E+01  0.78094036740E+02 -0.19599648403E+02  0.80587822107E+02  0.00000000000E+00 0.  1.
         11    1    4    4    0    0  0.14687140378E+02  0.16950174165E+02  0.42204051159E+02  0.47793330403E+02  0.00000000000E+00 0. -1.
</event>
<event>
 8    1  0.6901948E-009  0.1106661E+03  0.7561462E-02  0.1259341E+00
         -1   -1    0    0    0  501 -0.00000000000E+00  0.00000000000E+00  0.27326314078E+02  0.27326314078E+02  0.00000000000E+00 0.  1.
          1   -1    0    0  501    0  0.00000000000E+00 -0.00000000000E+00 -0.81943964909E+03  0.81943964909E+03  0.00000000000E+00 0. -1.
         25    2    1    2    0    0  0.88063355532E+02 -0.26823764598E+02 -0.29636746878E+03  0.33459919758E+03  0.12509307548E+03 0.  0.
         23    2    1    2    0    0 -0.88063355532E+02  0.26823764598E+02 -0.49574586623E+03  0.51216676559E+03  0.89867474390E+02 0.  0.
          5    1    3    3  502    0  0.27524181680E+02 -0.52413710430E+01 -0.25816507250E+03  0.25971470810E+03  0.41800000000E+01 0.  1.
         -5    1    3    3    0  502  0.60539173852E+02 -0.21582393555E+02 -0.38202396283E+02  0.74884489475E+02  0.41800000000E+01 0.  1.
        -11    1    4    4    0    0 -0.10648740570E+02 -0.30476034640E+02 -0.13096962568E+03  0.13488968535E+03  0.00000000000E+00 0. -1.
         11    1    4    4    0    0 -0.77414614961E+02  0.57299799238E+02 -0.36477624055E+03  0.37727708024E+03  0.00000000000E+00 0.  1.
</event>
<event>
 8    1  0.6901948E-009  0.1105877E+03  0.7561462E-02  0.1259486E+00
          2   -1    0    0  501    0  0.00000000000E+00  0.00000000000E+00  0.12435273166E+03  0.12435273166E+03  0.00000000000E+00 0. -1.
         -2   -1    0    0    0  501 -0.00000000000E+00 -0.00000000000E+00 -0.12703254986E+03  0.12703254986E+03  0.00000000000E+00 0.  1.
         25    2    1    2    0    0 -0.25499406309E+02 -0.47778266848E+02 -0.30587579540E+02  0.13969798015E+03  0.12508774173E+03 0.  0.
         23    2    1    2    0    0  0.25499406309E+02  0.47778266848E+02  0.27907761344E+02  0.11168730136E+03  0.93606771323E+02 0.  0.
          5    1    3    3  502    0 -0.95919200001E+01  0.31859473917E+02  0.24453922163E+02  0.41502984432E+02  0.41800000000E+01 0.  1.
         -5    1    3    3    0  502 -0.15907486308E+02 -0.79637740765E+02 -0.55041501703E+02  0.98194995721E+02  0.41800000000E+01 0.  1.
        -11    1    4    4    0    0  0.58858063190E+02  0.42385757020E+02  0.93403108620E+01  0.73130468395E+02  0.00000000000E+00 0.  1.
         11    1    4    4    0    0 -0.33358656881E+02  0.53925098283E+01  0.18567450482E+02  0.38556832969E+02  0.00000000000E+00 0. -1.
</event>
<event>
 8    1  0.6901948E-009  0.7853821E+02  0.7561462E-02  0.1333252E+00
         -2   -1    0    0    0  501 -0.00000000000E+00  0.00000000000E+00  0.11524313670E+03  0.11524313670E+03  0.00000000000E+00 0.  1.
          2   -1    0    0  501    0  0.00000000000E+00 -0.00000000000E+00 -0.12859727395E+03  0.12859727395E+03  0.00000000000E+00 0. -1.
         25    2    1    2    0    0 -0.47305535466E+02 -0.15953399332E+02 -0.38821587337E+02  0.14017258084E+03  0.12509561199E+03 0.  0.
         23    2    1    2    0    0  0.47305535466E+02  0.15953399332E+02  0.25467450089E+02  0.10366782981E+03  0.87212976598E+02 0.  0.
          5    1    3    3  502    0 -0.45129805956E+01  0.15544088928E+02 -0.74292137083E+02  0.76149719152E+02  0.41800000000E+01 0.  1.
         -5    1    3    3    0  502 -0.42792554870E+02 -0.31497488260E+02  0.35470549747E+02  0.64022861685E+02  0.41800000000E+01 0.  1.
        -11    1    4    4    0    0  0.33121440635E+02 -0.26425225588E+02  0.38359921892E+02  0.57155979430E+02  0.00000000000E+00 0.  1.
         11    1    4    4    0    0  0.14184094831E+02  0.42378624920E+02 -0.12892471803E+02  0.46511850377E+02  0.00000000000E+00 0. -1.
</event>
<event>
 8    1  0.6901948E-009  0.7209760E+02  0.7561462E-02  0.1353102E+00
         -2   -1    0    0    0  501 -0.00000000000E+00  0.00000000000E+00  0.56427957138E+02  0.56427957138E+02  0.00000000000E+00 0.  1.
          2   -1    0    0  501    0  0.00000000000E+00 -0.00000000000E+00 -0.23845738525E+03  0.23845738525E+03  0.00000000000E+00 0. -1.
         25    2    1    2    0    0 -0.30571448237E+02 -0.19792255175E+02 -0.10391232492E+03  0.16664522466E+03  0.12508602168E+03 0.  0.
         23    2    1    2    0    0  0.30571448237E+02  0.19792255175E+02 -0.78117103200E+02  0.12824011773E+03  0.94957354490E+02 0.  0.
          5    1    3    3  502    0  0.13566714823E+01  0.19236617676E+01  0.28373264773E+02  0.28775954997E+02  0.41800000000E+01 0.  1.
         -5    1    3    3    0  502 -0.31928119720E+02 -0.21715916943E+02 -0.13228558969E+03  0.13786926966E+03  0.41800000000E+01 0.  1.
        -11    1    4    4    0    0  0.36264606853E+02 -0.32054595850E+02 -0.28053396125E+02  0.55942933954E+02  0.00000000000E+00 0.  1.
         11    1    4    4    0    0 -0.56931586154E+01  0.51846851025E+02 -0.50063707075E+02  0.72297183779E+02  0.00000000000E+00 0. -1.
</event>
<event>
 8    1  0.6901948E-009  0.1116144E+03  0.7561462E-02  0.1257609E+00
         -1   -1    0    0    0  501 -0.00000000000E+00  0.00000000000E+00  0.11618743798E+02  0.11618743798E+02  0.00000000000E+00 0.  1.
          1   -1    0    0  501    0  0.00000000000E+00 -0.00000000000E+00 -0.11022436345E+04  0.11022436345E+04  0.00000000000E+00 0. -1.
         25    2    1    2    0    0  0.83008334936E+01 -0.30164519997E+02 -0.57187303818E+03  0.58622941974E+03  0.12508940267E+03 0.  0.
         23    2    1    2    0    0 -0.83008334936E+01  0.30164519997E+02 -0.51875185252E+03  0.52763295856E+03  0.91182522253E+02 0.  0.
          5    1    3    3  502    0 -0.39684045246E+02  0.29881091869E+02 -0.27844235394E+03  0.28286979331E+03  0.41800000000E+01 0.  1.
         -5    1    3    3    0  502  0.47984878740E+02 -0.60045611866E+02 -0.29343068425E+03  0.30335962643E+03  0.41800000000E+01 0.  1.
        -11    1    4    4    0    0  0.35345670095E+02 -0.10368924406E+02 -0.19747856679E+03  0.20088458211E+03  0.00000000000E+00 0. -1.
         11    1    4    4    0    0 -0.43646503588E+02  0.40533444403E+02 -0.32127328573E+03  0.32674837645E+03  0.00000000000E+00 0.  1.
</event>
<event>
 8    1  0.6901948E-009  0.1688218E+03  0.7561462E-02  0.1179082E+00
         -2   -1    0    0    0  501 -0.00000000000E+00  0.00000000000E+00  0.18104356740E+02  0.18104356740E+02  0.00000000000E+00 0.  1.
          2   -1    0    0  501    0  0.00000000000E+00 -0.00000000000E+00 -0.19194419841E+04  0.19194419841E+04  0.00000000000E+00 0. -1.
         25    2    1    2    0    0  0.63828297711E+02  0.13431489073E+03 -0.11801701907E+04  0.11960615233E+04  0.12508775739E+03 0.  0.
         23    2    1    2    0    0 -0.63828297711E+02 -0.13431489073E+03 -0.72116743664E+03  0.74148481752E+03  0.87193586210E+02 0.  0.
          5    1    3    3  502    0  0.72202623563E+02  0.14412051943E+03 -0.82376876323E+03  0.83940240091E+03  0.41800000000E+01 0.  1.
         -5    1    3    3    0  502 -0.83743258524E+01 -0.98056286961E+01 -0.35640142749E+03  0.35665912242E+03  0.41800000000E+01 0.  1.
        -11    1    4    4    0    0 -0.60643813814E+02 -0.50372331966E+02 -0.22875289388E+03  0.24195646394E+03  0.00000000000E+00 0.  1.
         11    1    4    4    0    0 -0.31844838973E+01 -0.83942558768E+02 -0.49241454276E+03  0.49952835358E+03  0.00000000000E+00 0. -1.
</event>
<event>
 8    1  0.6901948E-009  0.1010398E+03  0.7561462E-02  0.1278125E+00
          1   -1    0    0  501    0  0.00000000000E+00  0.00000000000E+00  0.61374142820E+03  0.61374142820E+03  0.00000000000E+00 0. -1.
         -1   -1    0    0    0  501 -0.00000000000E+00 -0.00000000000E+00 -0.30965432721E+02  0.30965432721E+02  0.00000000000E+00 0.  1.
         25    2    1    2    0    0  0.39218045634E+02 -0.21163527340E+02  0.48923268572E+03  0.50693352379E+03  0.12508807607E+03 0.  0.
         23    2    1    2    0    0 -0.39218045634E+02  0.21163527340E+02  0.93543309763E+02  0.13777333713E+03  0.90803037561E+02 0.  0.
          5    1    3    3  502    0  0.78699809986E+02 -0.34296556402E+02  0.38795637330E+03  0.39736322660E+03  0.41800000000E+01 0. -1.
         -5    1    3    3    0  502 -0.39481764352E+02  0.13133029061E+02  0.10127631242E+03  0.10957029719E+03  0.41800000000E+01 0. -1.
        -11    1    4    4    0    0 -0.61757393094E+01 -0.20342464537E+02  0.80336701591E+02  0.83101993008E+02  0.00000000000E+00 0. -1.
         11    1    4    4    0    0 -0.33042306324E+02  0.41505991877E+02  0.13206608172E+02  0.54671344124E+02  0.00000000000E+00 0.  1.
</event>
<event>
 8    1  0.6901948E-009  0.6956739E+02  0.7561462E-02  0.1361570E+00
         -1   -1    0    0    0  501 -0.00000000000E+00  0.00000000000E+00  0.34216203713E+02  0.34216203713E+02  0.00000000000E+00 0. -1.
          1   -1    0    0  501    0  0.00000000000E+00 -0.00000000000E+00 -0.49837654765E+03  0.49837654765E+03  0.00000000000E+00 0.  1.
         25    2    1    2    0    0  0.54245649657E+02  0.62395114548E+01 -0.16060328185E+03  0.21076666693E+03  0.12509057413E+03 0.  0.
         23    2    1    2    0    0 -0.54245649657E+02 -0.62395114548E+01 -0.30355706208E+03  0.32182608443E+03  0.91889154257E+02 0.  0.
          5    1    3    3  502    0  0.25889503883E+02 -0.14732976810E+02 -0.17110631559E+03  0.17373016621E+03  0.41800000000E+01 0. -1.
         -5    1    3    3    0  502  0.28356145774E+02  0.20972488265E+02  0.10503033744E+02  0.37036500712E+02  0.41800000000E+01 0. -1.
        -11    1    4    4    0    0 -0.47935115405E+02  0.15911147965E+02 -0.29147282104E+03  0.29581640475E+03  0.00000000000E+00 0.  1.
         11    1    4    4    0    0 -0.63105342515E+01 -0.22150659420E+02 -0.12084241047E+02  0.26009679678E+02  0.00000000000E+00 0. -1.
</event>
<event>
 8    1  0.6901948E-009  0.9292151E+02  0.7561462E-02  0.1295927E+00
         -3   -1    0    0    0  501 -0.00000000000E+00  0.00000000000E+00  0.18737047558E+02  0.18737047558E+02  0.00000000000E+00 0. -1.
          3   -1    0    0  501    0  0.00000000000E+00 -0.00000000000E+00 -0.65111842618E+03  0.65111842618E+03  0.00000000000E+00 0.  1.
         25    2    1    2    0    0  0.18243339423E+02 -0.21460686885E+02 -0.41760753506E+03  0.43684875307E+03  0.12508956474E+03 0.  0.
         23    2    1    2    0    0 -0.18243339423E+02  0.21460686885E+02 -0.21477384357E+03  0.23300672067E+03  0.85854222280E+02 0.  0.
          5    1    3    3  502    0  0.25555695557E+02 -0.67057314583E+02 -0.32987971096E+03  0.33762090148E+03  0.41800000000E+01 0.  1.
         -5    1    3    3    0  502 -0.73123561341E+01  0.45596627698E+02 -0.87727824099E+02  0.99227851588E+02  0.41800000000E+01 0.  1.
        -11    1    4    4    0    0 -0.38021034088E+02 -0.51749071705E+00 -0.37929198528E+02  0.53707456938E+02  0.00000000000E+00 0. -1.
         11    1    4    4    0    0  0.19777694665E+02  0.21978177602E+02 -0.17684464504E+03  0.17929926373E+03  0.00000000000E+00 0.  1.
</event>
<event>
 8    1  0.6901948E-009  0.1452057E+03  0.7561462E-02  0.1206491E+00
         -2   -1    0    0    0  501 -0.00000000000E+00  0.00000000000E+00  0.13232829511E+04  0.13232829511E+04  0.00000000000E+00 0.  1.
          2   -1    0    0  501    0  0.00000000000E+00 -0.00000000000E+00 -0.33166805694E+02  0.33166805694E+02  0.00000000000E+00 0. -1.
         25    2    1    2    0    0 -0.35726063433E+02 -0.11200720189E+03  0.11106979918E+04  0.11238855822E+04  0.12508720172E+03 0.  0.
         23    2    1    2    0    0  0.35726063433E+02  0.11200720189E+03  0.17941815365E+03  0.23256417462E+03  0.89851302575E+02 0.  0.
          5    1    3    3  502    0 -0.59586034976E+02 -0.55105215229E+02  0.91608450511E+03  0.91968221316E+03  0.41800000000E+01 0. -1.
         -5    1    3    3    0  502  0.23859971543E+02 -0.56901986665E+02  0.19461348665E+03  0.20420336901E+03  0.41800000000E+01 0. -1.
        -11    1    4    4    0    0  0.62396756614E+00 -0.15263879534E+02  0.26045274893E+02  0.30194895235E+02  0.00000000000E+00 0.  1.
         11    1    4    4    0    0  0.35102095867E+02  0.12727108143E+03  0.15337287875E+03  0.20236927939E+03  0.00000000000E+00 0. -1.
</event>
<event>
 8    1  0.6901948E-009  0.1223475E+03  0.7561462E-02  0.1239274E+00
          1   -1    0    0  501    0  0.00000000000E+00  0.00000000000E+00  0.62717972015E+03  0.62717972015E+03  0.00000000000E+00 0. -1.
         -1   -1    0    0    0  501 -0.00000000000E+00 -0.00000000000E+00 -0.33014587907E+02  0.33014587907E+02  0.00000000000E+00 0.  1.
         25    2    1    2    0    0 -0.44474297898E+02 -0.72195907192E+02  0.22761506470E+03  0.27321274534E+03  0.12508546818E+03 0.  0.
         23    2    1    2    0    0  0.44474297898E+02  0.72195907192E+02  0.36655006754E+03  0.38698156271E+03  0.90584577485E+02 0.  0.
          5    1    3    3  502    0 -0.29914190260E+02  0.22942524220E+02  0.13254210876E+03  0.13786261709E+03  0.41800000000E+01 0. -1.
         -5    1    3    3    0  502 -0.14560107638E+02 -0.95138431412E+02  0.95072955941E+02  0.13535012825E+03  0.41800000000E+01 0. -1.
        -11    1    4    4    0    0 -0.61718543574E+01 -0.11240536270E+02  0.74011185664E+01  0.14806012221E+02  0.00000000000E+00 0.  1.
         11    1    4    4    0    0  0.50646152255E+02  0.83436443462E+02  0.35914894897E+03  0.37217555049E+03  0.00000000000E+00 0. -1.
</event>
<event>
 8    1  0.6901948E-009  0.1237636E+03  0.7561462E-02  0.1237014E+00
          2   -1    0    0  501    0  0.00000000000E+00  0.00000000000E+00  0.20694544654E+04  0.20694544654E+04  0.00000000000E+00 0. -1.
         -2   -1    0    0    0  501 -0.00000000000E+00 -0.00000000000E+00 -0.12240596629E+02  0.12240596629E+02  0.00000000000E+00 0.  1.
         25    2    1    2    0    0 -0.14576179514E+02 -0.85153853237E+02  0.16431835840E+04  0.16502030808E+04  0.12511703814E+03 0.  0.
         23    2    1    2    0    0  0.14576179514E+02  0.85153853237E+02  0.41403028474E+03  0.43149198126E+03  0.85443604074E+02 0.  0.
          5    1    3    3  502    0 -0.62496523065E+01 -0.11558094604E+03  0.10981458040E+04  0.11042371541E+04  0.41800000000E+01 0.  1.
         -5    1    3    3    0  502 -0.83265272076E+01  0.30427092801E+02  0.54503778007E+03  0.54596592671E+03  0.41800000000E+01 0.  1.
        -11    1    4    4    0    0 -0.18783468334E+02  0.32953066643E+02  0.52938314093E+02  0.65124406967E+02  0.00000000000E+00 0.  1.
         11    1    4    4    0    0  0.33359647848E+02  0.52200786594E+02  0.36109197065E+03  0.36636757429E+03  0.00000000000E+00 0. -1.
</event>
<event>
 8    1  0.6901948E-009  0.1824398E+03  0.7561462E-02  0.1165462E+00
          2   -1    0    0  501    0  0.00000000000E+00  0.00000000000E+00  0.64275787846E+03  0.64275787846E+03  0.00000000000E+00 0. -1.
         -2   -1    0    0    0  501 -0.00000000000E+00 -0.00000000000E+00 -0.67135042244E+02  0.67135042244E+02  0.00000000000E+00 0.  1.
         25    2    1    2    0    0 -0.76534530054E+02  0.14031253412E+03  0.42618874978E+03  0.47204754180E+03  0.12508752841E+03 0.  0.
         23    2    1    2    0    0  0.76534530054E+02 -0.14031253412E+03  0.14943408644E+03  0.23784537890E+03  0.93245571218E+02 0.  0.
          5    1    3    3  502    0  0.29992036709E+02  0.67097466709E+02  0.15741000954E+03  0.17377277062E+03  0.41800000000E+01 0.  1.
         -5    1    3    3    0  502 -0.10652656676E+03  0.73215067415E+02  0.26877874023E+03  0.29827477118E+03  0.41800000000E+01 0.  1.
        -11    1    4    4    0    0  0.94457952659E+01 -0.41092712812E+02  0.99528855191E+02  0.10809175320E+03  0.00000000000E+00 0. -1.
         11    1    4    4    0    0  0.67088734788E+02 -0.99219821311E+02  0.49905231251E+02  0.12975362570E+03  0.00000000000E+00 0.  1.
</event>
<event>
 8    1  0.6901948E-009  0.8380858E+02  0.7561462E-02  0.1318578E+00
          1   -1    0    0  501    0  0.00000000000E+00  0.00000000000E+00  0.33449420550E+03  0.33449420550E+03  0.00000000000E+00 0. -1.
         -1   -1    0    0    0  501 -0.00000000000E+00 -0.00000000000E+00 -0.43948409002E+02  0.43948409002E+02  0.00000000000E+00 0.  1.
         25    2    1    2    0    0 -0.53190230201E-01 -0.12393587001E+02  0.85639183021E+02  0.15210394647E+03  0.12509171450E+03 0.  0.
         23    2    1    2    0    0  0.53190230201E-01  0.12393587001E+02  0.20490661348E+03  0.22633866803E+03  0.95335557745E+02 0.  0.
          5    1    3    3  502    0  0.43798815753E+02  0.73239750168E+01 -0.93359046349E+01  0.45569818814E+02  0.41800000000E+01 0.  1.
         -5    1    3    3    0  502 -0.43852005983E+02 -0.19717562018E+02  0.94975087656E+02  0.10653412766E+03  0.41800000000E+01 0.  1.
        -11    1    4    4    0    0 -0.15137141521E+02 -0.27871314752E+02  0.22405750459E+02  0.38832472147E+02  0.00000000000E+00 0.  1.
         11    1    4    4    0    0  0.15190331751E+02  0.40264901753E+02  0.18250086302E+03  0.18750619588E+03  0.00000000000E+00 0. -1.
</event>
<event>
 8    1  0.6901948E-009  0.1244507E+03  0.7561462E-02  0.1235930E+00
         -1   -1    0    0    0  501 -0.00000000000E+00  0.00000000000E+00  0.55501180841E+02  0.55501180841E+02  0.00000000000E+00 0.  1.
          1   -1    0    0  501    0  0.00000000000E+00 -0.00000000000E+00 -0.44234062074E+03  0.44234062074E+03  0.00000000000E+00 0. -1.
         25    2    1    2    0    0  0.88401422830E+02 -0.56245213821E+02 -0.13914271704E+03  0.21444764874E+03  0.12509501471E+03 0.  0.
         23    2    1    2    0    0 -0.88401422830E+02  0.56245213821E+02 -0.24769672286E+03  0.28339415285E+03  0.89332209849E+02 0.  0.
          5    1    3    3  502    0  0.82969276422E+01  0.26973444897E+02  0.57485446713E+01  0.29101957043E+02  0.41800000000E+01 0.  1.
         -5    1    3    3    0  502  0.80104495188E+02 -0.83218658718E+02 -0.14489126171E+03  0.18534569169E+03  0.41800000000E+01 0.  1.
        -11    1    4    4    0    0 -0.47951296492E+02  0.29577129946E+02 -0.22101559437E+03  0.22808337600E+03  0.00000000000E+00 0. -1.
         11    1    4    4    0    0 -0.40450126339E+02  0.26668083875E+02 -0.26681128489E+02  0.55310776851E+02  0.00000000000E+00 0.  1.
</event>
<event>
 8    1  0.6901948E-009  0.6749478E+02  0.7561462E-02  0.1368825E+00
          3   -1    0    0  501    0  0.00000000000E+00  0.00000000000E+00  0.15257960467E+03  0.15257960467E+03  0.00000000000E+00 0. -1.
         -3   -1    0    0    0  501 -0.00000000000E+00 -0.00000000000E+00 -0.99923978970E+02  0.99923978970E+02  0.00000000000E+00 0.  1.
         25    2    1    2    0    0  0.58045081842E+02  0.27656839072E+01  0.21005541452E+02  0.13952245408E+03  0.12509357253E+03 0.  0.
         23    2    1    2    0    0 -0.58045081842E+02 -0.27656839072E+01  0.31650084246E+02  0.11298112955E+03  0.91575800674E+02 0.  0.
          5    1    3    3  502    0  0.16070289560E+01  0.30173074200E+01  0.66617842469E+02  0.66836337582E+02  0.41800000000E+01 0.  1.
         -5    1    3    3    0  502  0.56438052886E+02 -0.25162351285E+00 -0.45612301018E+02  0.72686116501E+02  0.41800000000E+01 0.  1.
        -11    1    4    4    0    0 -0.69601756984E+01 -0.18318720120E+02  0.52204859823E+02  0.55761697802E+02  0.00000000000E+00 0. -1.
         11    1    4    4    0    0 -0.51084906143E+02  0.15553036213E+02 -0.20554775577E+02  0.57219431753E+02  0.00000000000E+00 0.  1.
</event>
<event>
 8    1  0.6901948E-009  0.1498394E+03  0.7561462E-02  0.1200671E+00
         -2   -1    0    0    0  501 -0.00000000000E+00  0.00000000000E+00  0.74234668157E+03  0.74234668157E+03  0.00000000000E+00 0. -1.
          2   -1    0    0  501    0  0.00000000000E+00 -0.00000000000E+00 -0.45023277760E+02  0.45023277760E+02  0.00000000000E+00 0.  1.
         25    2    1    2    0    0 -0.11529815240E+03 -0.15916338014E+02  0.56091207921E+03  0.58635917770E+03  0.12509089059E+03 0.  0.
         23    2    1    2    0    0  0.11529815240E+03  0.15916338014E+02  0.13641132460E+03  0.20101078163E+03  0.90831112998E+02 0.  0.
          5    1    3    3  502    0 -0.11514432822E+03  0.26590366549E+02  0.48548563444E+03  0.49967893448E+03  0.41800000000E+01 0. -1.
         -5    1    3    3    0  502 -0.15382418686E+00 -0.42506704563E+02  0.75426444769E+02  0.86680243223E+02  0.41800000000E+01 0. -1.
        -11    1    4    4    0    0  0.93192910122E+02  0.43934350597E+02  0.12805548545E+03  0.16435739416E+03  0.00000000000E+00 0. -1.
         11    1    4    4    0    0  0.22105242281E+02 -0.28018012584E+02  0.83558391516E+01  0.36653387475E+02  0.00000000000E+00 0.  1.
</event>
<event>
 8    1  0.6901948E-009  0.1138978E+03  0.7561462E-02  0.1253517E+00
         -2   -1    0    0    0  501 -0.00000000000E+00  0.00000000000E+00  0.39417731145E+02  0.39417731145E+02  0.00000000000E+00 0.  1.
          2   -1    0    0  501    0  0.00000000000E+00 -0.00000000000E+00 -0.42710259355E+03  0.42710259355E+03  0.00000000000E+00 0. -1.
         25    2    1    2    0    0  0.41300221554E+02 -0.44902127197E+02 -0.15165712035E+03  0.20583828211E+03  0.12509039492E+03 0.  0.
         23    2    1    2    0    0 -0.41300221554E+02  0.44902127197E+02 -0.23602774206E+03  0.26068204259E+03  0.92326177109E+02 0.  0.
          5    1    3    3  502    0  0.96080636593E+01  0.40707011930E+02 -0.77446896707E+02  0.88118499290E+02  0.41800000000E+01 0. -1.
         -5    1    3    3    0  502  0.31692157895E+02 -0.85609139127E+02 -0.74210223642E+02  0.11771978282E+03  0.41800000000E+01 0. -1.
        -11    1    4    4    0    0 -0.20751370976E+02  0.63413011381E+02 -0.89869716221E+02  0.11193031450E+03  0.00000000000E+00 0.  1.
         11    1    4    4    0    0 -0.20548850578E+02 -0.18510884184E+02 -0.14615802584E+03  0.14875172809E+03  0.00000000000E+00 0. -1.
</event>
<event>
 8    1  0.6901948E-009  0.1160485E+03  0.7561462E-02  0.1249762E+00
          2   -1    0    0  501    0  0.00000000000E+00  0.00000000000E+00  0.89091030138E+02  0.89091030138E+02  0.00000000000E+00 0. -1.
         -2   -1    0    0    0  501 -0.00000000000E+00 -0.00000000000E+00 -0.22892237135E+03  0.22892237135E+03  0.00000000000E+00 0.  1.
         25    2    1    2    0    0  0.32322411249E+02  0.80713452268E+02 -0.11676606444E+03  0.19193995116E+03  0.12508889400E+03 0.  0.
         23    2    1    2    0    0 -0.32322411249E+02 -0.80713452268E+02 -0.23065276766E+02  0.12607345032E+03  0.88335203838E+02 0.  0.
          5    1    3    3  502    0  0.51511835032E+02  0.41978443688E+02 -0.13040506323E+03  0.14641930132E+03  0.41800000000E+01 0.  1.
         -5    1    3    3    0  502 -0.19189423783E+02  0.38735008581E+02  0.13638998784E+02  0.45520649849E+02  0.41800000000E+01 0.  1.
        -11    1    4    4    0    0  0.29619927668E+02 -0.24515519344E+02 -0.17521474575E+02  0.42253436251E+02  0.00000000000E+00 0.  1.
         11    1    4    4    0    0 -0.61942338918E+02 -0.56197932924E+02 -0.55438021913E+01  0.83820014068E+02  0.00000000000E+00 0. -1.
</event>
<event>
 8    1  0.6901948E-009  0.1148675E+03  0.7561462E-02  0.1251812E+00
         -2   -1    0    0    0  501 -0.00000000000E+00  0.00000000000E+00  0.19995143482E+03  0.19995143482E+03  0.00000000000E+00 0.  1.
          2   -1    0    0  501    0  0.00000000000E+00 -0.00000000000E+00 -0.85620264618E+02  0.85620264618E+02  0.00000000000E+00 0. -1.
         25    2    1    2    0    0 -0.64431292953E+02 -0.23552001926E+02  0.39636991331E+02  0.14807068034E+03  0.12509095486E+03 0.  0.
         23    2    1    2    0    0  0.64431292953E+02  0.23552001926E+02  0.74694178868E+02  0.13750101909E+03  0.92850533595E+02 0.  0.
          5    1    3    3  502    0 -0.68204258949E+02 -0.66139508528E+02  0.94501963582E+01  0.95566909222E+02  0.41800000000E+01 0.  1.
         -5    1    3    3    0  502  0.37729659961E+01  0.42587506602E+02  0.30186794972E+02  0.52503771118E+02  0.41800000000E+01 0.  1.
        -11    1    4    4    0    0  0.59308904050E+02 -0.78814688829E+01  0.85072323216E+02  0.10400463369E+03  0.00000000000E+00 0.  1.
         11    1    4    4    0    0  0.51223889030E+01  0.31433470809E+02 -0.10378144348E+02  0.33496385406E+02  0.00000000000E+00 0. -1.
</event>
<event>
 8    1  0.6901948E-009  0.1797573E+03  0.7561462E-02  0.1168038E+00
         -3   -1    0    0    0  501 -0.00000000000E+00  0.00000000000E+00  0.18248328988E+04  0.18248328988E+04  0.00000000000E+00 0.  1.
          3   -1    0    0  501    0  0.00000000000E+00 -0.00000000000E+00 -0.24767012761E+02  0.24767012761E+02  0.00000000000E+00 0. -1.
         25    2    1    2    0    0 -0.16009151768E+03 -0.29270889427E+01  0.13171857519E+04  0.13327655448E+04  0.12509128864E+03 0.  0.
         23    2    1    2    0    0  0.16009151768E+03  0.29270889427E+01  0.48288013413E+03  0.51683436676E+03  0.91140972359E+02 0.  0.
          5    1    3    3  502    0 -0.10414092049E+03  0.55637508916E+02  0.90473442479E+03  0.91241586764E+03  0.41800000000E+01 0.  1.
         -5    1    3    3    0  502 -0.55950597189E+02 -0.58564597859E+02  0.41245132714E+03  0.42034967719E+03  0.41800000000E+01 0.  1.
        -11    1    4    4    0    0  0.94549149292E+02 -0.16535704568E+01  0.40023719530E+03  0.41125671840E+03  0.00000000000E+00 0.  1.
         11    1    4    4    0    0  0.65542368390E+02  0.45806593995E+01  0.82642938830E+02  0.10557764836E+03  0.00000000000E+00 0. -1.
</event>
<event>
 8    1  0.6901948E-009  0.1352264E+03  0.7561462E-02  0.1219900E+00
         -2   -1    0    0    0  501 -0.00000000000E+00  0.00000000000E+00  0.34658888917E+02  0.34658888917E+02  0.00000000000E+00 0.  1.
          2   -1    0    0  501    0  0.00000000000E+00 -0.00000000000E+00 -0.93642358205E+03  0.93642358205E+03  0.00000000000E+00 0. -1.
         25    2    1    2    0    0 -0.51911520079E+02 -0.78416301572E+02 -0.76680411121E+03  0.78261164602E+03  0.12509404963E+03 0.  0.
         23    2    1    2    0    0  0.51911520079E+02  0.78416301572E+02 -0.13496058193E+03  0.18847082495E+03  0.91994406967E+02 0.  0.
          5    1    3    3  502    0  0.14938944693E+02 -0.77492220982E+02 -0.27053615099E+03  0.28184303748E+03  0.41800000000E+01 0. -1.
         -5    1    3    3    0  502 -0.66850464772E+02 -0.92408059018E+00 -0.49626796022E+03  0.50076860854E+03  0.41800000000E+01 0. -1.
        -11    1    4    4    0    0  0.42773695191E+02  0.95734046308E+02 -0.85567221895E+02  0.13533789597E+03  0.00000000000E+00 0.  1.
         11    1    4    4    0    0  0.91378248886E+01 -0.17317744736E+02 -0.49393360034E+02  0.53132928979E+02  0.00000000000E+00 0. -1.
</event>
<event>
 8    1  0.6901948E-009  0.9181679E+02  0.7561462E-02  0.1298511E+00
         -1   -1    0    0    0  501 -0.00000000000E+00  0.00000000000E+00  0.26951174541E+02  0.26951174541E+02  0.00000000000E+00 0.  1.
          1   -1    0    0  501    0  0.00000000000E+00 -0.00000000000E+00 -0.48752980598E+03  0.48752980598E+03  0.00000000000E+00 0. -1.
         25    2    1    2    0    0  0.94788576387E+01 -0.75486788350E+01 -0.18092504146E+03  0.22028940038E+03  0.12508684183E+03 0.  0.
         23    2    1    2    0    0 -0.94788576387E+01  0.75486788350E+01 -0.27965358998E+03  0.29419158014E+03  0.90530238835E+02 0.  0.
          5    1    3    3  502    0  0.47020909340E+02  0.13891572939E+02 -0.19179551213E+02  0.52813533290E+02  0.41800000000E+01 0.  1.
         -5    1    3    3    0  502 -0.37542051701E+02 -0.21440251774E+02 -0.16174549025E+03  0.16747586709E+03  0.41800000000E+01 0.  1.
        -11    1    4    4    0    0 -0.49338628044E+02  0.12301361663E+02 -0.14344423150E+03  0.15219024695E+03  0.00000000000E+00 0.  1.
         11    1    4    4    0    0  0.39859770405E+02 -0.47526828284E+01 -0.13620935847E+03  0.14200133318E+03  0.00000000000E+00 0. -1.
</event>
<event>
 8    1  0.6901948E-009  0.8722375E+02  0.7561462E-02  0.1309718E+00
         -2   -1    0    0    0  501 -0.00000000000E+00  0.00000000000E+00  0.26753504300E+03  0.26753504300E+03  0.00000000000E+00 0.  1.
          2   -1    0    0  501    0  0.00000000000E+00 -0.00000000000E+00 -0.80057655341E+02  0.80057655341E+02  0.00000000000E+00 0. -1.
         25    2    1    2    0    0  0.10799721181E+02 -0.44760041553E+02  0.67502273588E+00  0.13329214475E+03  0.12508495073E+03 0.  0.
         23    2    1    2    0    0 -0.10799721181E+02  0.44760041553E+02  0.18680236492E+03  0.21430055359E+03  0.94390192445E+02 0.  0.
          5    1    3    3  502    0  0.22327656706E+02 -0.51172232580E+02  0.54249786756E+02  0.77959177806E+02  0.41800000000E+01 0.  1.
         -5    1    3    3    0  502 -0.11527935525E+02  0.64121910267E+01 -0.53574764020E+02  0.55332966946E+02  0.41800000000E+01 0.  1.
        -11    1    4    4    0    0  0.17718991427E+02  0.66463217715E+02  0.13145737069E+03  0.14836563711E+03  0.00000000000E+00 0. -1.
         11    1    4    4    0    0 -0.28518712608E+02 -0.21703176162E+02  0.55344994232E+02  0.65934916477E+02  0.00000000000E+00 0.  1.
</event>
<event>
 8    1  0.6901948E-009  0.1380701E+03  0.7561462E-02  0.1215950E+00
          1   -1    0    0  501    0  0.00000000000E+00  0.00000000000E+00  0.53397208630E+03  0.53397208630E+03  0.00000000000E+00 0. -1.
         -1   -1    0    0    0  501 -0.00000000000E+00 -0.00000000000E+00 -0.53182793333E+02  0.53182793333E+02  0.00000000000E+00 0.  1.
         25    2    1    2    0    0 -0.36963725328E+02  0.11365735425E+03  0.33633481722E+03  0.37822454459E+03  0.12509350777E+03 0.  0.
         23    2    1    2    0    0  0.36963725328E+02 -0.11365735425E+03  0.14445447574E+03  0.20893033504E+03  0.92198037792E+02 0.  0.
          5    1    3    3  502    0 -0.28329271777E+01 -0.11281004629E+02  0.15420733214E+03  0.15470184300E+03  0.41800000000E+01 0. -1.
         -5    1    3    3    0  502 -0.34130798151E+02  0.12493835888E+03  0.18212748508E+03  0.22352270159E+03  0.41800000000E+01 0. -1.
        -11    1    4    4    0    0  0.17114012287E+02  0.16499801031E+01  0.65647818028E+02  0.67861976561E+02  0.00000000000E+00 0. -1.
         11    1    4    4    0    0  0.19849713041E+02 -0.11530733436E+03  0.78806657711E+02  0.14106835848E+03  0.00000000000E+00 0.  1.
</event>
<event>
 8    1  0.6901948E-009  0.1466150E+03  0.7561462E-02  0.1204695E+00
          1   -1    0    0  501    0  0.00000000000E+00  0.00000000000E+00  0.20243961126E+03  0.20243961126E+03  0.00000000000E+00 0. -1.
         -1   -1    0    0    0  501 -0.00000000000E+00 -0.00000000000E+00 -0.11814270013E+03  0.11814270013E+03  0.00000000000E+00 0.  1.
         25    2    1    2    0    0 -0.65751133446E+02  0.86347781198E+02  0.29232335298E+02  0.16816656030E+03  0.12508521778E+03 0.  0.
         23    2    1    2    0    0  0.65751133446E+02 -0.86347781198E+02  0.55064575832E+02  0.15241575110E+03  0.91756758900E+02 0.  0.
          5    1    3    3  502    0 -0.93312675818E+01 -0.31374882484E+02 -0.44096499573E+01  0.33292239611E+02  0.41800000000E+01 0.  1.
         -5    1    3    3    0  502 -0.56419865865E+02  0.11772266368E+03  0.33641985255E+02  0.13487432069E+03  0.41800000000E+01 0.  1.
        -11    1    4    4    0    0 -0.15444488314E+02 -0.12607245858E+02  0.35909254082E+02  0.41072489530E+02  0.00000000000E+00 0. -1.
         11    1    4    4    0    0  0.81195621761E+02 -0.73740535339E+02  0.19155321750E+02  0.11134326157E+03  0.00000000000E+00 0.  1.
</event>
<event>
 8    1  0.6901948E-009  0.9932627E+02  0.7561462E-02  0.1281719E+00
         -2   -1    0    0    0  501 -0.00000000000E+00  0.00000000000E+00  0.78562465476E+02  0.78562465476E+02  0.00000000000E+00 0.  1.
          2   -1    0    0  501    0  0.00000000000E+00 -0.00000000000E+00 -0.22633789211E+03  0.22633789211E+03  0.00000000000E+00 0. -1.
         25    2    1    2    0    0  0.99751658921E+01  0.72067626334E+02 -0.51889247397E+02  0.15372461707E+03  0.12508204187E+03 0.  0.
         23    2    1    2    0    0 -0.99751658921E+01 -0.72067626334E+02 -0.95886179239E+02  0.15117574052E+03  0.91469658641E+02 0.  0.
          5    1    3    3  502    0  0.42920458686E+02  0.68770895516E+02  0.11600834771E+02  0.81997887846E+02  0.41800000000E+01 0.  1.
         -5    1    3    3    0  502 -0.32945292794E+02  0.32967308187E+01 -0.63490082168E+02  0.71726729224E+02  0.41800000000E+01 0.  1.
        -11    1    4    4    0    0  0.11665928834E+02 -0.55870959372E+02 -0.10753372194E+03  0.12174218394E+03  0.00000000000E+00 0. -1.
         11    1    4    4    0    0 -0.21641094726E+02 -0.16196666962E+02  0.11647542702E+02  0.29433556575E+02  0.00000000000E+00 0.  1.
</event>
<event>
 8    1  0.6901948E-009  0.2084432E+03  0.7561462E-02  0.1142805E+00
          3   -1    0    0  501    0  0.00000000000E+00  0.00000000000E+00  0.75335025518E+03  0.75335025518E+03  0.00000000000E+00 0. -1.
         -3   -1    0    0    0  501 -0.00000000000E+00 -0.00000000000E+00 -0.66116559476E+02  0.66116559476E+02  0.00000000000E+00 0.  1.
         25    2    1    2    0    0 -0.12783029051E+03  0.12786025406E+03  0.22302946344E+03  0.31317530698E+03  0.12509118116E+03 0.  0.
         23    2    1    2    0    0  0.12783029051E+03 -0.12786025406E+03  0.46420423226E+03  0.50629150767E+03  0.90314416049E+02 0.  0.
          5    1    3    3  502    0  0.13122105717E+02 -0.13713519656E+02  0.13658420754E+02  0.23754476153E+02  0.41800000000E+01 0. -1.
         -5    1    3    3    0  502 -0.14095239622E+03  0.14157377371E+03  0.20937104268E+03  0.28942083083E+03  0.41800000000E+01 0. -1.
        -11    1    4    4    0    0  0.11433565733E+03 -0.61330314499E+02  0.25115792775E+03  0.28269127097E+03  0.00000000000E+00 0.  1.
         11    1    4    4    0    0  0.13494633177E+02 -0.66529939559E+02  0.21304630451E+03  0.22360023669E+03  0.00000000000E+00 0. -1.
</event>
<event>
 7    1  0.6901948E-009  0.9422664E+02  0.7561462E-02  0.1292927E+00
          2   -1    0    0  501    0  0.00000000000E+00  0.00000000000E+00  0.89481232057E+02  0.89481232057E+02  0.00000000000E+00 0.  1.
         -2   -1    0    0    0  501 -0.00000000000E+00 -0.00000000000E+00 -0.19845780720E+03  0.19845780720E+03  0.00000000000E+00 0. -1.
         23    2    1    2    0    0 -0.40275439055E+02  0.27919709856E+01  0.21095601640E+02  0.10313323789E+03  0.92528559142E+02 0.  0.
          5    1    1    2  502    0  0.29414119890E+02 -0.57223754293E+02 -0.31863776283E+02  0.71920241541E+02  0.41800000000E+01 0.  1.
         -5    1    1    2    0  502  0.10861319165E+02  0.54431783307E+02 -0.98208400500E+02  0.11288555982E+03  0.41800000000E+01 0.  1.
        -11    1    3    3    0    0 -0.50694706066E+02  0.14415940804E+02 -0.22139929678E+02  0.57165978156E+02  0.00000000000E+00 0. -1.
         11    1    3    3    0    0  0.10419267012E+02 -0.11623969819E+02  0.43235531318E+02  0.45967259737E+02  0.00000000000E+00 0.  1.
</event>
<event>
 8    1  0.6901948E-009  0.1116695E+03  0.7561462E-02  0.1257509E+00
         -1   -1    0    0    0  501 -0.00000000000E+00  0.00000000000E+00  0.36729472266E+03  0.36729472266E+03  0.00000000000E+00 0.  1.
          1   -1    0    0  501    0  0.00000000000E+00 -0.00000000000E+00 -0.43258093386E+02  0.43258093386E+02  0.00000000000E+00 0. -1.
         25    2    1    2    0    0 -0.62628065276E+02  0.16799551629E+02  0.19872161700E+03  0.24360347929E+03  0.12509146480E+03 0.  0.
         23    2    1    2    0    0  0.62628065276E+02 -0.16799551629E+02  0.12531501227E+03  0.16694933675E+03  0.89239729082E+02 0.  0.
          5    1    3    3  502    0 -0.25739494986E+02  0.58632094902E+02  0.16789621565E+03  0.17974107984E+03  0.41800000000E+01 0. -1.
         -5    1    3    3    0  502 -0.36888570289E+02 -0.41832543273E+02  0.30825401354E+02  0.63862399449E+02  0.41800000000E+01 0. -1.
        -11    1    4    4    0    0  0.45127229041E+02  0.29384328071E+02  0.35649430077E+02  0.64581633627E+02  0.00000000000E+00 0. -1.
         11    1    4    4    0    0  0.17500836235E+02 -0.46183879700E+02  0.89665582196E+02  0.10236770313E+03  0.00000000000E+00 0.  1.
</event>
<event>
 8    1  0.6901948E-009  0.1162144E+03  0.7561462E-02  0.1249476E+00
          1   -1    0    0  501    0  0.00000000000E+00  0.00000000000E+00  0.15529579780E+04  0.15529579780E+04  0.00000000000E+00 0. -1.
         -1   -1    0    0    0  501 -0.00000000000E+00 -0.00000000000E+00 -0.12356042196E+02  0.12356042196E+02  0.00000000000E+00 0.  1.
         25    2    1    2    0    0  0.13213228671E+02 -0.71370840822E+02  0.11168591511E+04  0.11261838218E+04  0.12508897188E+03 0.  0.
         23    2    1    2    0    0 -0.13213228671E+02  0.71370840822E+02  0.42374278475E+03  0.43913019839E+03  0.89493000699E+02 0.  0.
          5    1    3    3  502    0  0.53384138645E+02 -0.13945778632E+02  0.23050101184E+03  0.23704965695E+03  0.41800000000E+01 0. -1.
         -5    1    3    3    0  502 -0.40170909974E+02 -0.57425062190E+02  0.88635813922E+03  0.88913416487E+03  0.41800000000E+01 0. -1.
        -11    1    4    4    0    0  0.27019981503E+02  0.25096030053E+01  0.49170042139E+02  0.56161112450E+02  0.00000000000E+00 0.  1.
         11    1    4    4    0    0 -0.40233210173E+02  0.68861237816E+02  0.37457274261E+03  0.38296908594E+03  0.00000000000E+00 0. -1.
</event>
<event>
 8    1  0.6901948E-009  0.9731620E+02  0.7561462E-02  0.1286043E+00
          2   -1    0    0  501    0  0.00000000000E+00  0.00000000000E+00  0.99734399349E+03  0.99734399349E+03  0.00000000000E+00 0. -1.
         -2   -1    0    0    0  501 -0.00000000000E+00 -0.00000000000E+00 -0.15079393525E+02  0.15079393525E+02  0.00000000000E+00 0.  1.
         25    2    1    2    0    0 -0.36822516199E+02 -0.10097311937E+02  0.59487057330E+03  0.60907777530E+03  0.12508750531E+03 0.  0.
         23    2    1    2    0    0  0.36822516199E+02  0.10097311937E+02  0.38739402667E+03  0.40334561172E+03  0.10562053390E+03 0.  0.
          5    1    3    3  502    0 -0.65296103103E+02 -0.15844438142E+02  0.16498053904E+03  0.17818719921E+03  0.41800000000E+01 0. -1.
         -5    1    3    3    0  502  0.28473586904E+02  0.57471262048E+01  0.42989003426E+03  0.43089057610E+03  0.41800000000E+01 0. -1.
        -11    1    4    4    0    0  0.57006666921E+02 -0.21117568861E+02  0.32564828927E+03  0.33127408606E+03  0.00000000000E+00 0. -1.
         11    1    4    4    0    0 -0.20184150722E+02  0.31214880798E+02  0.61745737399E+02  0.72071525657E+02  0.00000000000E+00 0.  1.
</event>
<event>
 8    1  0.6901948E-009  0.1589093E+03  0.7561462E-02  0.1189934E+00
          1   -1    0    0  501    0  0.00000000000E+00  0.00000000000E+00  0.41355231711E+03  0.41355231711E+03  0.00000000000E+00 0. -1.
         -1   -1    0    0    0  501 -0.00000000000E+00 -0.00000000000E+00 -0.90704681793E+02  0.90704681793E+02  0.00000000000E+00 0.  1.
         25    2    1    2    0    0 -0.97829101060E+02  0.83702029216E+02  0.45241568125E+02  0.18511685942E+03  0.12507953248E+03 0.  0.
         23    2    1    2    0    0  0.97829101060E+02 -0.83702029216E+02  0.27760606719E+03  0.31914013948E+03  0.90602082638E+02 0.  0.
          5    1    3    3  502    0 -0.11497792288E+03  0.25701102771E+02  0.20612686140E+02  0.11967800410E+03  0.41800000000E+01 0. -1.
         -5    1    3    3    0  502  0.17148821823E+02  0.58000926445E+02  0.24628881985E+02  0.65438855324E+02  0.41800000000E+01 0. -1.
        -11    1    4    4    0    0  0.81855159948E+02 -0.36786572639E+02  0.98265134650E+02  0.13307725510E+03  0.00000000000E+00 0.  1.
         11    1    4    4    0    0  0.15973941112E+02 -0.46915456577E+02  0.17934093254E+03  0.18606288439E+03  0.00000000000E+00 0. -1.
</event>
<event>
 8    1  0.6901948E-009  0.1089014E+03  0.7561462E-02  0.1262618E+00
          2   -1    0    0  501    0  0.00000000000E+00  0.00000000000E+00  0.29287666083E+03  0.29287666083E+03  0.00000000000E+00 0.  1.
         -2   -1    0    0    0  501 -0.00000000000E+00 -0.00000000000E+00 -0.70866527372E+02  0.70866527372E+02  0.00000000000E+00 0. -1.
         25    2    1    2    0    0  0.37908109063E+00 -0.57657596764E+02  0.25253679292E+02  0.14003547660E+03  0.12509054409E+03 0.  0.
         23    2    1    2    0    0 -0.37908109063E+00  0.57657596764E+02  0.19675645416E+03  0.22370771160E+03  0.89484612131E+02 0.  0.
          5    1    3    3  502    0 -0.40320150589E+02 -0.76949835503E+02  0.35019712477E+02  0.93759502929E+02  0.41800000000E+01 0.  1.
         -5    1    3    3    0  502  0.40699231679E+02  0.19292238740E+02 -0.97660331850E+01  0.46275973669E+02  0.41800000000E+01 0.  1.
        -11    1    4    4    0    0 -0.30137168335E+02  0.15216318140E+02  0.15048307972E+03  0.15422367696E+03  0.00000000000E+00 0.  1.
         11    1    4    4    0    0  0.29758087245E+02  0.42441278624E+02  0.46273374441E+02  0.69484034640E+02  0.00000000000E+00 0. -1.
</event>
<event>
 8    1  0.6901948E-009  0.1553748E+03  0.7561462E-02  0.1194020E+00
         -2   -1    0    0    0  501 -0.00000000000E+00  0.00000000000E+00  0.40702675276E+02  0.40702675276E+02  0.00000000000E+00 0.  1.
          2   -1    0    0  501    0  0.00000000000E+00 -0.00000000000E+00 -0.83652523121E+03  0.83652523121E+03  0.00000000000E+00 0. -1.
         25    2    1    2    0    0 -0.12058955069E+03 -0.49789415522E+02 -0.59381460259E+03  0.62071308431E+03  0.12509246640E+03 0.  0.
         23    2    1    2    0    0  0.12058955069E+03  0.49789415522E+02 -0.20200795335E+03  0.25651482218E+03  0.89285021965E+02 0.  0.
          5    1    3    3  502    0 -0.47321758039E+02  0.19901122509E+02 -0.68310175168E+02  0.85552065390E+02  0.41800000000E+01 0. -1.
         -5    1    3    3    0  502 -0.73267792656E+02 -0.69690538032E+02 -0.52550442742E+03  0.53516101892E+03  0.41800000000E+01 0. -1.
        -11    1    4    4    0    0  0.26713447715E+02 -0.26082825570E+02 -0.44965306702E+02  0.58444853369E+02  0.00000000000E+00 0.  1.
         11    1    4    4    0    0  0.93876102980E+02  0.75872241093E+02 -0.15704264664E+03  0.19806996881E+03  0.00000000000E+00 0. -1.
</event>
<event>
 8    1  0.6901948E-009  0.1012812E+03  0.7561462E-02  0.1277625E+00
          3   -1    0    0  501    0  0.00000000000E+00  0.00000000000E+00  0.95949539191E+03  0.95949539191E+03  0.00000000000E+00 0. -1.
         -3   -1    0    0    0  501 -0.00000000000E+00 -0.00000000000E+00 -0.37207680298E+02  0.37207680298E+02  0.00000000000E+00 0.  1.
         25    2    1    2    0    0  0.67560062016E+02 -0.42850063057E+01  0.86767248631E+03  0.87925276491E+03  0.12508859997E+03 0.  0.
         23    2    1    2    0    0 -0.67560062016E+02  0.42850063057E+01  0.54615225299E+02  0.11745030730E+03  0.78924195217E+02 0.  0.
          5    1    3    3  502    0  0.67436446188E+02  0.24612803150E+02  0.82137535937E+03  0.82451708153E+03  0.41800000000E+01 0.  1.
         -5    1    3    3    0  502  0.12361582792E+00 -0.28897809455E+02  0.46297126938E+02  0.54735683378E+02  0.41800000000E+01 0.  1.
        -11    1    4    4    0    0 -0.31955419794E+02 -0.35701323105E+02  0.38710320239E+02  0.61597258207E+02  0.00000000000E+00 0.  1.
         11    1    4    4    0    0 -0.35604642223E+02  0.39986329411E+02  0.15904905060E+02  0.55853049089E+02  0.00000000000E+00 0. -1.
</event>
<event>
 8    1  0.6901948E-009  0.8522540E+02  0.7561462E-02  0.1314844E+00
          2   -1    0    0  501    0  0.00000000000E+00  0.00000000000E+00  0.17877483942E+03  0.17877483942E+03  0.00000000000E+00 0. -1.
         -2   -1    0    0    0  501 -0.00000000000E+00 -0.00000000000E+00 -0.73223107743E+02  0.73223107743E+02  0.00000000000E+00 0.  1.
         25    2    1    2    0    0 -0.21415161647E+02 -0.25817795030E+02  0.40800132774E+02  0.13578502457E+03  0.12509098439E+03 0.  0.
         23    2    1    2    0    0  0.21415161647E+02  0.25817795030E+02  0.64751598908E+02  0.11621292259E+03  0.90484839218E+02 0.  0.
          5    1    3    3  502    0  0.23345427835E+02  0.26573782475E+02  0.54786917146E+02  0.65347177492E+02  0.41800000000E+01 0.  1.
         -5    1    3    3    0  502 -0.44760589482E+02 -0.52391577504E+02 -0.13986784372E+02  0.70437847080E+02  0.41800000000E+01 0.  1.
        -11    1    4    4    0    0  0.11249224267E+01  0.40649086335E+02 -0.60230205789E+01  0.41108277113E+02  0.00000000000E+00 0.  1.
         11    1    4    4    0    0  0.20290239221E+02 -0.14831291305E+02  0.70774619487E+02  0.75104645482E+02  0.00000000000E+00 0. -1.
</event>
<event>
 8    1  0.6901948E-009  0.1030938E+03  0.7561462E-02  0.1273921E+00
         -1   -1    0    0    0  501 -0.00000000000E+00  0.00000000000E+00  0.25083923168E+02  0.25083923168E+02  0.00000000000E+00 0.  1.
          1   -1    0    0  501    0  0.00000000000E+00 -0.00000000000E+00 -0.71540380270E+03  0.71540380270E+03  0.00000000000E+00 0. -1.
         25    2    1    2    0    0 -0.19004131898E+02 -0.74164006413E+02 -0.35942114299E+03  0.38819101326E+03  0.12508895982E+03 0.  0.
         23    2    1    2    0    0  0.19004131898E+02  0.74164006413E+02 -0.33089873654E+03  0.35229671260E+03  0.93581744983E+02 0.  0.
          5    1    3    3  502    0  0.31996872301E+02 -0.28314673958E+02 -0.31753609939E+02  0.53397422621E+02  0.41800000000E+01 0.  1.
         -5    1    3    3    0  502 -0.51001004200E+02 -0.45849332455E+02 -0.32766753305E+03  0.33479359064E+03  0.41800000000E+01 0.  1.
        -11    1    4    4    0    0 -0.19768656703E+02  0.27760844278E+02 -0.30066837174E+02  0.45447540753E+02  0.00000000000E+00 0.  1.
         11    1    4    4    0    0  0.38772788601E+02  0.46403162135E+02 -0.30083189936E+03  0.30684917185E+03  0.00000000000E+00 0. -1.
</event>
<event>
 8    1  0.6901948E-009  0.9674426E+02  0.7561462E-02  0.1287295E+00
         -2   -1    0    0    0  501 -0.00000000000E+00  0.00000000000E+00  0.72447383228E+02  0.72447383228E+02  0.00000000000E+00 0.  1.
          2   -1    0    0  501    0  0.00000000000E+00 -0.00000000000E+00 -0.26258722404E+03  0.26258722404E+03  0.00000000000E+00 0. -1.
         25    2    1    2    0    0  0.24867649635E+02  0.76379698945E+02 -0.11844145263E+03  0.19007299401E+03  0.12508839652E+03 0.  0.
         23    2    1    2    0    0 -0.24867649635E+02 -0.76379698945E+02 -0.71698388188E+02  0.14496161326E+03  0.97061588904E+02 0.  0.
          5    1    3    3  502    0  0.19317053513E+02  0.44325711968E+02 -0.14175509490E+03  0.14983289568E+03  0.41800000000E+01 0.  1.
         -5    1    3    3    0  502  0.55505961221E+01  0.32053986977E+02  0.23313642267E+02  0.40240098337E+02  0.41800000000E+01 0.  1.
        -11    1    4    4    0    0  0.26519590586E+02 -0.44141071375E+02 -0.66456806110E+02  0.84072765776E+02  0.00000000000E+00 0. -1.
         11    1    4    4    0    0 -0.51387240221E+02 -0.32238627571E+02 -0.52415820783E+01  0.60888847483E+02  0.00000000000E+00 0.  1.
</event>
<event>
 8    1  0.6901948E-009  0.1036257E+03  0.7561462E-02  0.1272851E+00
          1   -1    0    0  501    0  0.00000000000E+00  0.00000000000E+00  0.20566364415E+02  0.20566364415E+02  0.00000000000E+00 0. -1.
         -1   -1    0    0    0  501 -0.00000000000E+00 -0.00000000000E+00 -0.80379324887E+03  0.80379324887E+03  0.00000000000E+00 0.  1.
         25    2    1    2    0    0 -0.54893179019E+01 -0.38013097510E+02 -0.62141028726E+03  0.63503798469E+03  0.12508944278E+03 0.  0.
         23    2    1    2    0    0  0.54893179019E+01  0.38013097510E+02 -0.16181659719E+03  0.18932162859E+03  0.90459602764E+02 0.  0.
          5    1    3    3  502    0  0.45294158571E+02 -0.37073396803E+02 -0.15306386615E+03  0.16392686501E+03  0.41800000000E+01 0. -1.
         -5    1    3    3    0  502 -0.50783476473E+02 -0.93970070726E+00 -0.46834642111E+03  0.47111111968E+03  0.41800000000E+01 0. -1.
        -11    1    4    4    0    0 -0.42205263088E+02  0.17971454084E+02 -0.87121423655E+02  0.98460143479E+02  0.00000000000E+00 0.  1.
         11    1    4    4    0    0  0.47694580990E+02  0.20041643426E+02 -0.74695173539E+02  0.90861485114E+02  0.00000000000E+00 0. -1.
</event>
<event>
 8    1  0.6901948E-009  0.1139673E+03  0.7561462E-02  0.1253394E+00
         -1   -1    0    0    0  501 -0.00000000000E+00  0.00000000000E+00  0.72778587626E+02  0.72778587626E+02  0.00000000000E+00 0.  1.
          1   -1    0    0  501    0  0.00000000000E+00 -0.00000000000E+00 -0.18502263599E+03  0.18502263599E+03  0.00000000000E+00 0. -1.
         25    2    1    2    0    0  0.28797512165E+02 -0.29362021239E+02 -0.56883138370E+02  0.14343869370E+03  0.12509013719E+03 0.  0.
         23    2    1    2    0    0 -0.28797512165E+02  0.29362021239E+02 -0.55360909999E+02  0.11436252992E+03  0.91227917298E+02 0.  0.
          5    1    3    3  502    0 -0.49166169449E+02 -0.15764672692E+02 -0.15709150336E+02  0.54130277366E+02  0.41800000000E+01 0.  1.
         -5    1    3    3    0  502  0.77963681614E+02 -0.13597348547E+02 -0.41173988034E+02  0.89308416339E+02  0.41800000000E+01 0.  1.
        -11    1    4    4    0    0 -0.47967679790E+02 -0.13582958196E+02 -0.14127355689E+02  0.51816765979E+02  0.00000000000E+00 0.  1.
         11    1    4    4    0    0  0.19170167625E+02  0.42944979434E+02 -0.41233554309E+02  0.62545763936E+02  0.00000000000E+00 0. -1.
</event>
<event>
 8    1  0.6901948E-009  0.1054317E+03  0.7561462E-02  0.1269271E+00
          2   -1    0    0  501    0  0.00000000000E+00  0.00000000000E+00  0.20413148166E+03  0.20413148166E+03  0.00000000000E+00 0.  1.
         -2   -1    0    0    0  501 -0.00000000000E+00 -0.00000000000E+00 -0.98294530623E+02  0.98294530623E+02  0.00000000000E+00 0. -1.
         25    2    1    2    0    0  0.53395729604E+02  0.35373083405E+02  0.12565277879E+03  0.18851620548E+03  0.12508948774E+03 0.  0.
         23    2    1    2    0    0 -0.53395729604E+02 -0.35373083405E+02 -0.19815827756E+02  0.11390980680E+03  0.92089185498E+02 0.  0.
          5    1    3    3  502    0  0.70628027802E+02  0.41086067295E+02  0.24132623656E+02  0.85300874331E+02  0.41800000000E+01 0.  1.
         -5    1    3    3    0  502 -0.17232298198E+02 -0.57129838898E+01  0.10152015514E+03  0.10321533115E+03  0.41800000000E+01 0.  1.
        -11    1    4    4    0    0 -0.66556621182E+02  0.61679063049E+01 -0.21748581824E+02  0.70291021494E+02  0.00000000000E+00 0.  1.
         11    1    4    4    0    0  0.13160891577E+02 -0.41540989710E+02  0.19327540674E+01  0.43618785305E+02  0.00000000000E+00 0. -1.
</event>
<event>
 8    1  0.6901948E-009  0.1050055E+03  0.7561462E-02  0.1270109E+00
          1   -1    0    0  501    0  0.00000000000E+00  0.00000000000E+00  0.13855087659E+03  0.13855087659E+03  0.00000000000E+00 0. -1.
         -1   -1    0    0    0  501 -0.00000000000E+00 -0.00000000000E+00 -0.13101441102E+03  0.13101441102E+03  0.00000000000E+00 0.  1.
         25    2    1    2    0    0  0.17825054730E+02 -0.77470839176E+01 -0.73497103185E+02  0.14637538538E+03  0.12508468885E+03 0.  0.
         23    2    1    2    0    0 -0.17825054730E+02  0.77470839176E+01  0.81033568751E+02  0.12318990222E+03  0.90727960738E+02 0.  0.
          5    1    3    3  502    0  0.10241338628E+02 -0.66216298313E+02 -0.33684936964E+02  0.75110788555E+02  0.41800000000E+01 0. -1.
         -5    1    3    3    0  502  0.75837161015E+01  0.58469214395E+02 -0.39812166221E+02  0.71264596828E+02  0.41800000000E+01 0. -1.
        -11    1    4    4    0    0  0.30374487923E+02  0.16825172842E+02  0.87013465415E+01  0.35796779036E+02  0.00000000000E+00 0. -1.
         11    1    4    4    0    0 -0.48199542653E+02 -0.90780889245E+01  0.72332222209E+02  0.87393123186E+02  0.00000000000E+00 0.  1.
</event>
<event>
 8    1  0.6901948E-009  0.1291424E+03  0.7561462E-02  0.1228734E+00
         -2   -1    0    0    0  501 -0.00000000000E+00  0.00000000000E+00  0.11329232434E+04  0.11329232434E+04  0.00000000000E+00 0.  1.
          2   -1    0    0  501    0  0.00000000000E+00 -0.00000000000E+00 -0.15867008919E+02  0.15867008919E+02  0.00000000000E+00 0. -1.
         25    2    1    2    0    0  0.29350429842E+02 -0.68815126242E+02  0.72644380879E+03  0.74092098286E+03  0.12508527567E+03 0.  0.
         23    2    1    2    0    0 -0.29350429842E+02  0.68815126242E+02  0.39061242574E+03  0.40786926950E+03  0.90456091727E+02 0.  0.
          5    1    3    3  502    0  0.62854423843E+02  0.58776035621E+01  0.34761976593E+03  0.35333015564E+03  0.41800000000E+01 0.  1.
         -5    1    3    3    0  502 -0.33503994002E+02 -0.74692729804E+02  0.37882404286E+03  0.38759082723E+03  0.41800000000E+01 0.  1.
        -11    1    4    4    0    0  0.34009898253E+01  0.78749992835E+02  0.21596627086E+03  0.22990119237E+03  0.00000000000E+00 0.  1.
         11    1    4    4    0    0 -0.32751419667E+02 -0.99348665931E+01  0.17464615488E+03  0.17796807713E+03  0.00000000000E+00 0. -1.
</event>
<event>
 8    1  0.6901948E-009  0.1943541E+03  0.7561462E-02  0.1154592E+00
          1   -1    0    0  501    0  0.00000000000E+00  0.00000000000E+00  0.10820931133E+03  0.10820931133E+03  0.00000000000E+00 0. -1.
         -1   -1    0    0    0  501 -0.00000000000E+00 -0.00000000000E+00 -0.39469087155E+03  0.39469087155E+03  0.00000000000E+00 0.  1.
         25    2    1    2    0    0 -0.17198858769E+03 -0.33545283761E+02 -0.16232282026E+03  0.26963146405E+03  0.12508824114E+03 0.  0.
         23    2    1    2    0    0  0.17198858769E+03  0.33545283761E+02 -0.12415873996E+03  0.23326871883E+03  0.91068886666E+02 0.  0.
          5    1    3    3  502    0 -0.14125414697E+03  0.55875055277E+01 -0.16773993731E+03  0.21940399546E+03  0.41800000000E+01 0.  1.
         -5    1    3    3    0  502 -0.30734440713E+02 -0.39132789288E+02  0.54171170537E+01  0.50227468587E+02  0.41800000000E+01 0.  1.
        -11    1    4    4    0    0  0.50959005211E+01  0.29986850220E+02 -0.16090199784E+02  0.34410375141E+02  0.00000000000E+00 0.  1.
         11    1    4    4    0    0  0.16689268717E+03  0.35584335406E+01 -0.10806854017E+03  0.19885834369E+03  0.00000000000E+00 0. -1.
</event>
<event>
 8    1  0.6901948E-009  0.1485099E+03  0.7561462E-02  0.1202316E+00
          1   -1    0    0  501    0  0.00000000000E+00  0.00000000000E+00  0.66233666770E+02  0.66233666770E+02  0.00000000000E+00 0. -1.
         -1   -1    0    0    0  501 -0.00000000000E+00 -0.00000000000E+00 -0.61507183947E+03  0.61507183947E+03  0.00000000000E+00 0.  1.
         25    2    1    2    0    0 -0.58529965966E+02 -0.10892312471E+03 -0.90423047153E+02  0.19777157758E+03  0.12508903001E+03 0.  0.
         23    2    1    2    0    0  0.58529965966E+02  0.10892312471E+03 -0.45841512554E+03  0.48353392866E+03  0.91491140677E+02 0.  0.
          5    1    3    3  502    0  0.78331832375E+01 -0.91220620991E+02 -0.10412218994E+02  0.92241244343E+02  0.41800000000E+01 0. -1.
         -5    1    3    3    0  502 -0.66363149204E+02 -0.17702503722E+02 -0.80010828159E+02  0.10553033324E+03  0.41800000000E+01 0. -1.
        -11    1    4    4    0    0  0.22978031013E+02  0.96028336198E+02 -0.41197930140E+03  0.42364652252E+03  0.00000000000E+00 0.  1.
         11    1    4    4    0    0  0.35551934954E+02  0.12894788514E+02 -0.46435824143E+02  0.59887406135E+02  0.00000000000E+00 0. -1.
</event>
<event>
 8    1  0.6901948E-009  0.1784170E+03  0.7561462E-02  0.1169344E+00
         -2   -1    0    0    0  501 -0.00000000000E+00  0.00000000000E+00  0.35066645750E+02  0.35066645750E+02  0.00000000000E+00 0.  1.
          2   -1    0    0  501    0  0.00000000000E+00 -0.00000000000E+00 -0.10164450520E+04  0.10164450520E+04  0.00000000000E+00 0. -1.
         25    2    1    2    0    0  0.68042571531E+02  0.12588867513E+03 -0.36209658419E+03  0.40893912657E+03  0.12505807807E+03 0.  0.
         23    2    1    2    0    0 -0.68042571531E+02 -0.12588867513E+03 -0.61928182207E+03  0.64257257119E+03  0.94402245906E+02 0.  0.
          5    1    3    3  502    0 -0.16646543731E+01  0.11562043300E+03 -0.18390340459E+03  0.21727583901E+03  0.41800000000E+01 0.  1.
         -5    1    3    3    0  502  0.69707225904E+02  0.10268242133E+02 -0.17819317960E+03  0.19166328755E+03  0.41800000000E+01 0.  1.
        -11    1    4    4    0    0  0.21744349683E+02 -0.99785950790E+01 -0.11203543143E+03  0.11456145511E+03  0.00000000000E+00 0. -1.
         11    1    4    4    0    0 -0.89786921214E+02 -0.11591008005E+03 -0.50724639065E+03  0.52801111608E+03  0.00000000000E+00 0.  1.
</event>
<event>
 8    1  0.6901948E-009  0.1047632E+03  0.7561462E-02  0.1270587E+00
          2   -1    0    0  501    0  0.00000000000E+00  0.00000000000E+00  0.75430427048E+03  0.75430427048E+03  0.00000000000E+00 0. -1.
         -2   -1    0    0    0  501 -0.00000000000E+00 -0.00000000000E+00 -0.18666884058E+02  0.18666884058E+02  0.00000000000E+00 0.  1.
         25    2    1    2    0    0 -0.36718021249E+02  0.34357751858E+02  0.41953308648E+03  0.44066373596E+03  0.12509136397E+03 0.  0.
         23    2    1    2    0    0  0.36718021249E+02 -0.34357751858E+02  0.31610429994E+03  0.33230741858E+03  0.89317544768E+02 0.  0.
          5    1    3    3  502    0  0.39841401908E+02  0.28800609956E+02  0.93826858208E+02  0.10600832119E+03  0.41800000000E+01 0.  1.
         -5    1    3    3    0  502 -0.76559423157E+02  0.55571419022E+01  0.32570622827E+03  0.33465541477E+03  0.41800000000E+01 0.  1.
        -11    1    4    4    0    0  0.12533056599E+02 -0.51928522805E+02  0.28174254309E+03  0.28676211322E+03  0.00000000000E+00 0.  1.
         11    1    4    4    0    0  0.24184964650E+02  0.17570770947E+02  0.34361756853E+02  0.45545305365E+02  0.00000000000E+00 0. -1.
</event>
<event>
 7    1  0.6901948E-009  0.1238030E+03  0.7561462E-02  0.1236952E+00
         -2   -1    0    0    0  501 -0.00000000000E+00  0.00000000000E+00  0.49007860641E+02  0.49007860641E+02  0.00000000000E+00 0.  1.
          2   -1    0    0  501    0  0.00000000000E+00 -0.00000000000E+00 -0.40021960684E+03  0.40021960684E+03  0.00000000000E+00 0. -1.
         23    2    1    2    0    0 -0.52974227699E+02 -0.62793524884E+02 -0.10883249967E+03  0.16449882799E+03  0.92011172470E+02 0.  0.
          5    1    1    2  502    0 -0.36969460343E+02  0.32172567042E+02 -0.50069366953E+02  0.70187099778E+02  0.41800000000E+01 0.  1.
         -5    1    1    2    0  502  0.89943688042E+02  0.30620957842E+02 -0.19230987957E+03  0.21454153971E+03  0.41800000000E+01 0.  1.
        -11    1    3    3    0    0 -0.46307271283E+00 -0.49026678653E+02 -0.97368377487E+02  0.10901573552E+03  0.00000000000E+00 0. -1.
         11    1    3    3    0    0 -0.52511154986E+02 -0.13766846230E+02 -0.11464122181E+02  0.55483092474E+02  0.00000000000E+00 0.  1.
</event>
<event>
 8    1  0.6901948E-009  0.8062726E+02  0.7561462E-02  0.1327281E+00
         -4   -1    0    0    0  501 -0.00000000000E+00  0.00000000000E+00  0.36223923914E+02  0.36223923914E+02  0.00000000000E+00 0.  1.
          4   -1    0    0  501    0  0.00000000000E+00 -0.00000000000E+00 -0.50354717880E+03  0.50354717880E+03  0.00000000000E+00 0. -1.
         25    2    1    2    0    0  0.21494015331E+02  0.76600246000E+01 -0.41268161496E+03  0.43182692477E+03  0.12509080286E+03 0.  0.
         23    2    1    2    0    0 -0.21494015331E+02 -0.76600246000E+01 -0.54641639928E+02  0.10794417794E+03  0.90252800878E+02 0.  0.
          5    1    3    3  502    0  0.49053570584E+02 -0.74523455681E+00 -0.58551491553E+02  0.76502011245E+02  0.41800000000E+01 0. -1.
         -5    1    3    3    0  502 -0.27559555253E+02  0.84052591568E+01 -0.35413012341E+03  0.35532491352E+03  0.41800000000E+01 0. -1.
        -11    1    4    4    0    0  0.28862076253E+02  0.83801527839E+01 -0.45167473872E+02  0.54252622999E+02  0.00000000000E+00 0. -1.
         11    1    4    4    0    0 -0.50356091583E+02 -0.16040177384E+02 -0.94741660558E+01  0.53691554946E+02  0.00000000000E+00 0.  1.
</event>
<event>
 7    1  0.6901948E-009  0.9080203E+02  0.7561462E-02  0.1300921E+00
          2   -1    0    0  501    0  0.00000000000E+00  0.00000000000E+00  0.30421902951E+04  0.30421902951E+04  0.00000000000E+00 0. -1.
         -2   -1    0    0    0  501 -0.00000000000E+00 -0.00000000000E+00 -0.77711795187E+01  0.77711795187E+01  0.00000000000E+00 0.  1.
         23    2    1    2    0    0 -0.31702975837E+02 -0.37858073390E+02  0.44623124235E+03  0.45828561269E+03  0.92005808240E+02 0.  0.
          5    1    1    2  502    0  0.35094580835E+02 -0.34668799521E+01  0.20025794430E+03  0.20338231368E+03  0.41800000000E+01 0.  1.
         -5    1    1    2    0  502 -0.33916049981E+01  0.41324953342E+02  0.23879299289E+04  0.23882935483E+04  0.41800000000E+01 0.  1.
        -11    1    3    3    0    0 -0.55806616223E+02  0.41765156873E+01  0.23792303115E+03  0.24441601922E+03  0.00000000000E+00 0. -1.
         11    1    3    3    0    0  0.24103640386E+02 -0.42034589078E+02  0.20830821120E+03  0.21386959347E+03  0.00000000000E+00 0.  1.
</event>
<event>
 8    1  0.6901948E-009  0.2675227E+03  0.7561462E-02  0.1102706E+00
         -2   -1    0    0    0  501 -0.00000000000E+00  0.00000000000E+00  0.90788509084E+02  0.90788509084E+02  0.00000000000E+00 0. -1.
          2   -1    0    0  501    0  0.00000000000E+00 -0.00000000000E+00 -0.83504886504E+03  0.83504886504E+03  0.00000000000E+00 0.  1.
         25    2    1    2    0    0  0.23225182859E+03  0.10132780903E+03 -0.38032548973E+03  0.47381699144E+03  0.12508727544E+03 0.  0.
         23    2    1    2    0    0 -0.23225182859E+03 -0.10132780903E+03 -0.36393486623E+03  0.45202038268E+03  0.87553427903E+02 0.  0.
          5    1    3    3  502    0  0.73160063578E+02 -0.10055043782E+02 -0.45845842034E+02  0.87021907816E+02  0.41800000000E+01 0. -1.
         -5    1    3    3    0  502  0.15909176501E+03  0.11138285281E+03 -0.33447964769E+03  0.38679508363E+03  0.41800000000E+01 0. -1.
        -11    1    4    4    0    0 -0.20070948017E+03 -0.50429413041E+02 -0.26297936361E+03  0.33464244622E+03  0.00000000000E+00 0.  1.
         11    1    4    4    0    0 -0.31542348417E+02 -0.50898395991E+02 -0.10095550262E+03  0.11737793646E+03  0.00000000000E+00 0. -1.
</event>
<event>
 8    1  0.6901948E-009  0.1322592E+03  0.7561462E-02  0.1224142E+00
          2   -1    0    0  501    0  0.00000000000E+00  0.00000000000E+00  0.27931358830E+03  0.27931358830E+03  0.00000000000E+00 0. -1.
         -2   -1    0    0    0  501 -0.00000000000E+00 -0.00000000000E+00 -0.82225073330E+02  0.82225073330E+02  0.00000000000E+00 0.  1.
         25    2    1    2    0    0 -0.24045516669E+02  0.91758305189E+02  0.15983858869E+03  0.22403781927E+03  0.12508715596E+03 0.  0.
         23    2    1    2    0    0  0.24045516669E+02 -0.91758305189E+02  0.37249926283E+02  0.13750084236E+03  0.92310081785E+02 0.  0.
          5    1    3    3  502    0 -0.74525358868E+02  0.45067281209E+02  0.10110532674E+03  0.13350973165E+03  0.41800000000E+01 0. -1.
         -5    1    3    3    0  502  0.50479842199E+02  0.46691023980E+02  0.58733261943E+02  0.90528087615E+02  0.41800000000E+01 0. -1.
        -11    1    4    4    0    0 -0.16503145164E+02 -0.19211647677E+02 -0.23504375909E+02  0.34552813108E+02  0.00000000000E+00 0.  1.
         11    1    4    4    0    0  0.40548661833E+02 -0.72546657512E+02  0.60754302192E+02  0.10294802925E+03  0.00000000000E+00 0. -1.
</event>
<event>
 8    1  0.6901948E-009  0.1379304E+03  0.7561462E-02  0.1216141E+00
          2   -1    0    0  501    0  0.00000000000E+00  0.00000000000E+00  0.52793069505E+03  0.52793069505E+03  0.00000000000E+00 0.  1.
         -2   -1    0    0    0  501 -0.00000000000E+00 -0.00000000000E+00 -0.48317190805E+02  0.48317190805E+02  0.00000000000E+00 0. -1.
         25    2    1    2    0    0  0.27763204817E+02  0.10457864140E+03  0.18529521711E+03  0.24837402706E+03  0.12509137483E+03 0.  0.
         23    2    1    2    0    0 -0.27763204817E+02 -0.10457864140E+03  0.29431828714E+03  0.32787385880E+03  0.95762860025E+02 0.  0.
          5    1    3    3  502    0 -0.25713374186E+02  0.92357646620E+01  0.11515021407E+03  0.11842094900E+03  0.41800000000E+01 0.  1.
         -5    1    3    3    0  502  0.53476579003E+02  0.95342876738E+02  0.70145003038E+02  0.12995307806E+03  0.41800000000E+01 0.  1.
        -11    1    4    4    0    0  0.16326312495E+02 -0.91344889939E+02  0.14989859537E+03  0.17629528154E+03  0.00000000000E+00 0.  1.
         11    1    4    4    0    0 -0.44089517311E+02 -0.13233751461E+02  0.14441969177E+03  0.15157857726E+03  0.00000000000E+00 0. -1.
</event>
<event>
 8    1  0.6901948E-009  0.1254753E+03  0.7561462E-02  0.1234328E+00
          4   -1    0    0  501    0  0.00000000000E+00  0.00000000000E+00  0.56123641174E+02  0.56123641174E+02  0.00000000000E+00 0. -1.
         -4   -1    0    0    0  501 -0.00000000000E+00 -0.00000000000E+00 -0.45581589543E+03  0.45581589543E+03  0.00000000000E+00 0.  1.
         25    2    1    2    0    0 -0.72765695271E+02 -0.91052710201E+02 -0.20066167534E+03  0.26362691205E+03  0.12509435784E+03 0.  0.
         23    2    1    2    0    0  0.72765695271E+02  0.91052710201E+02 -0.19903057892E+03  0.24831262456E+03  0.91981224859E+02 0.  0.
          5    1    3    3  502    0 -0.84857082875E+02 -0.71769398166E+02 -0.71068958585E+02  0.13198424263E+03  0.41800000000E+01 0. -1.
         -5    1    3    3    0  502  0.12091387603E+02 -0.19283312035E+02 -0.12959271675E+03  0.13164266942E+03  0.41800000000E+01 0. -1.
        -11    1    4    4    0    0  0.32437762739E+02  0.42916010600E+02 -0.17151153013E+03  0.17975037520E+03  0.00000000000E+00 0.  1.
         11    1    4    4    0    0  0.40327932532E+02  0.48136699601E+02 -0.27519048791E+02  0.68562249359E+02  0.00000000000E+00 0. -1.
</event>
<event>
 8    1  0.6901948E-009  0.4240323E+03  0.7561462E-02  0.1035762E+00
         -1   -1    0    0    0  501 -0.00000000000E+00  0.00000000000E+00  0.77540760765E+02  0.77540760765E+02  0.00000000000E+00 0.  1.
          1   -1    0    0  501    0  0.00000000000E+00 -0.00000000000E+00 -0.24027725104E+04  0.24027725104E+04  0.00000000000E+00 0. -1.
         25    2    1    2    0    0 -0.26322495198E+03  0.32075144926E+03 -0.10432204890E+04  0.11296570029E+04  0.12508832098E+03 0.  0.
         23    2    1    2    0    0  0.26322495198E+03 -0.32075144926E+03 -0.12820112606E+04  0.13506562682E+04  0.92469535492E+02 0.  0.
          5    1    3    3  502    0 -0.25908938454E+03  0.26256824497E+03 -0.95540802725E+03  0.10241539744E+04  0.41800000000E+01 0. -1.
         -5    1    3    3    0  502 -0.41355674402E+01  0.58183204292E+02 -0.87812461769E+02  0.10550302850E+03  0.41800000000E+01 0. -1.
        -11    1    4    4    0    0  0.17321519847E+03 -0.15676748813E+03 -0.61387202036E+03  0.65682448774E+03  0.00000000000E+00 0. -1.
         11    1    4    4    0    0  0.90009753508E+02 -0.16398396113E+03 -0.66813924028E+03  0.69383178050E+03  0.00000000000E+00 0.  1.
</event>
<event>
 8    1  0.6901948E-009  0.1859099E+03  0.7561462E-02  0.1162203E+00
          1   -1    0    0  501    0  0.00000000000E+00  0.00000000000E+00  0.13250534214E+04  0.13250534214E+04  0.00000000000E+00 0. -1.
         -1   -1    0    0    0  501 -0.00000000000E+00 -0.00000000000E+00 -0.36744887461E+02  0.36744887461E+02  0.00000000000E+00 0.  1.
         25    2    1    2    0    0  0.21706240666E+02 -0.16547380467E+03  0.96065854965E+03  0.98303891009E+03  0.12509160176E+03 0.  0.
         23    2    1    2    0    0 -0.21706240666E+02  0.16547380467E+03  0.32764998425E+03  0.37875939872E+03  0.90837376827E+02 0.  0.
          5    1    3    3  502    0 -0.24949183729E+02 -0.11183892982E+03  0.35144221148E+03  0.36967486850E+03  0.41800000000E+01 0.  1.
         -5    1    3    3    0  502  0.46655424395E+02 -0.53634874848E+02  0.60921633817E+03  0.61336404159E+03  0.41800000000E+01 0.  1.
        -11    1    4    4    0    0  0.18767371915E+02  0.36271502846E+01  0.14681546977E+02  0.24102246564E+02  0.00000000000E+00 0.  1.
         11    1    4    4    0    0 -0.40473612581E+02  0.16184665439E+03  0.31296843727E+03  0.35465715216E+03  0.00000000000E+00 0. -1.
</event>
<event>
 8    1  0.6901948E-009  0.9303204E+02  0.7561462E-02  0.1295671E+00
         -2   -1    0    0    0  501 -0.00000000000E+00  0.00000000000E+00  0.15291540887E+03  0.15291540887E+03  0.00000000000E+00 0.  1.
          2   -1    0    0  501    0  0.00000000000E+00 -0.00000000000E+00 -0.86227160668E+02  0.86227160668E+02  0.00000000000E+00 0. -1.
         25    2    1    2    0    0  0.91444079821E+01 -0.37167754360E+02  0.31885650379E+02  0.13464432968E+03  0.12508932270E+03 0.  0.
         23    2    1    2    0    0 -0.91444079821E+01  0.37167754360E+02  0.34802597822E+02  0.10449823986E+03  0.90794268305E+02 0.  0.
          5    1    3    3  502    0  0.58675462635E+01  0.29652430807E+02 -0.30449489582E+02  0.43108451234E+02  0.41800000000E+01 0. -1.
         -5    1    3    3    0  502  0.32768617186E+01 -0.66820185167E+02  0.62335139961E+02  0.91535878444E+02  0.41800000000E+01 0. -1.
        -11    1    4    4    0    0  0.35592314076E+02  0.15854561247E+02 -0.70964769684E+01  0.39604796666E+02  0.00000000000E+00 0. -1.
         11    1    4    4    0    0 -0.44736722058E+02  0.21313193113E+02  0.41899074790E+02  0.64893443193E+02  0.00000000000E+00 0.  1.
</event>
<event>
 8    1  0.6901948E-009  0.1519181E+03  0.7561462E-02  0.1198136E+00
         -3   -1    0    0    0  501 -0.00000000000E+00  0.00000000000E+00  0.60499650580E+02  0.60499650580E+02  0.00000000000E+00 0.  1.
          3   -1    0    0  501    0  0.00000000000E+00 -0.00000000000E+00 -0.47308959462E+03  0.47308959462E+03  0.00000000000E+00 0. -1.
         25    2    1    2    0    0  0.42300673697E+02  0.11005648233E+03 -0.13517195322E+03  0.21868080212E+03  0.12509220592E+03 0.  0.
         23    2    1    2    0    0 -0.42300673697E+02 -0.11005648233E+03 -0.27741799082E+03  0.31490844308E+03  0.91130728052E+02 0.  0.
          5    1    3    3  502    0  0.47956925120E+02 -0.71359037131E+01 -0.67361659486E+02  0.83101464231E+02  0.41800000000E+01 0.  1.
         -5    1    3    3    0  502 -0.56562514229E+01  0.11719238604E+03 -0.67810293731E+02  0.13557933789E+03  0.41800000000E+01 0.  1.
        -11    1    4    4    0    0 -0.48942058194E+02 -0.29932946684E+02 -0.17818884380E+03  0.18719660898E+03  0.00000000000E+00 0. -1.
         11    1    4    4    0    0  0.66413844971E+01 -0.80123535642E+02 -0.99229147020E+02  0.12771183410E+03  0.00000000000E+00 0.  1.
</event>
<event>
 8    1  0.6901948E-009  0.7635046E+02  0.7561462E-02  0.1339739E+00
          1   -1    0    0  501    0  0.00000000000E+00  0.00000000000E+00  0.18589610544E+03  0.18589610544E+03  0.00000000000E+00 0. -1.
         -1   -1    0    0    0  501 -0.00000000000E+00 -0.00000000000E+00 -0.66586139489E+02  0.66586139489E+02  0.00000000000E+00 0.  1.
         25    2    1    2    0    0  0.28284683131E+01  0.18137228154E+02  0.92614625419E+02  0.15672344345E+03  0.12509120515E+03 0.  0.
         23    2    1    2    0    0 -0.28284683131E+01 -0.18137228154E+02  0.26695340531E+02  0.95758801483E+02  0.90111861468E+02 0.  0.
          5    1    3    3  502    0 -0.12961197125E+01 -0.22678052796E+02  0.10968783088E+03  0.11209311597E+03  0.41800000000E+01 0.  1.
         -5    1    3    3    0  502  0.41245880256E+01  0.40815280949E+02 -0.17073205465E+02  0.44630327471E+02  0.41800000000E+01 0.  1.
        -11    1    4    4    0    0 -0.27169348611E+02 -0.44719478143E+02  0.28663044011E+02  0.59662176639E+02  0.00000000000E+00 0. -1.
         11    1    4    4    0    0  0.24340880298E+02  0.26582249989E+02 -0.19677034802E+01  0.36096624844E+02  0.00000000000E+00 0.  1.
</event>
<event>
 8    1  0.6901948E-009  0.1074107E+03  0.7561462E-02  0.1265441E+00
          2   -1    0    0  501    0  0.00000000000E+00  0.00000000000E+00  0.24556304078E+03  0.24556304078E+03  0.00000000000E+00 0. -1.
         -2   -1    0    0    0  501 -0.00000000000E+00 -0.00000000000E+00 -0.61693813471E+02  0.61693813471E+02  0.00000000000E+00 0.  1.
         25    2    1    2    0    0  0.15907223960E+02  0.14587523652E+02  0.35345656435E+02  0.13176966135E+03  0.12509233630E+03 0.  0.
         23    2    1    2    0    0 -0.15907223960E+02 -0.14587523652E+02  0.14852357088E+03  0.17548719291E+03  0.90943213864E+02 0.  0.
          5    1    3    3  502    0 -0.30690866853E+02  0.56272274048E+02  0.16130679473E+02  0.66228161344E+02  0.41800000000E+01 0. -1.
         -5    1    3    3    0  502  0.46598090813E+02 -0.41684750396E+02  0.19214976962E+02  0.65541500003E+02  0.41800000000E+01 0. -1.
        -11    1    4    4    0    0  0.76526942168E+01 -0.47131815248E+02  0.50251715077E+02  0.69319597558E+02  0.00000000000E+00 0.  1.
         11    1    4    4    0    0 -0.23559918177E+02  0.32544291596E+02  0.98271855799E+02  0.10616759535E+03  0.00000000000E+00 0. -1.
</event>
<event>
 8    1  0.6901948E-009  0.9392672E+02  0.7561462E-02  0.1293612E+00
         -2   -1    0    0    0  501 -0.00000000000E+00  0.00000000000E+00  0.20907379227E+03  0.20907379227E+03  0.00000000000E+00 0.  1.
          2   -1    0    0  501    0  0.00000000000E+00 -0.00000000000E+00 -0.10236878919E+03  0.10236878919E+03  0.00000000000E+00 0. -1.
         25    2    1    2    0    0  0.46900790142E+02  0.46161721434E+02 -0.17931982188E+02  0.14247676139E+03  0.12508989931E+03 0.  0.
         23    2    1    2    0    0 -0.46900790142E+02 -0.46161721434E+02  0.12463698527E+03  0.16896582006E+03  0.93190566108E+02 0.  0.
          5    1    3    3  502    0 -0.44430909785E+01  0.94321548897E+01 -0.63513914708E+02  0.64499584222E+02  0.41800000000E+01 0.  1.
         -5    1    3    3    0  502  0.51343881121E+02  0.36729566544E+02  0.45581932520E+02  0.77977177169E+02  0.41800000000E+01 0.  1.
        -11    1    4    4    0    0  0.24275699901E+02  0.61242039832E+01  0.20031737925E+02  0.32063780257E+02  0.00000000000E+00 0.  1.
         11    1    4    4    0    0 -0.71176490043E+02 -0.52285925417E+02  0.10460524734E+03  0.13690203981E+03  0.00000000000E+00 0. -1.
</event>
<event>
 8    1  0.6901948E-009  0.1098809E+03  0.7561462E-02  0.1260791E+00
          2   -1    0    0  501    0  0.00000000000E+00  0.00000000000E+00  0.14975774137E+03  0.14975774137E+03  0.00000000000E+00 0.  1.
         -2   -1    0    0    0  501 -0.00000000000E+00 -0.00000000000E+00 -0.95327538837E+02  0.95327538837E+02  0.00000000000E+00 0. -1.
         25    2    1    2    0    0  0.15347626167E+02 -0.17176285975E+02  0.75729793181E+02  0.14803206156E+03  0.12509162740E+03 0.  0.
         23    2    1    2    0    0 -0.15347626167E+02  0.17176285975E+02 -0.21299590651E+02  0.97053218647E+02  0.91842693008E+02 0.  0.
          5    1    3    3  502    0  0.49339903874E+02  0.37678562795E+02  0.32022252777E+02  0.69978548724E+02  0.41800000000E+01 0.  1.
         -5    1    3    3    0  502 -0.33992277708E+02 -0.54854848770E+02  0.43707540403E+02  0.78053512832E+02  0.41800000000E+01 0.  1.
        -11    1    4    4    0    0  0.11462957248E+02 -0.33572677220E+02 -0.17432492578E+02  0.39527406215E+02  0.00000000000E+00 0.  1.
         11    1    4    4    0    0 -0.26810583415E+02  0.50748963195E+02 -0.38670980731E+01  0.57525812432E+02  0.00000000000E+00 0. -1.
</event>
<event>
 8    1  0.6901948E-009  0.1219559E+03  0.7561462E-02  0.1239905E+00
         -1   -1    0    0    0  501 -0.00000000000E+00  0.00000000000E+00  0.12596572926E+03  0.12596572926E+03  0.00000000000E+00 0.  1.
          1   -1    0    0  501    0  0.00000000000E+00 -0.00000000000E+00 -0.20386305888E+03  0.20386305888E+03  0.00000000000E+00 0. -1.
         25    2    1    2    0    0 -0.92767592510E+02 -0.64538815139E+02 -0.72654547908E+02  0.18356811046E+03  0.12508989953E+03 0.  0.
         23    2    1    2    0    0  0.92767592510E+02  0.64538815139E+02 -0.52427817085E+01  0.14626067769E+03  0.92701748623E+02 0.  0.
          5    1    3    3  502    0 -0.74668093710E+01  0.97690900806E+01 -0.69097423803E+02  0.70307287953E+02  0.41800000000E+01 0. -1.
         -5    1    3    3    0  502 -0.85300783139E+02 -0.74307905219E+02 -0.35571241053E+01  0.11326082250E+03  0.41800000000E+01 0. -1.
        -11    1    4    4    0    0  0.34521035351E+02  0.44071358432E+02  0.40776590979E+02  0.69258334428E+02  0.00000000000E+00 0.  1.
         11    1    4    4    0    0  0.58246557158E+02  0.20467456706E+02 -0.46019372688E+02  0.77002343259E+02  0.00000000000E+00 0. -1.
</event>
<event>
 8    1  0.6901948E-009  0.1050846E+03  0.7561462E-02  0.1269953E+00
         -1   -1    0    0    0  501 -0.00000000000E+00  0.00000000000E+00  0.14897938936E+03  0.14897938936E+03  0.00000000000E+00 0.  1.
          1   -1    0    0  501    0  0.00000000000E+00 -0.00000000000E+00 -0.19573103099E+03  0.19573103099E+03  0.00000000000E+00 0. -1.
         25    2    1    2    0    0  0.42657331223E+02  0.47341916077E+02 -0.14026387856E+03  0.19845115916E+03  0.12509197423E+03 0.  0.
         23    2    1    2    0    0 -0.42657331223E+02 -0.47341916077E+02  0.93512236926E+02  0.14625926119E+03  0.92662441719E+02 0.  0.
          5    1    3    3  502    0  0.37710742943E+02 -0.36368297587E+02 -0.77431225478E+02  0.93583226498E+02  0.41800000000E+01 0. -1.
         -5    1    3    3    0  502  0.49465882805E+01  0.83710213664E+02 -0.62832653083E+02  0.10486793266E+03  0.41800000000E+01 0. -1.
        -11    1    4    4    0    0  0.58718497970E+01 -0.12807248962E+02 -0.16170457988E+02  0.21447329847E+02  0.00000000000E+00 0. -1.
         11    1    4    4    0    0 -0.48529181020E+02 -0.34534667115E+02  0.10968269491E+03  0.12481193135E+03  0.00000000000E+00 0.  1.
</event>
<event>
 8    1  0.6901948E-009  0.1228286E+03  0.7561462E-02  0.1238502E+00
          1   -1    0    0  501    0  0.00000000000E+00  0.00000000000E+00  0.10522574084E+04  0.10522574084E+04  0.00000000000E+00 0. -1.
         -1   -1    0    0    0  501 -0.00000000000E+00 -0.00000000000E+00 -0.17776377319E+02  0.17776377319E+02  0.00000000000E+00 0.  1.
         25    2    1    2    0    0 -0.43189721586E+02  0.70788865230E+02  0.52488098735E+03  0.54591615278E+03  0.12509188421E+03 0.  0.
         23    2    1    2    0    0  0.43189721586E+02 -0.70788865230E+02  0.50960004368E+03  0.52411763289E+03  0.90170245052E+02 0.  0.
          5    1    3    3  502    0 -0.78876433156E+02  0.30129504756E+02  0.20970966828E+03  0.22610815141E+03  0.41800000000E+01 0.  1.
         -5    1    3    3    0  502  0.35686711570E+02  0.40659360474E+02  0.31517131907E+03  0.31980800137E+03  0.41800000000E+01 0.  1.
        -11    1    4    4    0    0  0.19326955291E+02  0.10600220217E+02  0.30868837554E+02  0.37931266804E+02  0.00000000000E+00 0.  1.
         11    1    4    4    0    0  0.23862766295E+02 -0.81389085447E+02  0.47873120613E+03  0.48618636609E+03  0.00000000000E+00 0. -1.
</event>
<event>
 8    1  0.6901948E-009  0.1329388E+03  0.7561462E-02  0.1223159E+00
         -2   -1    0    0    0  501 -0.00000000000E+00  0.00000000000E+00  0.26269912961E+03  0.26269912961E+03  0.00000000000E+00 0. -1.
          2   -1    0    0  501    0  0.00000000000E+00 -0.00000000000E+00 -0.10046714783E+03  0.10046714783E+03  0.00000000000E+00 0.  1.
         25    2    1    2    0    0  0.43838821244E+02 -0.93958945097E+02  0.15877583953E+03  0.22717114167E+03  0.12508730862E+03 0.  0.
         23    2    1    2    0    0 -0.43838821244E+02  0.93958945097E+02  0.34561422539E+01  0.13599513576E+03  0.87935239923E+02 0.  0.
          5    1    3    3  502    0  0.80668550495E+02 -0.72418058333E+02  0.71484083995E+02  0.12992011729E+03  0.41800000000E+01 0. -1.
         -5    1    3    3    0  502 -0.36829729251E+02 -0.21540886764E+02  0.87291755532E+02  0.97251024381E+02  0.41800000000E+01 0. -1.
        -11    1    4    4    0    0  0.10792179486E+02  0.17201499514E+02  0.31693261237E+02  0.37640742971E+02  0.00000000000E+00 0. -1.
         11    1    4    4    0    0 -0.54631000729E+02  0.76757445583E+02 -0.28237118983E+02  0.98354392792E+02  0.00000000000E+00 0.  1.
</event>
<event>
 7    1  0.6901948E-009  0.1253253E+03  0.7561462E-02  0.1234562E+00
         -2   -1    0    0    0  501 -0.00000000000E+00  0.00000000000E+00  0.34552144145E+02  0.34552144145E+02  0.00000000000E+00 0.  1.
          2   -1    0    0  501    0  0.00000000000E+00 -0.00000000000E+00 -0.60075613263E+03  0.60075613263E+03  0.00000000000E+00 0. -1.
         23    2    1    2    0    0 -0.59956022057E+02  0.29782610054E+02 -0.11259252432E+03  0.15980642804E+03  0.91538458944E+02 0.  0.
          5    1    1    2  502    0  0.23411324029E+02  0.47167914741E+02 -0.23449791420E+03  0.24037397205E+03  0.41800000000E+01 0.  1.
         -5    1    1    2    0  502  0.36544698028E+02 -0.76950524794E+02 -0.21911354996E+03  0.23512787668E+03  0.41800000000E+01 0.  1.
        -11    1    3    3    0    0  0.24153568782E+02  0.34334706625E+01 -0.16726447581E+02  0.29579683135E+02  0.00000000000E+00 0.  1.
         11    1    3    3    0    0 -0.84109590839E+02  0.26349139391E+02 -0.95866076743E+02  0.13022674490E+03  0.00000000000E+00 0. -1.
</event>
<event>
 8    1  0.6901948E-009  0.8825268E+02  0.7561462E-02  0.1307139E+00
         -2   -1    0    0    0  501 -0.00000000000E+00  0.00000000000E+00  0.16607335151E+03  0.16607335151E+03  0.00000000000E+00 0. -1.
          2   -1    0    0  501    0  0.00000000000E+00 -0.00000000000E+00 -0.76981565588E+02  0.76981565588E+02  0.00000000000E+00 0.  1.
         25    2    1    2    0    0 -0.58353221239E+01 -0.19260317192E+02  0.22121877558E+02  0.12861463674E+03  0.12508931415E+03 0.  0.
         23    2    1    2    0    0  0.58353221239E+01  0.19260317192E+02  0.66969908365E+02  0.11444028036E+03  0.90590277291E+02 0.  0.
          5    1    3    3  502    0 -0.25010207584E+02  0.37862670729E+02  0.44984203377E+02  0.64032361127E+02  0.41800000000E+01 0. -1.
         -5    1    3    3    0  502  0.19174885460E+02 -0.57122987920E+02 -0.22862325819E+02  0.64582275612E+02  0.41800000000E+01 0. -1.
        -11    1    4    4    0    0 -0.23823577106E+01 -0.25205085562E+02  0.64344062382E+02  0.69145718091E+02  0.00000000000E+00 0. -1.
         11    1    4    4    0    0  0.82176798346E+01  0.44465402754E+02  0.26258459825E+01  0.45294562268E+02  0.00000000000E+00 0.  1.
</event>
<event>
 8    1  0.6901948E-009  0.1090315E+03  0.7561462E-02  0.1262374E+00
         -1   -1    0    0    0  501 -0.00000000000E+00  0.00000000000E+00  0.41671418492E+02  0.41671418492E+02  0.00000000000E+00 0.  1.
          1   -1    0    0  501    0  0.00000000000E+00 -0.00000000000E+00 -0.38544280903E+03  0.38544280903E+03  0.00000000000E+00 0. -1.
         25    2    1    2    0    0 -0.20615644535E+02  0.12449296098E+02 -0.29177645273E+03  0.31836756371E+03  0.12507764580E+03 0.  0.
         23    2    1    2    0    0  0.20615644535E+02 -0.12449296098E+02 -0.51994937802E+02  0.10874666381E+03  0.92424961778E+02 0.  0.
          5    1    3    3  502    0 -0.63214833194E+02  0.40969341217E+02 -0.15952376229E+03  0.17646502541E+03  0.41800000000E+01 0. -1.
         -5    1    3    3    0  502  0.42599188659E+02 -0.28520045119E+02 -0.13225269044E+03  0.14190253830E+03  0.41800000000E+01 0. -1.
        -11    1    4    4    0    0  0.50988462045E+02 -0.26785502361E+02 -0.16572168691E+02  0.59932655319E+02  0.00000000000E+00 0.  1.
         11    1    4    4    0    0 -0.30372817509E+02  0.14336206264E+02 -0.35422769110E+02  0.48814008491E+02  0.00000000000E+00 0. -1.
</event>
<event>
 8    1  0.6901948E-009  0.1372325E+03  0.7561462E-02  0.1217102E+00
         -1   -1    0    0    0  501 -0.00000000000E+00  0.00000000000E+00  0.16031819441E+03  0.16031819441E+03  0.00000000000E+00 0.  1.
          1   -1    0    0  501    0  0.00000000000E+00 -0.00000000000E+00 -0.12457113802E+03  0.12457113802E+03  0.00000000000E+00 0. -1.
         25    2    1    2    0    0  0.26261883572E+02  0.82123742954E+02 -0.94375250755E+01  0.15221290716E+03  0.12508279874E+03 0.  0.
         23    2    1    2    0    0 -0.26261883572E+02 -0.82123742954E+02  0.45184581473E+02  0.13267642527E+03  0.90152047866E+02 0.  0.
          5    1    3    3  502    0 -0.14192168185E+02 -0.29526723153E+02 -0.39221159034E+01  0.33258087905E+02  0.41800000000E+01 0. -1.
         -5    1    3    3    0  502  0.40454051756E+02  0.11165046611E+03 -0.55154091722E+01  0.11895481925E+03  0.41800000000E+01 0. -1.
        -11    1    4    4    0    0  0.32093699289E+02 -0.22583819695E+02  0.33117995951E+01  0.39382768601E+02  0.00000000000E+00 0. -1.
         11    1    4    4    0    0 -0.58355582861E+02 -0.59539923259E+02  0.41872781878E+02  0.93293656671E+02  0.00000000000E+00 0.  1.
</event>
<event>
 8    1  0.6901948E-009  0.1067550E+03  0.7561462E-02  0.1266700E+00
          2   -1    0    0  501    0  0.00000000000E+00  0.00000000000E+00  0.13218928967E+04  0.13218928967E+04  0.00000000000E+00 0. -1.
         -2   -1    0    0    0  501 -0.00000000000E+00 -0.00000000000E+00 -0.13959598023E+02  0.13959598023E+02  0.00000000000E+00 0.  1.
         25    2    1    2    0    0 -0.51901777095E+02 -0.34218513145E+02  0.99531450731E+03  0.10050688308E+04  0.12509070737E+03 0.  0.
         23    2    1    2    0    0  0.51901777095E+02  0.34218513145E+02  0.31261879132E+03  0.33078366388E+03  0.88445590594E+02 0.  0.
          5    1    3    3  502    0 -0.53298626793E+02 -0.59770426271E+02  0.34340583184E+03  0.35264470110E+03  0.41800000000E+01 0.  1.
         -5    1    3    3    0  502  0.13968496979E+01  0.25551913126E+02  0.65190867547E+03  0.65242412969E+03  0.41800000000E+01 0.  1.
        -11    1    4    4    0    0  0.46087389368E+02 -0.21860718601E+02  0.16761393433E+03  0.17520379407E+03  0.00000000000E+00 0. -1.
         11    1    4    4    0    0  0.58143877275E+01  0.56079231746E+02  0.14500485699E+03  0.15557986981E+03  0.00000000000E+00 0.  1.
</event>
<event>
 8    1  0.6901948E-009  0.1466074E+03  0.7561462E-02  0.1204705E+00
          1   -1    0    0  501    0  0.00000000000E+00  0.00000000000E+00  0.84943079496E+03  0.84943079496E+03  0.00000000000E+00 0. -1.
         -1   -1    0    0    0  501 -0.00000000000E+00 -0.00000000000E+00 -0.30444575399E+02  0.30444575399E+02  0.00000000000E+00 0.  1.
         25    2    1    2    0    0  0.31035112237E+02  0.11476066467E+03  0.44355726590E+03  0.47594310178E+03  0.12508237147E+03 0.  0.
         23    2    1    2    0    0 -0.31035112237E+02 -0.11476066467E+03  0.37542895366E+03  0.40393226858E+03  0.89895439293E+02 0.  0.
          5    1    3    3  502    0  0.66951128161E+01  0.11911049278E+03  0.43225903862E+03  0.44843893999E+03  0.41800000000E+01 0. -1.
         -5    1    3    3    0  502  0.24339999421E+02 -0.43498281067E+01  0.11298227278E+02  0.27504161794E+02  0.41800000000E+01 0. -1.
        -11    1    4    4    0    0 -0.55591991132E+02 -0.35912660360E+02  0.17935907379E+03  0.19118019250E+03  0.00000000000E+00 0. -1.
         11    1    4    4    0    0  0.24556878896E+02 -0.78848004312E+02  0.19606987986E+03  0.21275207608E+03  0.00000000000E+00 0.  1.
</event>
<event>
 8    1  0.6901948E-009  0.1111907E+03  0.7561462E-02  0.1258381E+00
          1   -1    0    0  501    0  0.00000000000E+00  0.00000000000E+00  0.53774834715E+03  0.53774834715E+03  0.00000000000E+00 0. -1.
         -1   -1    0    0    0  501 -0.00000000000E+00 -0.00000000000E+00 -0.31075254880E+02  0.31075254880E+02  0.00000000000E+00 0.  1.
         25    2    1    2    0    0 -0.28125724119E+02 -0.38188303808E+02  0.16617126669E+03  0.21332992398E+03  0.12508942277E+03 0.  0.
         23    2    1    2    0    0  0.28125724119E+02  0.38188303808E+02  0.34050182558E+03  0.35549367804E+03  0.90470210577E+02 0.  0.
          5    1    3    3  502    0  0.34823340507E+02  0.16819292317E+02  0.97806791050E+02  0.10525775227E+03  0.41800000000E+01 0. -1.
         -5    1    3    3    0  502 -0.62949064626E+02 -0.55007596126E+02  0.68364475638E+02  0.10807217171E+03  0.41800000000E+01 0. -1.
        -11    1    4    4    0    0  0.59029737925E+02  0.35215083031E+02  0.26696162792E+03  0.27566850167E+03  0.00000000000E+00 0. -1.
         11    1    4    4    0    0 -0.30904013806E+02  0.29732207773E+01  0.73540197657E+02  0.79825176370E+02  0.00000000000E+00 0.  1.
</event>
<event>
 8    1  0.6901948E-009  0.1470747E+03  0.7561462E-02  0.1204114E+00
          1   -1    0    0  501    0  0.00000000000E+00  0.00000000000E+00  0.67213008233E+03  0.67213008233E+03  0.00000000000E+00 0. -1.
         -1   -1    0    0    0  501 -0.00000000000E+00 -0.00000000000E+00 -0.46358189630E+02  0.46358189630E+02  0.00000000000E+00 0.  1.
         25    2    1    2    0    0 -0.38371905565E+02  0.10211745400E+03  0.15806196292E+03  0.22919776900E+03  0.12509058975E+03 0.  0.
         23    2    1    2    0    0  0.38371905565E+02 -0.10211745400E+03  0.46770992979E+03  0.48929050296E+03  0.93553408924E+02 0.  0.
          5    1    3    3  502    0  0.44280540712E+02  0.30188827376E+02  0.71756928535E+02  0.89658578936E+02  0.41800000000E+01 0.  1.
         -5    1    3    3    0  502 -0.82652446277E+02  0.71928626625E+02  0.86305034383E+02  0.13953919006E+03  0.41800000000E+01 0.  1.
        -11    1    4    4    0    0  0.26046268468E+02 -0.11197472257E+03  0.45417417182E+03  0.46849858585E+03  0.00000000000E+00 0. -1.
         11    1    4    4    0    0  0.12325637098E+02  0.98572685679E+01  0.13535757964E+02  0.20791917111E+02  0.00000000000E+00 0.  1.
</event>
<event>
 8    1  0.6901948E-009  0.1031184E+03  0.7561462E-02  0.1273872E+00
         -1   -1    0    0    0  501 -0.00000000000E+00  0.00000000000E+00  0.10028645090E+03  0.10028645090E+03  0.00000000000E+00 0.  1.
          1   -1    0    0  501    0  0.00000000000E+00 -0.00000000000E+00 -0.19353438523E+03  0.19353438523E+03  0.00000000000E+00 0. -1.
         25    2    1    2    0    0  0.72809923121E+02 -0.30248059587E+02 -0.18827509143E+02  0.14905715035E+03  0.12508928394E+03 0.  0.
         23    2    1    2    0    0 -0.72809923121E+02  0.30248059587E+02 -0.74420425184E+02  0.14476368578E+03  0.95926508438E+02 0.  0.
          5    1    3    3  502    0 -0.22507656135E+02  0.14313007685E+01  0.29618707927E+02  0.37461760047E+02  0.41800000000E+01 0.  1.
         -5    1    3    3    0  502  0.95317579256E+02 -0.31679360355E+02 -0.48446217070E+02  0.11159539030E+03  0.41800000000E+01 0.  1.
        -11    1    4    4    0    0 -0.30629081164E+02 -0.39566359307E+00  0.20226279839E+02  0.36706941561E+02  0.00000000000E+00 0.  1.
         11    1    4    4    0    0 -0.42180841957E+02  0.30643723180E+02 -0.94646705023E+02  0.10805674421E+03  0.00000000000E+00 0. -1.
</event>
<event>
 8    1  0.6901948E-009  0.9289949E+02  0.7561462E-02  0.1295978E+00
         -2   -1    0    0    0  501 -0.00000000000E+00  0.00000000000E+00  0.18652552314E+02  0.18652552314E+02  0.00000000000E+00 0.  1.
          2   -1    0    0  501    0  0.00000000000E+00 -0.00000000000E+00 -0.73215262404E+03  0.73215262404E+03  0.00000000000E+00 0. -1.
         25    2    1    2    0    0 -0.39232302674E+00 -0.43974924119E+02 -0.43031767823E+03  0.45029041457E+03  0.12511676700E+03 0.  0.
         23    2    1    2    0    0  0.39232302674E+00  0.43974924119E+02 -0.28318239350E+03  0.30051476179E+03  0.90459417405E+02 0.  0.
          5    1    3    3  502    0  0.35692980933E+02 -0.52649366826E+02 -0.39061438924E+03  0.39578152837E+03  0.41800000000E+01 0.  1.
         -5    1    3    3    0  502 -0.36085303960E+02  0.86744427071E+01 -0.39703288987E+02  0.54508886198E+02  0.41800000000E+01 0.  1.
        -11    1    4    4    0    0 -0.30004765150E+02 -0.14604137188E+01 -0.33839091950E+02  0.45249341254E+02  0.00000000000E+00 0.  1.
         11    1    4    4    0    0  0.30397088176E+02  0.45435337837E+02 -0.24934330155E+03  0.25526542053E+03  0.00000000000E+00 0. -1.
</event>
<event>
 8    1  0.6901948E-009  0.1110683E+03  0.7561462E-02  0.1258604E+00
          2   -1    0    0  501    0  0.00000000000E+00  0.00000000000E+00  0.95083703170E+03  0.95083703170E+03  0.00000000000E+00 0. -1.
         -2   -1    0    0    0  501 -0.00000000000E+00 -0.00000000000E+00 -0.14978227340E+02  0.14978227340E+02  0.00000000000E+00 0.  1.
         25    2    1    2    0    0  0.12613473323E+02 -0.36458384138E+02  0.64988257581E+03  0.66293520674E+03  0.12508961795E+03 0.  0.
         23    2    1    2    0    0 -0.12613473323E+02  0.36458384138E+02  0.28597622856E+03  0.30288005230E+03  0.92008745772E+02 0.  0.
          5    1    3    3  502    0 -0.36185978159E+02  0.24738679487E+02  0.13190554368E+03  0.13906103743E+03  0.41800000000E+01 0.  1.
         -5    1    3    3    0  502  0.48799451482E+02 -0.61197063624E+02  0.51797703213E+03  0.52387416932E+03  0.41800000000E+01 0.  1.
        -11    1    4    4    0    0  0.33239893021E+02 -0.97318269239E+01  0.10389072147E+03  0.10951201281E+03  0.00000000000E+00 0.  1.
         11    1    4    4    0    0 -0.45853366345E+02  0.46190211061E+02  0.18208550709E+03  0.19336803949E+03  0.00000000000E+00 0. -1.
</event>
<event>
 8    1  0.6901948E-009  0.9357810E+02  0.7561462E-02  0.1294411E+00
          2   -1    0    0  501    0  0.00000000000E+00  0.00000000000E+00  0.31864168640E+02  0.31864168640E+02  0.00000000000E+00 0. -1.
         -2   -1    0    0    0  501 -0.00000000000E+00 -0.00000000000E+00 -0.42947363021E+03  0.42947363021E+03  0.00000000000E+00 0.  1.
         25    2    1    2    0    0  0.16126002113E+02  0.20496053025E+02 -0.27477960657E+03  0.30303779966E+03  0.12509172516E+03 0.  0.
         23    2    1    2    0    0 -0.16126002113E+02 -0.20496053025E+02 -0.12282985500E+03  0.15829999919E+03  0.96392843770E+02 0.  0.
          5    1    3    3  502    0 -0.40087714235E+02  0.48769169642E+02 -0.16037533765E+03  0.17240411267E+03  0.41800000000E+01 0. -1.
         -5    1    3    3    0  502  0.56213716348E+02 -0.28273116617E+02 -0.11440426892E+03  0.13063368699E+03  0.41800000000E+01 0. -1.
        -11    1    4    4    0    0 -0.35879939679E+02 -0.61295806350E+01 -0.35812015907E+01  0.36575495007E+02  0.00000000000E+00 0. -1.
         11    1    4    4    0    0  0.19753937567E+02 -0.14366472390E+02 -0.11924865341E+03  0.12172450418E+03  0.00000000000E+00 0.  1.
</event>
<event>
 8    1  0.6901948E-009  0.9864917E+02  0.7561462E-02  0.1283162E+00
          2   -1    0    0  501    0  0.00000000000E+00  0.00000000000E+00  0.20148555578E+03  0.20148555578E+03  0.00000000000E+00 0. -1.
         -2   -1    0    0    0  501 -0.00000000000E+00 -0.00000000000E+00 -0.60893631239E+02  0.60893631239E+02  0.00000000000E+00 0.  1.
         25    2    1    2    0    0  0.99091478888E+00 -0.24532893726E+02  0.70540450356E+02  0.14569700380E+03  0.12509523169E+03 0.  0.
         23    2    1    2    0    0 -0.99091478888E+00  0.24532893726E+02  0.70051474184E+02  0.11668218322E+03  0.90025985468E+02 0.  0.
          5    1    3    3  502    0 -0.20323245071E+02 -0.68837662326E+02  0.19042368294E+02  0.74375683089E+02  0.41800000000E+01 0. -1.
         -5    1    3    3    0  502  0.21314159860E+02  0.44304768600E+02  0.51498082062E+02  0.71321320707E+02  0.41800000000E+01 0. -1.
        -11    1    4    4    0    0 -0.11304519194E+02  0.48588333030E+02  0.95909664683E+01  0.50799654513E+02  0.00000000000E+00 0.  1.
         11    1    4    4    0    0  0.10313604405E+02 -0.24055439304E+02  0.60460507716E+02  0.65882528710E+02  0.00000000000E+00 0. -1.
</event>
<event>
 8    1  0.6901948E-009  0.1628998E+03  0.7561462E-02  0.1185461E+00
          1   -1    0    0  501    0  0.00000000000E+00  0.00000000000E+00  0.78164548580E+03  0.78164548580E+03  0.00000000000E+00 0. -1.
         -1   -1    0    0    0  501 -0.00000000000E+00 -0.00000000000E+00 -0.54282978859E+02  0.54282978859E+02  0.00000000000E+00 0.  1.
         25    2    1    2    0    0  0.11817707025E+03  0.66276893989E+02  0.60110862294E+03  0.62875890038E+03  0.12509089345E+03 0.  0.
         23    2    1    2    0    0 -0.11817707025E+03 -0.66276893989E+02  0.12625388400E+03  0.20716956428E+03  0.92847932277E+02 0.  0.
          5    1    3    3  502    0  0.53531212830E+01  0.69608572808E+02  0.27017474440E+03  0.27908040818E+03  0.41800000000E+01 0.  1.
         -5    1    3    3    0  502  0.11282394897E+03 -0.33316788196E+01  0.33093387853E+03  0.34967849220E+03  0.41800000000E+01 0.  1.
        -11    1    4    4    0    0 -0.32640189229E+02 -0.43515338656E+02  0.17701463914E+01  0.54425178635E+02  0.00000000000E+00 0.  1.
         11    1    4    4    0    0 -0.85536881023E+02 -0.22761555332E+02  0.12448373761E+03  0.15274438564E+03  0.00000000000E+00 0. -1.
</event>
<event>
 8    1  0.6901948E-009  0.9951416E+02  0.7561462E-02  0.1281321E+00
         -1   -1    0    0    0  501 -0.00000000000E+00  0.00000000000E+00  0.12820213768E+03  0.12820213768E+03  0.00000000000E+00 0.  1.
          1   -1    0    0  501    0  0.00000000000E+00 -0.00000000000E+00 -0.12139780317E+03  0.12139780317E+03  0.00000000000E+00 0. -1.
         25    2    1    2    0    0  0.32504502869E+02 -0.33132850918E+02  0.44836193150E+02  0.14076171201E+03  0.12509694974E+03 0.  0.
         23    2    1    2    0    0 -0.32504502869E+02  0.33132850918E+02 -0.38031858640E+02  0.10883822884E+03  0.90802033396E+02 0.  0.
          5    1    3    3  502    0 -0.40269202890E+02 -0.12085209236E+02  0.49093089082E+02  0.64770863660E+02  0.41800000000E+01 0. -1.
         -5    1    3    3    0  502  0.72773705758E+02 -0.21047641682E+02 -0.42568959319E+01  0.75990848351E+02  0.41800000000E+01 0. -1.
        -11    1    4    4    0    0  0.20341436626E+02  0.14041799512E+02 -0.45869850974E+02  0.52105560221E+02  0.00000000000E+00 0. -1.
         11    1    4    4    0    0 -0.52845939495E+02  0.19091051406E+02  0.78379923339E+01  0.56732668620E+02  0.00000000000E+00 0.  1.
</event>
<event>
 8    1  0.6901948E-009  0.1251923E+03  0.7561462E-02  0.1234769E+00
          1   -1    0    0  501    0  0.00000000000E+00  0.00000000000E+00  0.74707895603E+02  0.74707895603E+02  0.00000000000E+00 0. -1.
         -1   -1    0    0    0  501 -0.00000000000E+00 -0.00000000000E+00 -0.42121924006E+03  0.42121924006E+03  0.00000000000E+00 0.  1.
         25    2    1    2    0    0  0.86263986762E+02 -0.38000692508E+02 -0.32778183816E+03  0.36328098725E+03  0.12508642703E+03 0.  0.
         23    2    1    2    0    0 -0.86263986762E+02  0.38000692508E+02 -0.18729506303E+02  0.13264614842E+03  0.91425807300E+02 0.  0.
          5    1    3    3  502    0  0.10446860791E+03 -0.10892603453E+02 -0.15430303028E+03  0.18670628377E+03  0.41800000000E+01 0. -1.
         -5    1    3    3    0  502 -0.18204621146E+02 -0.27108089055E+02 -0.17347880788E+03  0.17657470347E+03  0.41800000000E+01 0. -1.
        -11    1    4    4    0    0 -0.33387106304E+02 -0.15777420496E+02 -0.39846428661E+02  0.54326455268E+02  0.00000000000E+00 0.  1.
         11    1    4    4    0    0 -0.52876880458E+02  0.53778113004E+02  0.21116922358E+02  0.78319693150E+02  0.00000000000E+00 0. -1.
</event>
<event>
 8    1  0.6901948E-009  0.1926729E+03  0.7561462E-02  0.1156072E+00
          1   -1    0    0  501    0  0.00000000000E+00  0.00000000000E+00  0.12833438010E+04  0.12833438010E+04  0.00000000000E+00 0. -1.
         -1   -1    0    0    0  501 -0.00000000000E+00 -0.00000000000E+00 -0.33019560319E+02  0.33019560319E+02  0.00000000000E+00 0.  1.
         25    2    1    2    0    0  0.13922545877E+03  0.99379580279E+02  0.76940357182E+03  0.79805427075E+03  0.12509489755E+03 0.  0.
         23    2    1    2    0    0 -0.13922545877E+03 -0.99379580279E+02  0.48092066882E+03  0.51830909052E+03  0.89997745933E+02 0.  0.
          5    1    3    3  502    0  0.75179043737E+02 -0.79598744403E+01  0.17567551722E+03  0.19129717188E+03  0.41800000000E+01 0.  1.
         -5    1    3    3    0  502  0.64046415037E+02  0.10733945472E+03  0.59372805459E+03  0.60675709887E+03  0.41800000000E+01 0.  1.
        -11    1    4    4    0    0 -0.61950183861E+02 -0.43774557071E+01  0.24187356123E+03  0.24971945663E+03  0.00000000000E+00 0. -1.
         11    1    4    4    0    0 -0.77275274913E+02 -0.95002124572E+02  0.23904710759E+03  0.26858963389E+03  0.00000000000E+00 0.  1.
</event>
<event>
 8    1  0.6901948E-009  0.1017102E+03  0.7561462E-02  0.1276740E+00
         -1   -1    0    0    0  501 -0.00000000000E+00  0.00000000000E+00  0.19135529163E+03  0.19135529163E+03  0.00000000000E+00 0.  1.
          1   -1    0    0  501    0  0.00000000000E+00 -0.00000000000E+00 -0.73876440773E+02  0.73876440773E+02  0.00000000000E+00 0. -1.
         25    2    1    2    0    0  0.13416395968E+02 -0.12305969948E+02  0.11662555070E+03  0.17199463205E+03  0.12509675376E+03 0.  0.
         23    2    1    2    0    0 -0.13416395968E+02  0.12305969948E+02  0.85330015563E+00  0.93237100354E+02  0.91438461187E+02 0.  0.
          5    1    3    3  502    0 -0.31252313432E+02  0.43673793577E+02  0.59737808957E+02  0.80437463655E+02  0.41800000000E+01 0. -1.
         -5    1    3    3    0  502  0.44668709399E+02 -0.55979763524E+02  0.56887741747E+02  0.91557168396E+02  0.41800000000E+01 0. -1.
        -11    1    4    4    0    0  0.16797683493E+02 -0.24806425385E+02 -0.24842386525E+02  0.38918698326E+02  0.00000000000E+00 0. -1.
         11    1    4    4    0    0 -0.30214079460E+02  0.37112395333E+02  0.25695686680E+02  0.54318402029E+02  0.00000000000E+00 0.  1.
</event>
<event>
 8    1  0.6901948E-009  0.1360733E+03  0.7561462E-02  0.1218712E+00
          1   -1    0    0  501    0  0.00000000000E+00  0.00000000000E+00  0.19166460633E+03  0.19166460633E+03  0.00000000000E+00 0. -1.
         -1   -1    0    0    0  501 -0.00000000000E+00 -0.00000000000E+00 -0.11316751102E+03  0.11316751102E+03  0.00000000000E+00 0.  1.
         25    2    1    2    0    0  0.38983531782E+01 -0.92050711834E+02  0.41279173185E+01  0.15541012919E+03  0.12508692116E+03 0.  0.
         23    2    1    2    0    0 -0.38983531782E+01  0.92050711834E+02  0.74369177994E+02  0.14942198817E+03  0.91146174939E+02 0.  0.
          5    1    3    3  502    0 -0.33653193307E+02 -0.10221492858E+03 -0.19868497388E+02  0.10951099777E+03  0.41800000000E+01 0.  1.
         -5    1    3    3    0  502  0.37551546485E+02  0.10164216749E+02  0.23996414706E+02  0.45899131411E+02  0.41800000000E+01 0.  1.
        -11    1    4    4    0    0 -0.44408065604E+02  0.51607973637E+02  0.21231640599E+02  0.71317892538E+02  0.00000000000E+00 0.  1.
         11    1    4    4    0    0  0.40509712426E+02  0.40442738198E+02  0.53137537395E+02  0.78104095630E+02  0.00000000000E+00 0. -1.
</event>
<event>
 8    1  0.6901948E-009  0.1355771E+03  0.7561462E-02  0.1219407E+00
          2   -1    0    0  501    0  0.00000000000E+00  0.00000000000E+00  0.35564212727E+03  0.35564212727E+03  0.00000000000E+00 0.  1.
         -2   -1    0    0    0  501 -0.00000000000E+00 -0.00000000000E+00 -0.77923760998E+02  0.77923760998E+02  0.00000000000E+00 0. -1.
         25    2    1    2    0    0 -0.94465923497E+02 -0.20062407722E+02  0.25408075321E+03  0.29921860864E+03  0.12509370766E+03 0.  0.
         23    2    1    2    0    0  0.94465923497E+02  0.20062407722E+02  0.23637613065E+02  0.13434727964E+03  0.90355652223E+02 0.  0.
          5    1    3    3  502    0 -0.77862117856E+02 -0.64233453633E+02  0.11915138890E+03  0.15621450585E+03  0.41800000000E+01 0. -1.
         -5    1    3    3    0  502 -0.16603805641E+02  0.44171045911E+02  0.13492936431E+03  0.14300410278E+03  0.41800000000E+01 0. -1.
        -11    1    4    4    0    0 -0.11883392878E+02 -0.59240625237E+01  0.20989778177E+02  0.24837075734E+02  0.00000000000E+00 0.  1.
         11    1    4    4    0    0  0.10634931638E+03  0.25986470246E+02  0.26478348882E+01  0.10951020390E+03  0.00000000000E+00 0. -1.
</event>
<event>
 8    1  0.6901948E-009  0.7509797E+02  0.7561462E-02  0.1343568E+00
          1   -1    0    0  501    0  0.00000000000E+00  0.00000000000E+00  0.35203976082E+03  0.35203976082E+03  0.00000000000E+00 0. -1.
         -1   -1    0    0    0  501 -0.00000000000E+00 -0.00000000000E+00 -0.37286067494E+02  0.37286067494E+02  0.00000000000E+00 0.  1.
         25    2    1    2    0    0  0.21349854790E+02  0.31138172765E+02  0.17715883260E+03  0.22013287848E+03  0.12509128714E+03 0.  0.
         23    2    1    2    0    0 -0.21349854790E+02 -0.31138172765E+02  0.13759486073E+03  0.16919294983E+03  0.90931328332E+02 0.  0.
          5    1    3    3  502    0 -0.61857735468E+01 -0.14098870754E+02  0.16482682924E+03  0.16559709535E+03  0.41800000000E+01 0.  1.
         -5    1    3    3    0  502  0.27535628337E+02  0.45237043518E+02  0.12332003351E+02  0.54535783123E+02  0.41800000000E+01 0.  1.
        -11    1    4    4    0    0 -0.34549880865E+02  0.11555868178E+02  0.16269030493E+02  0.39898793344E+02  0.00000000000E+00 0.  1.
         11    1    4    4    0    0  0.13200026074E+02 -0.42694040943E+02  0.12132583023E+03  0.12929415649E+03  0.00000000000E+00 0. -1.
</event>
<event>
 8    1  0.6901948E-009  0.2139011E+03  0.7561462E-02  0.1138513E+00
         -2   -1    0    0    0  501 -0.00000000000E+00  0.00000000000E+00  0.55461362111E+02  0.55461362111E+02  0.00000000000E+00 0.  1.
          2   -1    0    0  501    0  0.00000000000E+00 -0.00000000000E+00 -0.11546004237E+04  0.11546004237E+04  0.00000000000E+00 0. -1.
         25    2    1    2    0    0 -0.18816896264E+03  0.58503097680E+02 -0.84110392470E+03  0.87288790833E+03  0.12508923782E+03 0.  0.
         23    2    1    2    0    0  0.18816896264E+03 -0.58503097680E+02 -0.25803513686E+03  0.33717387745E+03  0.90961095236E+02 0.  0.
          5    1    3    3  502    0 -0.10949607484E+03  0.73479660933E+02 -0.32774424420E+03  0.35330215536E+03  0.41800000000E+01 0. -1.
         -5    1    3    3    0  502 -0.78672887798E+02 -0.14976563253E+02 -0.51335968051E+03  0.51958575297E+03  0.41800000000E+01 0. -1.
        -11    1    4    4    0    0  0.13383675572E+03 -0.81475460382E+02 -0.16990658053E+03  0.23112501797E+03  0.00000000000E+00 0.  1.
         11    1    4    4    0    0  0.54332206912E+02  0.22972362702E+02 -0.88128556329E+02  0.10604885948E+03  0.00000000000E+00 0. -1.
</event>
<event>
 8    1  0.6901948E-009  0.1318265E+03  0.7561462E-02  0.1224770E+00
         -2   -1    0    0    0  501 -0.00000000000E+00  0.00000000000E+00  0.43027300290E+02  0.43027300290E+02  0.00000000000E+00 0.  1.
          2   -1    0    0  501    0  0.00000000000E+00 -0.00000000000E+00 -0.59162428462E+03  0.59162428462E+03  0.00000000000E+00 0. -1.
         25    2    1    2    0    0 -0.50604282539E+02  0.86881004693E+02 -0.41216190644E+03  0.44230373357E+03  0.12508418451E+03 0.  0.
         23    2    1    2    0    0  0.50604282539E+02 -0.86881004693E+02 -0.13643507789E+03  0.19234785135E+03  0.90961876912E+02 0.  0.
          5    1    3    3  502    0  0.40876251798E+02  0.18657941822E+02 -0.94054981584E+02  0.10432065335E+03  0.41800000000E+01 0.  1.
         -5    1    3    3    0  502 -0.91480534337E+02  0.68223062871E+02 -0.31810692486E+03  0.33798308022E+03  0.41800000000E+01 0.  1.
        -11    1    4    4    0    0  0.37172892635E+02 -0.36151784437E+02 -0.65540606017E+01  0.52265965744E+02  0.00000000000E+00 0.  1.
         11    1    4    4    0    0  0.13431389905E+02 -0.50729220256E+02 -0.12988101728E+03  0.14008188560E+03  0.00000000000E+00 0. -1.
</event>
<event>
 8    1  0.6901948E-009  0.1395326E+03  0.7561462E-02  0.1213959E+00
         -4   -1    0    0    0  501 -0.00000000000E+00  0.00000000000E+00  0.11263344215E+03  0.11263344215E+03  0.00000000000E+00 0.  1.
          4   -1    0    0  501    0  0.00000000000E+00 -0.00000000000E+00 -0.17786870134E+03  0.17786870134E+03  0.00000000000E+00 0. -1.
         25    2    1    2    0    0 -0.58614716348E+02  0.69443165219E+02 -0.20347381061E+02  0.15594551370E+03  0.12508776583E+03 0.  0.
         23    2    1    2    0    0  0.58614716348E+02 -0.69443165219E+02 -0.44887878129E+02  0.13455662978E+03  0.88501564090E+02 0.  0.
          5    1    3    3  502    0 -0.92544840489E+02  0.22478125645E+02 -0.32134803922E+01  0.95381405368E+02  0.41800000000E+01 0.  1.
         -5    1    3    3    0  502  0.33930124141E+02  0.46965039574E+02 -0.17133900669E+02  0.60564108336E+02  0.41800000000E+01 0.  1.
        -11    1    4    4    0    0  0.56310768890E+02 -0.14436583520E+00 -0.29346524730E+02  0.63499149980E+02  0.00000000000E+00 0.  1.
         11    1    4    4    0    0  0.23039474581E+01 -0.69298799384E+02 -0.15541353399E+02  0.71057479799E+02  0.00000000000E+00 0. -1.
</event>
<event>
 8    1  0.6901948E-009  0.9603954E+02  0.7561462E-02  0.1288852E+00
          1   -1    0    0  501    0  0.00000000000E+00  0.00000000000E+00  0.36901035503E+03  0.36901035503E+03  0.00000000000E+00 0. -1.
         -1   -1    0    0    0  501 -0.00000000000E+00 -0.00000000000E+00 -0.35709769929E+02  0.35709769929E+02  0.00000000000E+00 0.  1.
         25    2    1    2    0    0  0.78138454696E+01  0.33286754550E+02  0.16548058385E+03  0.21023889495E+03  0.12508998805E+03 0.  0.
         23    2    1    2    0    0 -0.78138454696E+01 -0.33286754550E+02  0.16782000125E+03  0.19448123001E+03  0.92142996458E+02 0.  0.
          5    1    3    3  502    0  0.96450482732E+00 -0.29864864754E+02  0.13737858659E+03  0.14065272436E+03  0.41800000000E+01 0. -1.
         -5    1    3    3    0  502  0.68493406423E+01  0.63151619304E+02  0.28101997266E+02  0.69586170596E+02  0.41800000000E+01 0. -1.
        -11    1    4    4    0    0  0.27001991985E+02 -0.52094947596E+02  0.97711685816E+02  0.11397615839E+03  0.00000000000E+00 0.  1.
         11    1    4    4    0    0 -0.34815837455E+02  0.18808193046E+02  0.70108315436E+02  0.80505071621E+02  0.00000000000E+00 0. -1.
</event>
<event>
 8    1  0.6901948E-009  0.1086183E+03  0.7561462E-02  0.1263150E+00
         -1   -1    0    0    0  501 -0.00000000000E+00  0.00000000000E+00  0.51711406825E+03  0.51711406825E+03  0.00000000000E+00 0.  1.
          1   -1    0    0  501    0  0.00000000000E+00 -0.00000000000E+00 -0.25985339985E+02  0.25985339985E+02  0.00000000000E+00 0. -1.
         25    2    1    2    0    0 -0.22890113224E+02  0.50383793900E+01  0.33762785738E+03  0.36081622294E+03  0.12508570705E+03 0.  0.
         23    2    1    2    0    0  0.22890113224E+02 -0.50383793900E+01  0.15350087089E+03  0.18228318530E+03  0.95474078828E+02 0.  0.
          5    1    3    3  502    0  0.49579021417E+02  0.18255877961E+02  0.15680909570E+03  0.16552317463E+03  0.41800000000E+01 0.  1.
         -5    1    3    3    0  502 -0.72469134641E+02 -0.13217498571E+02  0.18081876168E+03  0.19529304831E+03  0.41800000000E+01 0.  1.
        -11    1    4    4    0    0  0.53272641726E+02 -0.19599308230E+02  0.58624689755E+02  0.81602460064E+02  0.00000000000E+00 0. -1.
         11    1    4    4    0    0 -0.30382528502E+02  0.14560928840E+02  0.94876181136E+02  0.10068072524E+03  0.00000000000E+00 0.  1.
</event>
<event>
 8    1  0.6901948E-009  0.1076594E+03  0.7561462E-02  0.1264967E+00
         -1   -1    0    0    0  501 -0.00000000000E+00  0.00000000000E+00  0.16134340829E+03  0.16134340829E+03  0.00000000000E+00 0.  1.
          1   -1    0    0  501    0  0.00000000000E+00 -0.00000000000E+00 -0.78514764109E+02  0.78514764109E+02  0.00000000000E+00 0. -1.
         25    2    1    2    0    0 -0.20249945426E+02  0.17667957672E+02  0.60081588513E+02  0.14134797904E+03  0.12508891590E+03 0.  0.
         23    2    1    2    0    0  0.20249945426E+02 -0.17667957672E+02  0.22747055670E+02  0.98510193365E+02  0.92003329489E+02 0.  0.
          5    1    3    3  502    0 -0.13537051411E+02  0.67661195811E+02  0.58741178746E+02  0.90715421290E+02  0.41800000000E+01 0.  1.
         -5    1    3    3    0  502 -0.67128940157E+01 -0.49993238139E+02  0.13404097679E+01  0.50632557747E+02  0.41800000000E+01 0.  1.
        -11    1    4    4    0    0  0.52776505568E+02  0.89696704015E+01  0.16418093799E+02  0.55994359815E+02  0.00000000000E+00 0.  1.
         11    1    4    4    0    0 -0.32526560142E+02 -0.26637628073E+02  0.63289618708E+01  0.42515833550E+02  0.00000000000E+00 0. -1.
</event>
<event>
 8    1  0.6901948E-009  0.9864911E+02  0.7561462E-02  0.1283163E+00
         -1   -1    0    0    0  501 -0.00000000000E+00  0.00000000000E+00  0.19383873914E+03  0.19383873914E+03  0.00000000000E+00 0.  1.
          1   -1    0    0  501    0  0.00000000000E+00 -0.00000000000E+00 -0.75067244967E+02  0.75067244967E+02  0.00000000000E+00 0. -1.
         25    2    1    2    0    0  0.40109491367E+02  0.29020548426E+02  0.89387355794E+02  0.16151919348E+03  0.12508951578E+03 0.  0.
         23    2    1    2    0    0 -0.40109491367E+02 -0.29020548426E+02  0.29384138379E+02  0.10738679063E+03  0.90650602230E+02 0.  0.
          5    1    3    3  502    0  0.46770880504E+02  0.52814123635E+02  0.20955358997E+01  0.70701560019E+02  0.41800000000E+01 0. -1.
         -5    1    3    3    0  502 -0.66613891370E+01 -0.23793575209E+02  0.87291819894E+02  0.90817633458E+02  0.41800000000E+01 0. -1.
        -11    1    4    4    0    0  0.82935641747E+01 -0.48638562987E+02  0.45334759142E+01  0.49548414909E+02  0.00000000000E+00 0. -1.
         11    1    4    4    0    0 -0.48403055541E+02  0.19618014560E+02  0.24850662464E+02  0.57838375720E+02  0.00000000000E+00 0.  1.
</event>
<event>
 8    1  0.6901948E-009  0.9981262E+02  0.7561462E-02  0.1280690E+00
          2   -1    0    0  501    0  0.00000000000E+00  0.00000000000E+00  0.10320372665E+03  0.10320372665E+03  0.00000000000E+00 0. -1.
         -2   -1    0    0    0  501 -0.00000000000E+00 -0.00000000000E+00 -0.12307808503E+03  0.12307808503E+03  0.00000000000E+00 0.  1.
         25    2    1    2    0    0 -0.23472822487E+02 -0.21221877027E+02 -0.11634082131E+01  0.12901338680E+03  0.12506701801E+03 0.  0.
         23    2    1    2    0    0  0.23472822487E+02  0.21221877027E+02 -0.18710950167E+02  0.97268424887E+02  0.90053902546E+02 0.  0.
          5    1    3    3  502    0 -0.14231767185E+02 -0.73096690253E+02  0.91944747005E+01  0.75151048483E+02  0.41800000000E+01 0.  1.
         -5    1    3    3    0  502 -0.92410553019E+01  0.51874813226E+02 -0.10357882914E+02  0.53862338315E+02  0.41800000000E+01 0.  1.
        -11    1    4    4    0    0  0.43483921327E+02  0.27207946454E+02 -0.41774020274E+02  0.66152796872E+02  0.00000000000E+00 0.  1.
         11    1    4    4    0    0 -0.20011098840E+02 -0.59860694267E+01  0.23063070107E+02  0.31115628015E+02  0.00000000000E+00 0. -1.
</event>
<event>
 8    1  0.6901948E-009  0.1702806E+03  0.7561462E-02  0.1177556E+00
          1   -1    0    0  501    0  0.00000000000E+00  0.00000000000E+00  0.86915890103E+02  0.86915890103E+02  0.00000000000E+00 0. -1.
         -1   -1    0    0    0  501 -0.00000000000E+00 -0.00000000000E+00 -0.40599716743E+03  0.40599716743E+03  0.00000000000E+00 0.  1.
         25    2    1    2    0    0 -0.10559049183E+03  0.10344390014E+03 -0.21535220820E+03  0.28961580000E+03  0.12510293998E+03 0.  0.
         23    2    1    2    0    0  0.10559049183E+03 -0.10344390014E+03 -0.10372906913E+03  0.20329725754E+03  0.93381275945E+02 0.  0.
          5    1    3    3  502    0 -0.89319576292E+02  0.13122832906E+03 -0.15987641060E+03  0.22533708111E+03  0.41800000000E+01 0.  1.
         -5    1    3    3    0  502 -0.16270915536E+02 -0.27784428920E+02 -0.55475797595E+02  0.64278718885E+02  0.41800000000E+01 0.  1.
        -11    1    4    4    0    0  0.88293761664E+02 -0.96106943076E+02 -0.12085739480E+03  0.17787310852E+03  0.00000000000E+00 0.  1.
         11    1    4    4    0    0  0.17296730163E+02 -0.73369570687E+01  0.17128325663E+02  0.25424149020E+02  0.00000000000E+00 0. -1.
</event>
<event>
 8    1  0.6901948E-009  0.1125312E+03  0.7561462E-02  0.1255953E+00
         -1   -1    0    0    0  501 -0.00000000000E+00  0.00000000000E+00  0.96065184553E+02  0.96065184553E+02  0.00000000000E+00 0.  1.
          1   -1    0    0  501    0  0.00000000000E+00 -0.00000000000E+00 -0.19285288189E+03  0.19285288189E+03  0.00000000000E+00 0. -1.
         25    2    1    2    0    0  0.35323027867E+02  0.73182250835E+02 -0.71248387200E+02  0.16530855552E+03  0.12508887926E+03 0.  0.
         23    2    1    2    0    0 -0.35323027867E+02 -0.73182250835E+02 -0.25539310137E+02  0.12360951092E+03  0.89575089694E+02 0.  0.
          5    1    3    3  502    0 -0.20115676259E+02  0.25192901453E+02  0.27267048679E+02  0.42429789754E+02  0.41800000000E+01 0.  1.
         -5    1    3    3    0  502  0.55438704126E+02  0.47989349383E+02 -0.98515435878E+02  0.12287876576E+03  0.41800000000E+01 0.  1.
        -11    1    4    4    0    0 -0.11955247221E+00 -0.82655019382E+02 -0.27476495968E+02  0.87102378570E+02  0.00000000000E+00 0.  1.
         11    1    4    4    0    0 -0.35203475395E+02  0.94727685468E+01  0.19371858315E+01  0.36507132355E+02  0.00000000000E+00 0. -1.
</event>
<event>
 8    1  0.6901948E-009  0.1284146E+03  0.7561462E-02  0.1229827E+00
          1   -1    0    0  501    0  0.00000000000E+00  0.00000000000E+00  0.80332583849E+03  0.80332583849E+03  0.00000000000E+00 0. -1.
         -1   -1    0    0    0  501 -0.00000000000E+00 -0.00000000000E+00 -0.24550411750E+02  0.24550411750E+02  0.00000000000E+00 0.  1.
         25    2    1    2    0    0  0.84538107045E+02  0.17509813032E+02  0.40671657119E+03  0.43418755818E+03  0.12508869374E+03 0.  0.
         23    2    1    2    0    0 -0.84538107045E+02 -0.17509813032E+02  0.37205885555E+03  0.39368869206E+03  0.95444796453E+02 0.  0.
          5    1    3    3  502    0  0.11752297340E+03  0.15528512660E+02  0.32261233461E+03  0.34372805359E+03  0.41800000000E+01 0. -1.
         -5    1    3    3    0  502 -0.32984866355E+02  0.19813003726E+01  0.84104236579E+02  0.90459504587E+02  0.41800000000E+01 0. -1.
        -11    1    4    4    0    0 -0.87396045180E+02 -0.29760162623E+02  0.36948991812E+03  0.38084975461E+03  0.00000000000E+00 0. -1.
         11    1    4    4    0    0  0.28579381357E+01  0.12250349591E+02  0.25689374314E+01  0.12838937457E+02  0.00000000000E+00 0.  1.
</event>
<event>
 8    1  0.6901948E-009  0.1879203E+03  0.7561462E-02  0.1160351E+00
         -1   -1    0    0    0  501 -0.00000000000E+00  0.00000000000E+00  0.42293479605E+02  0.42293479605E+02  0.00000000000E+00 0.  1.
          1   -1    0    0  501    0  0.00000000000E+00 -0.00000000000E+00 -0.12960222851E+04  0.12960222851E+04  0.00000000000E+00 0. -1.
         25    2    1    2    0    0 -0.16504873226E+03  0.33597948183E+02 -0.30443710688E+03  0.36972879477E+03  0.12509006155E+03 0.  0.
         23    2    1    2    0    0  0.16504873226E+03 -0.33597948183E+02 -0.94929169863E+03  0.96858696994E+03  0.92930528383E+02 0.  0.
          5    1    3    3  502    0  0.90791702860E+01 -0.41713761827E+01  0.55413645372E+01  0.12165970297E+02  0.41800000000E+01 0.  1.
         -5    1    3    3    0  502 -0.17412790255E+03  0.37769324365E+02 -0.30997847141E+03  0.35756282448E+03  0.41800000000E+01 0.  1.
        -11    1    4    4    0    0  0.88412261788E+01 -0.29205663798E+02 -0.85699920831E+02  0.90970404575E+02  0.00000000000E+00 0.  1.
         11    1    4    4    0    0  0.15620750608E+03 -0.43922843843E+01 -0.86359177780E+03  0.87761656536E+03  0.00000000000E+00 0. -1.
</event>
<event>
 8    1  0.6901948E-009  0.1016083E+03  0.7561462E-02  0.1276950E+00
          2   -1    0    0  501    0  0.00000000000E+00  0.00000000000E+00  0.18442658192E+03  0.18442658192E+03  0.00000000000E+00 0. -1.
         -2   -1    0    0    0  501 -0.00000000000E+00 -0.00000000000E+00 -0.77316387824E+02  0.77316387824E+02  0.00000000000E+00 0.  1.
         25    2    1    2    0    0  0.35956047569E+02 -0.61779956729E+01  0.98406112237E+02  0.16328614702E+03  0.12509035892E+03 0.  0.
         23    2    1    2    0    0 -0.35956047569E+02  0.61779956729E+01  0.87040818605E+01  0.98456822726E+02  0.91032850735E+02 0.  0.
          5    1    3    3  502    0 -0.43790048147E+02  0.24146330110E+01  0.12745925510E+02  0.45862073508E+02  0.41800000000E+01 0.  1.
         -5    1    3    3    0  502  0.79746095716E+02 -0.85926286839E+01  0.85660186727E+02  0.11742407351E+03  0.41800000000E+01 0.  1.
        -11    1    4    4    0    0 -0.47393807385E+02 -0.19101380259E+02 -0.23248558682E+02  0.56138500043E+02  0.00000000000E+00 0.  1.
         11    1    4    4    0    0  0.11437759816E+02  0.25279375932E+02  0.31952640543E+02  0.42318322684E+02  0.00000000000E+00 0. -1.
</event>
<event>
 8    1  0.6901948E-009  0.1134033E+03  0.7561462E-02  0.1254394E+00
          1   -1    0    0  501    0  0.00000000000E+00  0.00000000000E+00  0.31100856538E+03  0.31100856538E+03  0.00000000000E+00 0. -1.
         -1   -1    0    0    0  501 -0.00000000000E+00 -0.00000000000E+00 -0.46853484222E+02  0.46853484222E+02  0.00000000000E+00 0.  1.
         25    2    1    2    0    0  0.44058623017E+02 -0.20514867089E+02  0.15595332059E+03  0.20575737489E+03  0.12511049951E+03 0.  0.
         23    2    1    2    0    0 -0.44058623017E+02  0.20514867089E+02  0.10820176057E+03  0.15210467471E+03  0.95216537659E+02 0.  0.
          5    1    3    3  502    0  0.78044329526E+02 -0.31869878883E+02  0.60879185367E+02  0.10406898751E+03  0.41800000000E+01 0. -1.
         -5    1    3    3    0  502 -0.33985706509E+02  0.11355011794E+02  0.95074135220E+02  0.10168838738E+03  0.41800000000E+01 0. -1.
        -11    1    4    4    0    0 -0.74184924461E+02  0.15477625062E+02  0.69727950559E+02  0.10298032329E+03  0.00000000000E+00 0. -1.
         11    1    4    4    0    0  0.30126301444E+02  0.50372420271E+01  0.38473810008E+02  0.49124351420E+02  0.00000000000E+00 0.  1.
</event>
<event>
 8    1  0.6901948E-009  0.1317493E+03  0.7561462E-02  0.1224883E+00
          1   -1    0    0  501    0  0.00000000000E+00  0.00000000000E+00  0.72521958045E+03  0.72521958045E+03  0.00000000000E+00 0. -1.
         -1   -1    0    0    0  501 -0.00000000000E+00 -0.00000000000E+00 -0.27516317175E+02  0.27516317175E+02  0.00000000000E+00 0.  1.
         25    2    1    2    0    0  0.73561235984E+02  0.16656987858E+02  0.24765705494E+03  0.28752365829E+03  0.12508847481E+03 0.  0.
         23    2    1    2    0    0 -0.73561235984E+02 -0.16656987858E+02  0.45004620833E+03  0.46521223933E+03  0.90510371263E+02 0.  0.
          5    1    3    3  502    0  0.93183776412E+02  0.50712148010E+02  0.18929274260E+03  0.21703491181E+03  0.41800000000E+01 0. -1.
         -5    1    3    3    0  502 -0.19622540428E+02 -0.34055160152E+02  0.58364312342E+02  0.70488746484E+02  0.41800000000E+01 0. -1.
        -11    1    4    4    0    0 -0.23764390243E+01 -0.42129478712E+02  0.16483782996E+03  0.17015302121E+03  0.00000000000E+00 0.  1.
         11    1    4    4    0    0 -0.71184796960E+02  0.25472490854E+02  0.28520837837E+03  0.29505921813E+03  0.00000000000E+00 0. -1.
</event>
<event>
 8    1  0.6901948E-009  0.1858784E+03  0.7561462E-02  0.1162232E+00
         -2   -1    0    0    0  501 -0.00000000000E+00  0.00000000000E+00  0.24625957063E+02  0.24625957063E+02  0.00000000000E+00 0.  1.
          2   -1    0    0  501    0  0.00000000000E+00 -0.00000000000E+00 -0.19799766954E+04  0.19799766954E+04  0.00000000000E+00 0. -1.
         25    2    1    2    0    0 -0.14356287194E+02  0.17074677508E+03 -0.14104791512E+04  0.14263445639E+04  0.12508722972E+03 0.  0.
         23    2    1    2    0    0  0.14356287194E+02 -0.17074677508E+03 -0.54487158715E+03  0.57825808850E+03  0.90204247400E+02 0.  0.
          5    1    3    3  502    0 -0.93656801212E+01  0.18306270157E+03 -0.10710910541E+04  0.10866706894E+04  0.41800000000E+01 0. -1.
         -5    1    3    3    0  502 -0.49906070724E+01 -0.12315926496E+02 -0.33938809710E+03  0.33967387456E+03  0.41800000000E+01 0. -1.
        -11    1    4    4    0    0  0.18259022725E+02 -0.43588697921E+02 -0.56851141318E+02  0.73928470609E+02  0.00000000000E+00 0. -1.
         11    1    4    4    0    0 -0.39027355317E+01 -0.12715807715E+03 -0.48802044583E+03  0.50432961789E+03  0.00000000000E+00 0.  1.
</event>
<event>
 8    1  0.6901948E-009  0.1081752E+03  0.7561462E-02  0.1263987E+00
         -1   -1    0    0    0  501 -0.00000000000E+00  0.00000000000E+00  0.30328427031E+02  0.30328427031E+02  0.00000000000E+00 0.  1.
          1   -1    0    0  501    0  0.00000000000E+00 -0.00000000000E+00 -0.46844797688E+03  0.46844797688E+03  0.00000000000E+00 0. -1.
         25    2    1    2    0    0 -0.24243239726E+02 -0.41094261880E+02 -0.20378933887E+03  0.24383061412E+03  0.12508717247E+03 0.  0.
         23    2    1    2    0    0  0.24243239726E+02  0.41094261880E+02 -0.23433021098E+03  0.25494578979E+03  0.88375533488E+02 0.  0.
          5    1    3    3  502    0 -0.14549226662E+02 -0.86202680999E+02 -0.13564815460E+03  0.16143257557E+03  0.41800000000E+01 0.  1.
         -5    1    3    3    0  502 -0.96940130638E+01  0.45108419119E+02 -0.68141184265E+02  0.82398038555E+02  0.41800000000E+01 0.  1.
        -11    1    4    4    0    0 -0.14595947723E+02  0.41150300452E+02 -0.49177597130E+02  0.65763401499E+02  0.00000000000E+00 0.  1.
         11    1    4    4    0    0  0.38839187449E+02 -0.56038572254E-01 -0.18515261385E+03  0.18918238829E+03  0.00000000000E+00 0. -1.
</event>
<event>
 8    1  0.6901948E-009  0.1401838E+03  0.7561462E-02  0.1213082E+00
         -1   -1    0    0    0  501 -0.00000000000E+00  0.00000000000E+00  0.14118173105E+03  0.14118173105E+03  0.00000000000E+00 0.  1.
          1   -1    0    0  501    0  0.00000000000E+00 -0.00000000000E+00 -0.22604842658E+03  0.22604842658E+03  0.00000000000E+00 0. -1.
         25    2    1    2    0    0 -0.12041785495E+03  0.10874565084E+02 -0.12024466404E+03  0.21148137752E+03  0.12508748079E+03 0.  0.
         23    2    1    2    0    0  0.12041785495E+03 -0.10874565084E+02  0.35377968501E+02  0.15574878011E+03  0.91582563270E+02 0.  0.
          5    1    3    3  502    0 -0.42407331740E+02  0.54552025428E+02 -0.96718143937E+02  0.11893770231E+03  0.41800000000E+01 0. -1.
         -5    1    3    3    0  502 -0.78010523209E+02 -0.43677460344E+02 -0.23526520099E+02  0.92543675210E+02  0.41800000000E+01 0. -1.
        -11    1    4    4    0    0  0.81827143147E+02 -0.13622248252E+02 -0.22664775031E+02  0.85993831350E+02  0.00000000000E+00 0. -1.
         11    1    4    4    0    0  0.38590711802E+02  0.27476831688E+01  0.58042743532E+02  0.69754948763E+02  0.00000000000E+00 0.  1.
</event>
<event>
 8    1  0.6901948E-009  0.1412412E+03  0.7561462E-02  0.1211669E+00
          2   -1    0    0  501    0  0.00000000000E+00  0.00000000000E+00  0.68631018567E+03  0.68631018567E+03  0.00000000000E+00 0. -1.
         -2   -1    0    0    0  501 -0.00000000000E+00 -0.00000000000E+00 -0.39309962185E+02  0.39309962185E+02  0.00000000000E+00 0.  1.
         25    2    1    2    0    0 -0.57138532286E+01 -0.10599671294E+03  0.21281850028E+03  0.26871390763E+03  0.12508996290E+03 0.  0.
         23    2    1    2    0    0  0.57138532286E+01  0.10599671294E+03  0.43418172321E+03  0.45690624023E+03  0.94771263161E+02 0.  0.
          5    1    3    3  502    0 -0.49211167312E+02 -0.69334982318E+02  0.56130735910E+02  0.10196671356E+03  0.41800000000E+01 0.  1.
         -5    1    3    3    0  502  0.43497314084E+02 -0.36661730624E+02  0.15668776437E+03  0.16674719406E+03  0.41800000000E+01 0.  1.
        -11    1    4    4    0    0 -0.42538152080E+02  0.38701086451E+02  0.21645737800E+03  0.22396666039E+03  0.00000000000E+00 0. -1.
         11    1    4    4    0    0  0.48252005308E+02  0.67295626490E+02  0.21772434520E+03  0.23293957984E+03  0.00000000000E+00 0.  1.
</event>
<event>
 8    1  0.6901948E-009  0.2299269E+03  0.7561462E-02  0.1126691E+00
          2   -1    0    0  501    0  0.00000000000E+00  0.00000000000E+00  0.19099221446E+03  0.19099221446E+03  0.00000000000E+00 0. -1.
         -2   -1    0    0    0  501 -0.00000000000E+00 -0.00000000000E+00 -0.28582660779E+03  0.28582660779E+03  0.00000000000E+00 0.  1.
         25    2    1    2    0    0 -0.20352717313E+03 -0.34203056045E+02 -0.57479783004E+02  0.24808756030E+03  0.12510137039E+03 0.  0.
         23    2    1    2    0    0  0.20352717313E+03  0.34203056045E+02 -0.37354610329E+02  0.22873126195E+03  0.91265897446E+02 0.  0.
          5    1    3    3  502    0  0.11925228641E+02  0.75133096613E+01  0.10773936161E+02  0.18226656320E+02  0.41800000000E+01 0.  1.
         -5    1    3    3    0  502 -0.21545240177E+03 -0.41716365706E+02 -0.68253719165E+02  0.22986090398E+03  0.41800000000E+01 0.  1.
        -11    1    4    4    0    0  0.18976935579E+03  0.57771786988E+02 -0.33131675813E+02  0.20111612494E+03  0.00000000000E+00 0.  1.
         11    1    4    4    0    0  0.13757817336E+02 -0.23568730943E+02 -0.42229345152E+01  0.27615137009E+02  0.00000000000E+00 0. -1.
</event>
<event>
 8    1  0.6901948E-009  0.1139102E+03  0.7561462E-02  0.1253495E+00
         -1   -1    0    0    0  501 -0.00000000000E+00  0.00000000000E+00  0.55872506570E+03  0.55872506570E+03  0.00000000000E+00 0.  1.
          1   -1    0    0  501    0  0.00000000000E+00 -0.00000000000E+00 -0.26704263678E+02  0.26704263678E+02  0.00000000000E+00 0. -1.
         25    2    1    2    0    0 -0.40750013453E+02 -0.35651620491E+02  0.34228489036E+03  0.36842539034E+03  0.12508685160E+03 0.  0.
         23    2    1    2    0    0  0.40750013453E+02  0.35651620491E+02  0.18973591167E+03  0.21700393904E+03  0.90329351492E+02 0.  0.
          5    1    3    3  502    0 -0.68753213772E+02 -0.64286178024E+02  0.21046920359E+03  0.23059591312E+03  0.41800000000E+01 0.  1.
         -5    1    3    3    0  502  0.28003200319E+02  0.28634557533E+02  0.13181568677E+03  0.13782947722E+03  0.41800000000E+01 0.  1.
        -11    1    4    4    0    0  0.19787342148E+02  0.58837266442E+02  0.16753326707E+03  0.17866381392E+03  0.00000000000E+00 0.  1.
         11    1    4    4    0    0  0.20962671305E+02 -0.23185645951E+02  0.22202644601E+02  0.38340125113E+02  0.00000000000E+00 0. -1.
</event>
<event>
 8    1  0.6901948E-009  0.1148802E+03  0.7561462E-02  0.1251790E+00
          2   -1    0    0  501    0  0.00000000000E+00  0.00000000000E+00  0.12374384917E+03  0.12374384917E+03  0.00000000000E+00 0.  1.
         -2   -1    0    0    0  501 -0.00000000000E+00 -0.00000000000E+00 -0.12041623509E+03  0.12041623509E+03  0.00000000000E+00 0. -1.
         25    2    1    2    0    0  0.36389484662E+02 -0.28065207148E+02  0.38083792569E+02  0.13860237898E+03  0.12509354003E+03 0.  0.
         23    2    1    2    0    0 -0.36389484662E+02  0.28065207148E+02 -0.34756178490E+02  0.10555770528E+03  0.88445388541E+02 0.  0.
          5    1    3    3  502    0 -0.11198718606E+02 -0.68663674082E+02  0.12101825955E+02  0.70739225528E+02  0.41800000000E+01 0.  1.
         -5    1    3    3    0  502  0.47588203268E+02  0.40598466933E+02  0.25981966613E+02  0.67863153454E+02  0.41800000000E+01 0.  1.
        -11    1    4    4    0    0 -0.50154993997E+02 -0.14846318291E+02 -0.73681548265E+01  0.52822592659E+02  0.00000000000E+00 0.  1.
         11    1    4    4    0    0  0.13765509335E+02  0.42911525439E+02 -0.27388023663E+02  0.52735112619E+02  0.00000000000E+00 0. -1.
</event>
<event>
 8    1  0.6901948E-009  0.9321794E+02  0.7561462E-02  0.1295241E+00
         -1   -1    0    0    0  501 -0.00000000000E+00  0.00000000000E+00  0.13617802822E+03  0.13617802822E+03  0.00000000000E+00 0.  1.
          1   -1    0    0  501    0  0.00000000000E+00 -0.00000000000E+00 -0.12945653105E+03  0.12945653105E+03  0.00000000000E+00 0. -1.
         25    2    1    2    0    0 -0.34150612566E+01  0.69584303859E+02  0.43372315296E+02  0.14960566206E+03  0.12508820248E+03 0.  0.
         23    2    1    2    0    0  0.34150612566E+01 -0.69584303859E+02 -0.36650818118E+02  0.11602889721E+03  0.85239571399E+02 0.  0.
          5    1    3    3  502    0  0.16515022316E+02  0.57218940414E+02  0.83673986776E+02  0.10278891753E+03  0.41800000000E+01 0. -1.
         -5    1    3    3    0  502 -0.19930083573E+02  0.12365363445E+02 -0.40301671479E+02  0.46816744530E+02  0.41800000000E+01 0. -1.
        -11    1    4    4    0    0  0.39058899407E+02 -0.45127489992E+02 -0.41259453016E+02  0.72556394887E+02  0.00000000000E+00 0. -1.
         11    1    4    4    0    0 -0.35643838150E+02 -0.24456813867E+02  0.46086348979E+01  0.43472502323E+02  0.00000000000E+00 0.  1.
</event>
<event>
 8    1  0.6901948E-009  0.1038004E+03  0.7561462E-02  0.1272501E+00
          1   -1    0    0  501    0  0.00000000000E+00  0.00000000000E+00  0.24410522765E+03  0.24410522765E+03  0.00000000000E+00 0. -1.
         -1   -1    0    0    0  501 -0.00000000000E+00 -0.00000000000E+00 -0.53558644135E+02  0.53558644135E+02  0.00000000000E+00 0.  1.
         25    2    1    2    0    0  0.22433655251E+02 -0.73753944980E+01  0.14528520436E+03  0.19316269377E+03  0.12508545211E+03 0.  0.
         23    2    1    2    0    0 -0.22433655251E+02  0.73753944980E+01  0.45261379162E+02  0.10450117802E+03  0.91182445849E+02 0.  0.
          5    1    3    3  502    0  0.38688525490E+02  0.50350416949E+02  0.51973573086E+02  0.82162589972E+02  0.41800000000E+01 0.  1.
         -5    1    3    3    0  502 -0.16254870239E+02 -0.57725811447E+02  0.93311631269E+02  0.11100010380E+03  0.41800000000E+01 0.  1.
        -11    1    4    4    0    0  0.20279453217E+02 -0.23578251289E+02 -0.51655479057E+01  0.31525752042E+02  0.00000000000E+00 0.  1.
         11    1    4    4    0    0 -0.42713108468E+02  0.30953645787E+02  0.50426927068E+02  0.72975425973E+02  0.00000000000E+00 0. -1.
</event>
<event>
 8    1  0.6901948E-009  0.9072966E+02  0.7561462E-02  0.1301094E+00
         -3   -1    0    0    0  501 -0.00000000000E+00  0.00000000000E+00  0.29811554665E+03  0.29811554665E+03  0.00000000000E+00 0.  1.
          3   -1    0    0  501    0  0.00000000000E+00 -0.00000000000E+00 -0.47300943824E+02  0.47300943824E+02  0.00000000000E+00 0. -1.
         25    2    1    2    0    0  0.66999162901E+01 -0.62012768736E+01  0.20813403887E+03  0.24300337618E+03  0.12509003950E+03 0.  0.
         23    2    1    2    0    0 -0.66999162901E+01  0.62012768736E+01  0.42680563947E+02  0.10241311429E+03  0.92647022221E+02 0.  0.
          5    1    3    3  502    0 -0.43636814674E+02  0.37249051948E+02  0.11379521781E+03  0.12750877406E+03  0.41800000000E+01 0. -1.
         -5    1    3    3    0  502  0.50336730964E+02 -0.43450328822E+02  0.94338821064E+02  0.11549460212E+03  0.41800000000E+01 0. -1.
        -11    1    4    4    0    0 -0.37180518837E+01  0.31557627479E+02 -0.18042597221E+02  0.36540978044E+02  0.00000000000E+00 0. -1.
         11    1    4    4    0    0 -0.29818644064E+01 -0.25356350605E+02  0.60723161168E+02  0.65872136246E+02  0.00000000000E+00 0.  1.
</event>
<event>
 8    1  0.6901948E-009  0.1718842E+03  0.7561462E-02  0.1175897E+00
          1   -1    0    0  501    0  0.00000000000E+00  0.00000000000E+00  0.72525822666E+03  0.72525822666E+03  0.00000000000E+00 0. -1.
         -1   -1    0    0    0  501 -0.00000000000E+00 -0.00000000000E+00 -0.47385712723E+02  0.47385712723E+02  0.00000000000E+00 0.  1.
         25    2    1    2    0    0 -0.14361578963E+03 -0.26043590948E+02  0.28735838771E+03  0.34572551594E+03  0.12509007045E+03 0.  0.
         23    2    1    2    0    0  0.14361578963E+03  0.26043590948E+02  0.39051412622E+03  0.42691842344E+03  0.91947233942E+02 0.  0.
          5    1    3    3  502    0 -0.10737488299E+02  0.26435390249E+02  0.50193774165E+01  0.29270976448E+02  0.41800000000E+01 0. -1.
         -5    1    3    3    0  502 -0.13287830133E+03 -0.52478981196E+02  0.28233901030E+03  0.31645453950E+03  0.41800000000E+01 0. -1.
        -11    1    4    4    0    0  0.91479934967E+02  0.60350010377E+02  0.23286566829E+03  0.25736573533E+03  0.00000000000E+00 0. -1.
         11    1    4    4    0    0  0.52135854666E+02 -0.34306419429E+02  0.15764845793E+03  0.16955268811E+03  0.00000000000E+00 0.  1.
</event>
<event>
 8    1  0.6901948E-009  0.1025018E+03  0.7561462E-02  0.1275121E+00
          2   -1    0    0  501    0  0.00000000000E+00  0.00000000000E+00  0.89273670537E+02  0.89273670537E+02  0.00000000000E+00 0. -1.
         -2   -1    0    0    0  501 -0.00000000000E+00 -0.00000000000E+00 -0.21007042709E+03  0.21007042709E+03  0.00000000000E+00 0.  1.
         25    2    1    2    0    0  0.40833169366E+02  0.14858865437E+02 -0.14428064490E+03  0.19581095858E+03  0.12504756457E+03 0.  0.
         23    2    1    2    0    0 -0.40833169366E+02 -0.14858865437E+02  0.23483888352E+02  0.10353313905E+03  0.90991671409E+02 0.  0.
          5    1    3    3  502    0  0.66130199755E+02  0.53744928550E+02 -0.85162101688E+02  0.12054781885E+03  0.41800000000E+01 0. -1.
         -5    1    3    3    0  502 -0.25297030389E+02 -0.38886063113E+02 -0.59118543213E+02  0.75263139733E+02  0.41800000000E+01 0. -1.
        -11    1    4    4    0    0 -0.44020796897E+02  0.12343457986E+02 -0.21769560765E+02  0.50636995274E+02  0.00000000000E+00 0.  1.
         11    1    4    4    0    0  0.31876275306E+01 -0.27202323423E+02  0.45253449117E+02  0.52896143771E+02  0.00000000000E+00 0. -1.
</event>
<event>
 8    1  0.6901948E-009  0.1309138E+03  0.7561462E-02  0.1226106E+00
         -2   -1    0    0    0  501 -0.00000000000E+00  0.00000000000E+00  0.42551707860E+03  0.42551707860E+03  0.00000000000E+00 0.  1.
          2   -1    0    0  501    0  0.00000000000E+00 -0.00000000000E+00 -0.10453498470E+03  0.10453498470E+03  0.00000000000E+00 0. -1.
         25    2    1    2    0    0  0.13409415169E+02 -0.94679435604E+02 -0.24605117354E+02  0.15936110970E+03  0.12508614448E+03 0.  0.
         23    2    1    2    0    0 -0.13409415169E+02  0.94679435604E+02  0.34558721125E+03  0.37069095361E+03  0.94006672983E+02 0.  0.
          5    1    3    3  502    0  0.32364591434E+02 -0.10417209967E+03  0.18897802143E+02  0.11078760063E+03  0.41800000000E+01 0.  1.
         -5    1    3    3    0  502 -0.18955176265E+02  0.94926640619E+01 -0.43502919497E+02  0.48573509066E+02  0.41800000000E+01 0.  1.
        -11    1    4    4    0    0 -0.33334857935E+02 -0.97448406250E+00  0.12615624601E+03  0.13048969607E+03  0.00000000000E+00 0. -1.
         11    1    4    4    0    0  0.19925442767E+02  0.95653919666E+02  0.21943096524E+03  0.24020125754E+03  0.00000000000E+00 0.  1.
</event>
<event>
 8    1  0.6901948E-009  0.8925690E+02  0.7561462E-02  0.1304661E+00
          2   -1    0    0  501    0  0.00000000000E+00  0.00000000000E+00  0.95358612418E+03  0.95358612418E+03  0.00000000000E+00 0. -1.
         -2   -1    0    0    0  501 -0.00000000000E+00 -0.00000000000E+00 -0.19725069591E+02  0.19725069591E+02  0.00000000000E+00 0.  1.
         25    2    1    2    0    0 -0.67229432291E+02  0.12037578217E+01  0.68434196391E+03  0.69892241687E+03  0.12508947053E+03 0.  0.
         23    2    1    2    0    0  0.67229432291E+02 -0.12037578217E+01  0.24951909068E+03  0.27438877690E+03  0.92239789013E+02 0.  0.
          5    1    3    3  502    0 -0.19073607354E+02  0.25637239940E+02  0.58406569976E+03  0.58495408760E+03  0.41800000000E+01 0.  1.
         -5    1    3    3    0  502 -0.48155824937E+02 -0.24433482118E+02  0.10027626415E+03  0.11396832927E+03  0.41800000000E+01 0.  1.
        -11    1    4    4    0    0 -0.47969668846E+01  0.17141498759E+02  0.45219712099E+01  0.18365459281E+02  0.00000000000E+00 0.  1.
         11    1    4    4    0    0  0.72026399175E+02 -0.18345256580E+02  0.24499711947E+03  0.25602331762E+03  0.00000000000E+00 0. -1.
</event>
<event>
 8    1  0.6901948E-009  0.2104151E+03  0.7561462E-02  0.1141238E+00
         -2   -1    0    0    0  501 -0.00000000000E+00  0.00000000000E+00  0.79257969454E+02  0.79257969454E+02  0.00000000000E+00 0.  1.
          2   -1    0    0  501    0  0.00000000000E+00 -0.00000000000E+00 -0.72621642583E+03  0.72621642583E+03  0.00000000000E+00 0. -1.
         25    2    1    2    0    0  0.92839170235E+02  0.16802367370E+03 -0.18104451817E+03  0.29203640716E+03  0.12512825060E+03 0.  0.
         23    2    1    2    0    0 -0.92839170235E+02 -0.16802367370E+03 -0.46591393821E+03  0.51343798812E+03  0.98446449251E+02 0.  0.
          5    1    3    3  502    0  0.11219396427E+03  0.13787784751E+03 -0.10159817188E+03  0.20478634570E+03  0.41800000000E+01 0. -1.
         -5    1    3    3    0  502 -0.19354794036E+02  0.30145826190E+02 -0.79446346280E+02  0.87250061468E+02  0.41800000000E+01 0. -1.
        -11    1    4    4    0    0  0.13406350626E+02 -0.29295149737E+02 -0.30897554423E+02  0.44638491289E+02  0.00000000000E+00 0.  1.
         11    1    4    4    0    0 -0.10624552086E+03 -0.13872852397E+03 -0.43501638379E+03  0.46879949683E+03  0.00000000000E+00 0. -1.
</event>
<event>
 8    1  0.6901948E-009  0.7682788E+02  0.7561462E-02  0.1338302E+00
         -1   -1    0    0    0  501 -0.00000000000E+00  0.00000000000E+00  0.11943850063E+03  0.11943850063E+03  0.00000000000E+00 0.  1.
          1   -1    0    0  501    0  0.00000000000E+00 -0.00000000000E+00 -0.15855603491E+03  0.15855603491E+03  0.00000000000E+00 0. -1.
         25    2    1    2    0    0 -0.82579578471E+01  0.66932143803E+01  0.64730731392E+02  0.14124916001E+03  0.12509302391E+03 0.  0.
         23    2    1    2    0    0  0.82579578471E+01 -0.66932143803E+01 -0.10384826567E+03  0.13674537552E+03  0.88328038907E+02 0.  0.
          5    1    3    3  502    0  0.13173825843E+02 -0.29874146303E+02 -0.25390151932E+02  0.41570981704E+02  0.41800000000E+01 0.  1.
         -5    1    3    3    0  502 -0.21431783690E+02  0.36567360683E+02  0.90120883323E+02  0.99678178306E+02  0.41800000000E+01 0.  1.
        -11    1    4    4    0    0  0.25711398725E+02  0.28793390800E+02 -0.84113137544E+02  0.92548124161E+02  0.00000000000E+00 0. -1.
         11    1    4    4    0    0 -0.17453440878E+02 -0.35486605181E+02 -0.19735128129E+02  0.44197251363E+02  0.00000000000E+00 0.  1.
</event>
<event>
 8    1  0.6901948E-009  0.1489127E+03  0.7561462E-02  0.1201815E+00
         -1   -1    0    0    0  501 -0.00000000000E+00  0.00000000000E+00  0.79732098960E+02  0.79732098960E+02  0.00000000000E+00 0.  1.
          1   -1    0    0  501    0  0.00000000000E+00 -0.00000000000E+00 -0.32055001356E+03  0.32055001356E+03  0.00000000000E+00 0. -1.
         25    2    1    2    0    0 -0.93996284225E+02  0.48569547004E+02 -0.19462938199E+03  0.25440840202E+03  0.12509490933E+03 0.  0.
         23    2    1    2    0    0  0.93996284225E+02 -0.48569547004E+02 -0.46188532609E+02  0.14587371050E+03  0.89170939917E+02 0.  0.
          5    1    3    3  502    0 -0.15716996397E+02 -0.39648683222E+02 -0.74900096021E+02  0.86293330222E+02  0.41800000000E+01 0. -1.
         -5    1    3    3    0  502 -0.78279287828E+02  0.88218230226E+02 -0.11972928597E+03  0.16811507180E+03  0.41800000000E+01 0. -1.
        -11    1    4    4    0    0  0.73922996271E+02  0.10411283147E+02 -0.14780640664E+02  0.76101718330E+02  0.00000000000E+00 0.  1.
         11    1    4    4    0    0  0.20073287955E+02 -0.58980830151E+02 -0.31407891945E+02  0.69771992168E+02  0.00000000000E+00 0. -1.
</event>
<event>
 8    1  0.6901948E-009  0.1076366E+03  0.7561462E-02  0.1265010E+00
          2   -1    0    0  501    0  0.00000000000E+00  0.00000000000E+00  0.12086968584E+03  0.12086968584E+03  0.00000000000E+00 0.  1.
         -2   -1    0    0    0  501 -0.00000000000E+00 -0.00000000000E+00 -0.43010973231E+03  0.43010973231E+03  0.00000000000E+00 0. -1.
         25    2    1    2    0    0  0.80132892873E+02  0.24944959840E+02  0.57878617953E+02  0.16137408022E+03  0.12509247703E+03 0.  0.
         23    2    1    2    0    0 -0.80132892873E+02 -0.24944959840E+02 -0.36711866442E+03  0.38960533793E+03  0.99863276726E+02 0.  0.
          5    1    3    3  502    0  0.34419696621E+01 -0.70903318813E+01 -0.35319959734E+02  0.36429272803E+02  0.41800000000E+01 0. -1.
         -5    1    3    3    0  502  0.76690923211E+02  0.32035291721E+02  0.93198577687E+02  0.12494480742E+03  0.41800000000E+01 0. -1.
        -11    1    4    4    0    0 -0.78689412273E+02  0.17542994096E+02 -0.29567951236E+03  0.30647374157E+03  0.00000000000E+00 0. -1.
         11    1    4    4    0    0 -0.14434805999E+01 -0.42487953936E+02 -0.71439152061E+02  0.83131596359E+02  0.00000000000E+00 0.  1.
</event>
<event>
 8    1  0.6901948E-009  0.1255102E+03  0.7561462E-02  0.1234274E+00
         -1   -1    0    0    0  501 -0.00000000000E+00  0.00000000000E+00  0.26535803435E+02  0.26535803435E+02  0.00000000000E+00 0.  1.
          1   -1    0    0  501    0  0.00000000000E+00 -0.00000000000E+00 -0.76952879325E+03  0.76952879325E+03  0.00000000000E+00 0. -1.
         25    2    1    2    0    0  0.65071785154E+02 -0.58552984773E+01 -0.56482225520E+03  0.58218544698E+03  0.12508834065E+03 0.  0.
         23    2    1    2    0    0 -0.65071785154E+02  0.58552984773E+01 -0.17817073462E+03  0.21387914971E+03  0.98645112709E+02 0.  0.
          5    1    3    3  502    0  0.67330844784E+02  0.46007862681E+02 -0.24761738991E+03  0.26073360020E+03  0.41800000000E+01 0.  1.
         -5    1    3    3    0  502 -0.22590596301E+01 -0.51863161158E+02 -0.31720486529E+03  0.32145184678E+03  0.41800000000E+01 0.  1.
        -11    1    4    4    0    0  0.24578779058E+02  0.12140752656E+02 -0.54458784117E+02  0.60969446632E+02  0.00000000000E+00 0.  1.
         11    1    4    4    0    0 -0.89650564212E+02 -0.62854541784E+01 -0.12371195050E+03  0.15290970308E+03  0.00000000000E+00 0. -1.
</event>
<event>
 8    1  0.6901948E-009  0.1736996E+03  0.7561462E-02  0.1174044E+00
         -2   -1    0    0    0  501 -0.00000000000E+00  0.00000000000E+00  0.29645644251E+03  0.29645644251E+03  0.00000000000E+00 0. -1.
          2   -1    0    0  501    0  0.00000000000E+00 -0.00000000000E+00 -0.10428176842E+03  0.10428176842E+03  0.00000000000E+00 0.  1.
         25    2    1    2    0    0  0.64734079339E+02 -0.11556440106E+03  0.12887987662E+03  0.22316661994E+03  0.12509071044E+03 0.  0.
         23    2    1    2    0    0 -0.64734079339E+02  0.11556440106E+03  0.63294797472E+02  0.17757159098E+03  0.99898982557E+02 0.  0.
          5    1    3    3  502    0 -0.27573642660E+01 -0.11432194941E+03  0.85000535434E+02  0.14254709607E+03  0.41800000000E+01 0.  1.
         -5    1    3    3    0  502  0.67491443605E+02 -0.12424516492E+01  0.43879341187E+02  0.80619523870E+02  0.41800000000E+01 0.  1.
        -11    1    4    4    0    0 -0.56232750797E+02  0.72617654971E+01  0.28773376620E+02  0.63582723302E+02  0.00000000000E+00 0.  1.
         11    1    4    4    0    0 -0.85013285419E+01  0.10830263556E+03  0.34521420851E+02  0.11398886768E+03  0.00000000000E+00 0. -1.
</event>
<event>
 8    1  0.6901948E-009  0.9732803E+02  0.7561462E-02  0.1286017E+00
          1   -1    0    0  501    0  0.00000000000E+00  0.00000000000E+00  0.30603380106E+03  0.30603380106E+03  0.00000000000E+00 0. -1.
         -1   -1    0    0    0  501 -0.00000000000E+00 -0.00000000000E+00 -0.53906207636E+02  0.53906207636E+02  0.00000000000E+00 0.  1.
         25    2    1    2    0    0 -0.67650198287E+02  0.92849621076E+01  0.14149275593E+03  0.20082184252E+03  0.12508578097E+03 0.  0.
         23    2    1    2    0    0  0.67650198287E+02 -0.92849621076E+01  0.11063483750E+03  0.15911816618E+03  0.91737471578E+02 0.  0.
          5    1    3    3  502    0 -0.37659199637E+02 -0.46440271684E+02  0.18985421614E+02  0.62871557840E+02  0.41800000000E+01 0.  1.
         -5    1    3    3    0  502 -0.29990998650E+02  0.55725233792E+02  0.12250733431E+03  0.13795028468E+03  0.41800000000E+01 0.  1.
        -11    1    4    4    0    0  0.54496670324E+02 -0.15631066001E+02  0.12584850434E+03  0.13802921193E+03  0.00000000000E+00 0. -1.
         11    1    4    4    0    0  0.13153527963E+02  0.63461038930E+01 -0.15213666847E+02  0.21088954252E+02  0.00000000000E+00 0.  1.
</event>
<event>
 8    1  0.6901948E-009  0.1164112E+03  0.7561462E-02  0.1249138E+00
         -2   -1    0    0    0  501 -0.00000000000E+00  0.00000000000E+00  0.37393579744E+02  0.37393579744E+02  0.00000000000E+00 0. -1.
          2   -1    0    0  501    0  0.00000000000E+00 -0.00000000000E+00 -0.41865037315E+03  0.41865037315E+03  0.00000000000E+00 0.  1.
         25    2    1    2    0    0  0.13716537025E+01  0.57329988167E+02 -0.17022495465E+03  0.21890178741E+03  0.12511134387E+03 0.  0.
         23    2    1    2    0    0 -0.13716537025E+01 -0.57329988167E+02 -0.21103183875E+03  0.23714216549E+03  0.91724373581E+02 0.  0.
          5    1    3    3  502    0 -0.60012977765E+02  0.41526075971E+02 -0.77819504423E+02  0.10676759880E+03  0.41800000000E+01 0. -1.
         -5    1    3    3    0  502  0.61384631467E+02  0.15803912195E+02 -0.92405450231E+02  0.11213418860E+03  0.41800000000E+01 0. -1.
        -11    1    4    4    0    0  0.36956806966E+02 -0.38947081395E+02 -0.16915264967E+03  0.17746915118E+03  0.00000000000E+00 0.  1.
         11    1    4    4    0    0 -0.38328460669E+02 -0.18382906771E+02 -0.41879189085E+02  0.59673014312E+02  0.00000000000E+00 0. -1.
</event>
<event>
 8    1  0.6901948E-009  0.1370727E+03  0.7561462E-02  0.1217323E+00
         -1   -1    0    0    0  501 -0.00000000000E+00  0.00000000000E+00  0.12016850852E+03  0.12016850852E+03  0.00000000000E+00 0.  1.
          1   -1    0    0  501    0  0.00000000000E+00 -0.00000000000E+00 -0.17939787619E+03  0.17939787619E+03  0.00000000000E+00 0. -1.
         25    2    1    2    0    0 -0.10202434361E+03  0.14531665680E+01 -0.52404504179E+02  0.16971928440E+03  0.12508926835E+03 0.  0.
         23    2    1    2    0    0  0.10202434361E+03 -0.14531665680E+01 -0.68248634933E+01  0.12984710031E+03  0.80016325307E+02 0.  0.
          5    1    3    3  502    0  0.22238387986E+02  0.12838439892E+02 -0.35073205488E+02  0.43668908645E+02  0.41800000000E+01 0.  1.
         -5    1    3    3    0  502 -0.12426273160E+03 -0.11385273324E+02 -0.17331298691E+02  0.12605037575E+03  0.41800000000E+01 0.  1.
        -11    1    4    4    0    0  0.58674592777E+02  0.33522727568E+02 -0.23757052548E+02  0.71630151800E+02  0.00000000000E+00 0. -1.
         11    1    4    4    0    0  0.43349750835E+02 -0.34975894136E+02  0.16932189055E+02  0.58216948514E+02  0.00000000000E+00 0.  1.
</event>
<event>
 8    1  0.6901948E-009  0.1024465E+03  0.7561462E-02  0.1275234E+00
          2   -1    0    0  501    0  0.00000000000E+00  0.00000000000E+00  0.14387208532E+03  0.14387208532E+03  0.00000000000E+00 0. -1.
         -2   -1    0    0    0  501 -0.00000000000E+00 -0.00000000000E+00 -0.10854733249E+03  0.10854733249E+03  0.00000000000E+00 0.  1.
         25    2    1    2    0    0 -0.32280357988E+02  0.37827845279E+02  0.31468839228E+02  0.13824212482E+03  0.12509048662E+03 0.  0.
         23    2    1    2    0    0  0.32280357988E+02 -0.37827845279E+02  0.38559136061E+01  0.11417729300E+03  0.10270646901E+03 0.  0.
          5    1    3    3  502    0 -0.43256902700E+02 -0.32975564231E+02 -0.98382986465E+01  0.55432950380E+02  0.41800000000E+01 0.  1.
         -5    1    3    3    0  502  0.10976544711E+02  0.70803409510E+02  0.41307137875E+02  0.82809174440E+02  0.41800000000E+01 0.  1.
        -11    1    4    4    0    0  0.50040906756E+02 -0.21572806676E+02 -0.37621728023E+02  0.66218371743E+02  0.00000000000E+00 0.  1.
         11    1    4    4    0    0 -0.17760548768E+02 -0.16255038603E+02  0.41477641629E+02  0.47958921252E+02  0.00000000000E+00 0. -1.
</event>
<event>
 8    1  0.6901948E-009  0.1087029E+03  0.7561462E-02  0.1262991E+00
          2   -1    0    0  501    0  0.00000000000E+00  0.00000000000E+00  0.64115709237E+03  0.64115709237E+03  0.00000000000E+00 0. -1.
         -2   -1    0    0    0  501 -0.00000000000E+00 -0.00000000000E+00 -0.24891819802E+02  0.24891819802E+02  0.00000000000E+00 0.  1.
         25    2    1    2    0    0 -0.10177478545E+02 -0.57214531835E+02  0.40293897475E+03  0.42589264579E+03  0.12509054579E+03 0.  0.
         23    2    1    2    0    0  0.10177478545E+02  0.57214531835E+02  0.21332629782E+03  0.24015626638E+03  0.93754142405E+02 0.  0.
          5    1    3    3  502    0  0.19447258948E+02 -0.81770337529E+02  0.35198406449E+03  0.36190445981E+03  0.41800000000E+01 0.  1.
         -5    1    3    3    0  502 -0.29624737493E+02  0.24555805695E+02  0.50954910258E+02  0.63988185974E+02  0.41800000000E+01 0.  1.
        -11    1    4    4    0    0  0.41907702382E+02  0.22694424201E+02  0.16915075638E+03  0.17573636730E+03  0.00000000000E+00 0. -1.
         11    1    4    4    0    0 -0.31730223837E+02  0.34520107633E+02  0.44175541438E+02  0.64419899077E+02  0.00000000000E+00 0.  1.
</event>
<event>
 8    1  0.6901948E-009  0.7034263E+02  0.7561462E-02  0.1358932E+00
         -1   -1    0    0    0  501 -0.00000000000E+00  0.00000000000E+00  0.15305485792E+03  0.15305485792E+03  0.00000000000E+00 0.  1.
          1   -1    0    0  501    0  0.00000000000E+00 -0.00000000000E+00 -0.11820301773E+03  0.11820301773E+03  0.00000000000E+00 0. -1.
         25    2    1    2    0    0  0.43595322961E+02 -0.18522053912E+01  0.84807763452E+02  0.15730148765E+03  0.12508964157E+03 0.  0.
         23    2    1    2    0    0 -0.43595322961E+02  0.18522053912E+01 -0.49955923264E+02  0.11395638800E+03  0.92663268063E+02 0.  0.
          5    1    3    3  502    0  0.77613470508E+01 -0.69331827477E+01 -0.32545083515E+02  0.34423282703E+02  0.41800000000E+01 0. -1.
         -5    1    3    3    0  502  0.35833975910E+02  0.50809773565E+01  0.11735284697E+03  0.12287820495E+03  0.41800000000E+01 0. -1.
        -11    1    4    4    0    0 -0.42645510384E+02 -0.35612847430E+02 -0.55305850989E+01  0.55834593483E+02  0.00000000000E+00 0. -1.
         11    1    4    4    0    0 -0.94981257763E+00  0.37465052821E+02 -0.44425338165E+02  0.58121794517E+02  0.00000000000E+00 0.  1.
</event>
<event>
 8    1  0.6901948E-009  0.9213094E+02  0.7561462E-02  0.1297772E+00
         -1   -1    0    0    0  501 -0.00000000000E+00  0.00000000000E+00  0.14007386026E+03  0.14007386026E+03  0.00000000000E+00 0.  1.
          1   -1    0    0  501    0  0.00000000000E+00 -0.00000000000E+00 -0.13310528785E+03  0.13310528785E+03  0.00000000000E+00 0. -1.
         25    2    1    2    0    0  0.11975559816E+02 -0.76077118165E+02 -0.18764797960E+02  0.14809316832E+03  0.12509327287E+03 0.  0.
         23    2    1    2    0    0 -0.11975559816E+02  0.76077118165E+02  0.25733370374E+02  0.12508597979E+03  0.95148063821E+02 0.  0.
          5    1    3    3  502    0  0.19760922590E+02 -0.29172121600E+02 -0.69747970891E+02  0.78254447693E+02  0.41800000000E+01 0. -1.
         -5    1    3    3    0  502 -0.77853627740E+01 -0.46904996565E+02  0.50983172932E+02  0.69838720624E+02  0.41800000000E+01 0. -1.
        -11    1    4    4    0    0  0.26709596070E+02  0.40358994390E+02 -0.22780712417E+02  0.53490296397E+02  0.00000000000E+00 0. -1.
         11    1    4    4    0    0 -0.38685155886E+02  0.35718123775E+02  0.48514082791E+02  0.71595683396E+02  0.00000000000E+00 0.  1.
</event>
<event>
 8    1  0.6901948E-009  0.1391265E+03  0.7561462E-02  0.1214509E+00
         -2   -1    0    0    0  501 -0.00000000000E+00  0.00000000000E+00  0.69249969558E+02  0.69249969558E+02  0.00000000000E+00 0.  1.
          2   -1    0    0  501    0  0.00000000000E+00 -0.00000000000E+00 -0.50760173074E+03  0.50760173074E+03  0.00000000000E+00 0. -1.
         25    2    1    2    0    0  0.84302091388E+02 -0.40115347334E+02 -0.45369597002E+02  0.16254925244E+03  0.12509106856E+03 0.  0.
         23    2    1    2    0    0 -0.84302091388E+02  0.40115347334E+02 -0.39298216418E+03  0.41430244786E+03  0.92170782975E+02 0.  0.
          5    1    3    3  502    0  0.42493197867E+01 -0.70171381228E+02 -0.18351939495E+02  0.72775995667E+02  0.41800000000E+01 0.  1.
         -5    1    3    3    0  502  0.80052771601E+02  0.30056033894E+02 -0.27017657507E+02  0.89773256773E+02  0.41800000000E+01 0.  1.
        -11    1    4    4    0    0 -0.34112239793E+02  0.59361012226E+02 -0.14218961596E+03  0.15781400940E+03  0.00000000000E+00 0.  1.
         11    1    4    4    0    0 -0.50189851595E+02 -0.19245664892E+02 -0.25079254822E+03  0.25648843846E+03  0.00000000000E+00 0. -1.
</event>
<event>
 8    1  0.6901948E-009  0.1082729E+03  0.7561462E-02  0.1263802E+00
          2   -1    0    0  501    0  0.00000000000E+00  0.00000000000E+00  0.15429053656E+03  0.15429053656E+03  0.00000000000E+00 0. -1.
         -2   -1    0    0    0  501 -0.00000000000E+00 -0.00000000000E+00 -0.78895343801E+02  0.78895343801E+02  0.00000000000E+00 0.  1.
         25    2    1    2    0    0 -0.15066541670E+02 -0.12850431874E+02  0.29757370714E+02  0.13009877228E+03  0.12509218664E+03 0.  0.
         23    2    1    2    0    0  0.15066541670E+02  0.12850431874E+02  0.45637822045E+02  0.10308710808E+03  0.90288464240E+02 0.  0.
          5    1    3    3  502    0  0.44892889779E+02  0.28233531128E+02  0.60952953115E+01  0.53545577386E+02  0.41800000000E+01 0.  1.
         -5    1    3    3    0  502 -0.59959431449E+02 -0.41083963002E+02  0.23662075402E+02  0.76553194891E+02  0.41800000000E+01 0.  1.
        -11    1    4    4    0    0 -0.95013938372E+01  0.47292386844E+02  0.34603547517E+02  0.59365409449E+02  0.00000000000E+00 0. -1.
         11    1    4    4    0    0  0.24567935507E+02 -0.34441954969E+02  0.11034274528E+02  0.43721698635E+02  0.00000000000E+00 0.  1.
</event>
<event>
 8    1  0.6901948E-009  0.1077711E+03  0.7561462E-02  0.1264754E+00
          3   -1    0    0  501    0  0.00000000000E+00  0.00000000000E+00  0.40479082728E+03  0.40479082728E+03  0.00000000000E+00 0.  1.
         -3   -1    0    0    0  501 -0.00000000000E+00 -0.00000000000E+00 -0.40764517764E+02  0.40764517764E+02  0.00000000000E+00 0. -1.
         25    2    1    2    0    0  0.56551424979E+02  0.40191823035E+02  0.21252432247E+03  0.25617756642E+03  0.12508761564E+03 0.  0.
         23    2    1    2    0    0 -0.56551424979E+02 -0.40191823035E+02  0.15150198704E+03  0.18937777863E+03  0.89986913796E+02 0.  0.
          5    1    3    3  502    0 -0.16633576257E+02 -0.12357703409E+02  0.13676121793E+03  0.13838530204E+03  0.41800000000E+01 0.  1.
         -5    1    3    3    0  502  0.73185001237E+02  0.52549526444E+02  0.75763104545E+02  0.11779226437E+03  0.41800000000E+01 0.  1.
        -11    1    4    4    0    0 -0.67538857057E+02 -0.54354166332E+01  0.13117574029E+03  0.14764184978E+03  0.00000000000E+00 0.  1.
         11    1    4    4    0    0  0.10987432078E+02 -0.34756406402E+02  0.20326246754E+02  0.41735928847E+02  0.00000000000E+00 0. -1.
</event>
<event>
 8    1  0.6901948E-009  0.1539364E+03  0.7561462E-02  0.1195718E+00
         -2   -1    0    0    0  501 -0.00000000000E+00  0.00000000000E+00  0.18555880525E+03  0.18555880525E+03  0.00000000000E+00 0.  1.
          2   -1    0    0  501    0  0.00000000000E+00 -0.00000000000E+00 -0.13004442416E+03  0.13004442416E+03  0.00000000000E+00 0. -1.
         25    2    1    2    0    0 -0.10896680479E+03 -0.16359018073E+02  0.25770402364E+02  0.16867941110E+03  0.12508896064E+03 0.  0.
         23    2    1    2    0    0  0.10896680479E+03  0.16359018073E+02  0.29743978728E+02  0.14692381831E+03  0.92523089550E+02 0.  0.
          5    1    3    3  502    0 -0.97222057378E+02  0.41336602392E+02  0.41225050300E+01  0.10580789472E+03  0.41800000000E+01 0.  1.
         -5    1    3    3    0  502 -0.11744747408E+02 -0.57695620465E+02  0.21647897334E+02  0.62871516377E+02  0.41800000000E+01 0.  1.
        -11    1    4    4    0    0  0.92867435447E+02  0.50254899153E+02  0.15211842971E+02  0.10668324902E+03  0.00000000000E+00 0.  1.
         11    1    4    4    0    0  0.16099369339E+02 -0.33895881080E+02  0.14532135757E+02  0.40240569291E+02  0.00000000000E+00 0. -1.
</event>
<event>
 8    1  0.6901948E-009  0.1070209E+03  0.7561462E-02  0.1266188E+00
          2   -1    0    0  501    0  0.00000000000E+00  0.00000000000E+00  0.78230858310E+02  0.78230858310E+02  0.00000000000E+00 0. -1.
         -2   -1    0    0    0  501 -0.00000000000E+00 -0.00000000000E+00 -0.25967992816E+03  0.25967992816E+03  0.00000000000E+00 0.  1.
         25    2    1    2    0    0 -0.42922831846E+02 -0.32271055485E+02 -0.11876751794E+02  0.13664352943E+03  0.12508639569E+03 0.  0.
         23    2    1    2    0    0  0.42922831846E+02  0.32271055485E+02 -0.16957231805E+03  0.20126725704E+03  0.94180397060E+02 0.  0.
          5    1    3    3  502    0 -0.10009474142E+01 -0.60628055811E+02 -0.45337499996E+02  0.75826936856E+02  0.41800000000E+01 0.  1.
         -5    1    3    3    0  502 -0.41921884432E+02  0.28357000326E+02  0.33460748202E+02  0.60816592571E+02  0.41800000000E+01 0.  1.
        -11    1    4    4    0    0 -0.27831451165E+01  0.52443860559E+02 -0.53840558809E+02  0.75212433679E+02  0.00000000000E+00 0. -1.
         11    1    4    4    0    0  0.45705976962E+02 -0.20172805074E+02 -0.11573175925E+03  0.12605482336E+03  0.00000000000E+00 0.  1.
</event>
<event>
 8    1  0.6901948E-009  0.1052565E+03  0.7561462E-02  0.1269615E+00
          2   -1    0    0  501    0  0.00000000000E+00  0.00000000000E+00  0.89994940539E+02  0.89994940539E+02  0.00000000000E+00 0. -1.
         -2   -1    0    0    0  501 -0.00000000000E+00 -0.00000000000E+00 -0.17756782403E+03  0.17756782403E+03  0.00000000000E+00 0.  1.
         25    2    1    2    0    0 -0.57576265158E+02  0.22473337223E+02 -0.26581446983E+02  0.14206241186E+03  0.12512025553E+03 0.  0.
         23    2    1    2    0    0  0.57576265158E+02 -0.22473337223E+02 -0.60991436504E+02  0.12550035271E+03  0.90610738923E+02 0.  0.
          5    1    3    3  502    0 -0.48771235418E+02 -0.27025420766E+02  0.32260761606E+02  0.64554131635E+02  0.41800000000E+01 0.  1.
         -5    1    3    3    0  502 -0.88050297403E+01  0.49498757989E+02 -0.58842208589E+02  0.77508280221E+02  0.41800000000E+01 0.  1.
        -11    1    4    4    0    0  0.26104430740E+02 -0.53765632579E+02 -0.15071821890E+02  0.61638821906E+02  0.00000000000E+00 0. -1.
         11    1    4    4    0    0  0.31471834418E+02  0.31292295356E+02 -0.45919614615E+02  0.63861530805E+02  0.00000000000E+00 0.  1.
</event>
<event>
 8    1  0.6901948E-009  0.1207135E+03  0.7561462E-02  0.1241925E+00
          1   -1    0    0  501    0  0.00000000000E+00  0.00000000000E+00  0.16622077552E+02  0.16622077552E+02  0.00000000000E+00 0. -1.
         -1   -1    0    0    0  501 -0.00000000000E+00 -0.00000000000E+00 -0.14991776250E+04  0.14991776250E+04  0.00000000000E+00 0.  1.
         25    2    1    2    0    0 -0.36857824842E+02 -0.53755500808E+02 -0.12058725160E+04  0.12140938641E+04  0.12508889997E+03 0.  0.
         23    2    1    2    0    0  0.36857824842E+02  0.53755500808E+02 -0.27668303143E+03  0.30170583843E+03  0.10111755506E+03 0.  0.
          5    1    3    3  502    0  0.34768469027E+02 -0.38854342155E+02 -0.24982255419E+03  0.25523966644E+03  0.41800000000E+01 0.  1.
         -5    1    3    3    0  502 -0.71626293870E+02 -0.14901158654E+02 -0.95604996179E+03  0.95885419764E+03  0.41800000000E+01 0.  1.
        -11    1    4    4    0    0 -0.14974668200E+02 -0.20437243365E+02 -0.31966330972E+02  0.40789311343E+02  0.00000000000E+00 0.  1.
         11    1    4    4    0    0  0.51832493042E+02  0.74192744174E+02 -0.24471670046E+03  0.26091652709E+03  0.00000000000E+00 0. -1.
</event>
<event>
 8    1  0.6901948E-009  0.1127499E+03  0.7561462E-02  0.1255561E+00
          4   -1    0    0  501    0  0.00000000000E+00  0.00000000000E+00  0.39862537062E+03  0.39862537062E+03  0.00000000000E+00 0. -1.
         -4   -1    0    0    0  501 -0.00000000000E+00 -0.00000000000E+00 -0.40089550597E+02  0.40089550597E+02  0.00000000000E+00 0.  1.
         25    2    1    2    0    0 -0.25959553861E+02 -0.24803082059E+02  0.28957345475E+03  0.31747312285E+03  0.12508919507E+03 0.  0.
         23    2    1    2    0    0  0.25959553861E+02  0.24803082059E+02  0.68962365270E+02  0.12124179836E+03  0.93030503220E+02 0.  0.
          5    1    3    3  502    0  0.37359566481E+02  0.28362234282E+02  0.95450048338E+02  0.10643466385E+03  0.41800000000E+01 0.  1.
         -5    1    3    3    0  502 -0.63319120342E+02 -0.53165316341E+02  0.19412340641E+03  0.21103845900E+03  0.41800000000E+01 0.  1.
        -11    1    4    4    0    0  0.53196258557E+02  0.37983518106E+02  0.62215323516E+02  0.90240434686E+02  0.00000000000E+00 0. -1.
         11    1    4    4    0    0 -0.27236704697E+02 -0.13180436047E+02  0.67470417546E+01  0.31001363673E+02  0.00000000000E+00 0.  1.
</event>
<event>
 8    1  0.6901948E-009  0.8051062E+02  0.7561462E-02  0.1327609E+00
          2   -1    0    0  501    0  0.00000000000E+00  0.00000000000E+00  0.51719499177E+02  0.51719499177E+02  0.00000000000E+00 0. -1.
         -2   -1    0    0    0  501 -0.00000000000E+00 -0.00000000000E+00 -0.22834403596E+03  0.22834403596E+03  0.00000000000E+00 0.  1.
         25    2    1    2    0    0  0.14677147934E+02  0.65813242876E+01 -0.11850418339E+03  0.17305661263E+03  0.12508643889E+03 0.  0.
         23    2    1    2    0    0 -0.14677147934E+02 -0.65813242876E+01 -0.58120353397E+02  0.10700692251E+03  0.88395551275E+02 0.  0.
          5    1    3    3  502    0 -0.57066341424E+01  0.49471732440E+02 -0.53376621712E+01  0.50259138684E+02  0.41800000000E+01 0. -1.
         -5    1    3    3    0  502  0.20383782077E+02 -0.42890408152E+02 -0.11316652122E+03  0.12279747395E+03  0.41800000000E+01 0. -1.
        -11    1    4    4    0    0 -0.79244205116E+01 -0.34116058490E+02 -0.68403598294E+02  0.76848904656E+02  0.00000000000E+00 0.  1.
         11    1    4    4    0    0 -0.67527274228E+01  0.27534734202E+02  0.10283244897E+02  0.30158017853E+02  0.00000000000E+00 0. -1.
</event>
<event>
 8    1  0.6901948E-009  0.1101681E+03  0.7561462E-02  0.1260259E+00
         -1   -1    0    0    0  501 -0.00000000000E+00  0.00000000000E+00  0.13960352541E+03  0.13960352541E+03  0.00000000000E+00 0.  1.
          1   -1    0    0  501    0  0.00000000000E+00 -0.00000000000E+00 -0.12326194279E+03  0.12326194279E+03  0.00000000000E+00 0. -1.
         25    2    1    2    0    0  0.28207821393E+02  0.34330033626E+02  0.67630191051E+02  0.14897826455E+03  0.12508576326E+03 0.  0.
         23    2    1    2    0    0 -0.28207821393E+02 -0.34330033626E+02 -0.51288608438E+02  0.11388720365E+03  0.91463333659E+02 0.  0.
          5    1    3    3  502    0  0.64238773601E+02  0.55797712544E+02  0.24434570971E+02  0.88625760462E+02  0.41800000000E+01 0. -1.
         -5    1    3    3    0  502 -0.36030952209E+02 -0.21467678918E+02  0.43195620080E+02  0.60352504084E+02  0.41800000000E+01 0. -1.
        -11    1    4    4    0    0 -0.31268437644E+02 -0.59726237829E+02 -0.14301653264E+02  0.68916441899E+02  0.00000000000E+00 0.  1.
         11    1    4    4    0    0  0.30606162511E+01  0.25396204203E+02 -0.36986955174E+02  0.44970761755E+02  0.00000000000E+00 0. -1.
</event>
<event>
 8    1  0.6901948E-009  0.2064838E+03  0.7561462E-02  0.1144381E+00
          1   -1    0    0  501    0  0.00000000000E+00  0.00000000000E+00  0.25340604275E+03  0.25340604275E+03  0.00000000000E+00 0. -1.
         -1   -1    0    0    0  501 -0.00000000000E+00 -0.00000000000E+00 -0.19354246893E+03  0.19354246893E+03  0.00000000000E+00 0.  1.
         25    2    1    2    0    0 -0.18368598990E+02 -0.18921237409E+03  0.82984624909E+02  0.24221549975E+03  0.12507266852E+03 0.  0.
         23    2    1    2    0    0  0.18368598990E+02  0.18921237409E+03 -0.23121051086E+02  0.20473301193E+03  0.72403696254E+02 0.  0.
          5    1    3    3  502    0  0.28838185921E+02 -0.44398312507E+01  0.34538414156E+02  0.45406249802E+02  0.41800000000E+01 0.  1.
         -5    1    3    3    0  502 -0.47206784911E+02 -0.18477254284E+03  0.48446210753E+02  0.19680924995E+03  0.41800000000E+01 0.  1.
        -11    1    4    4    0    0  0.26507645434E+02  0.11180570046E+03 -0.45748274432E+02  0.12367730000E+03  0.00000000000E+00 0.  1.
         11    1    4    4    0    0 -0.81390464440E+01  0.77406673626E+02  0.22627223346E+02  0.81055711923E+02  0.00000000000E+00 0. -1.
</event>
<event>
 8    1  0.6901948E-009  0.1323661E+03  0.7561462E-02  0.1223987E+00
          2   -1    0    0  501    0  0.00000000000E+00  0.00000000000E+00  0.15691281681E+03  0.15691281681E+03  0.00000000000E+00 0. -1.
         -2   -1    0    0    0  501 -0.00000000000E+00 -0.00000000000E+00 -0.13719697474E+03  0.13719697474E+03  0.00000000000E+00 0.  1.
         25    2    1    2    0    0  0.89288419271E+02 -0.34292940617E+02  0.11924293805E+01  0.15747066036E+03  0.12508860618E+03 0.  0.
         23    2    1    2    0    0 -0.89288419271E+02  0.34292940617E+02  0.18523412688E+02  0.13663913119E+03  0.95805572718E+02 0.  0.
          5    1    3    3  502    0 -0.28842032468E+02  0.10437758281E+02 -0.22622014900E+01  0.31038678941E+02  0.41800000000E+01 0. -1.
         -5    1    3    3    0  502  0.11813045174E+03 -0.44730698898E+02  0.34546308705E+01  0.12643198142E+03  0.41800000000E+01 0. -1.
        -11    1    4    4    0    0 -0.58669619972E+01 -0.11000198240E+02 -0.28204462042E+02  0.30836946727E+02  0.00000000000E+00 0.  1.
         11    1    4    4    0    0 -0.83421457274E+02  0.45293138857E+02  0.46727874730E+02  0.10580218447E+03  0.00000000000E+00 0. -1.
</event>
<event>
 8    1  0.6901948E-009  0.1088521E+03  0.7561462E-02  0.1262710E+00
         -2   -1    0    0    0  501 -0.00000000000E+00  0.00000000000E+00  0.11885458085E+02  0.11885458085E+02  0.00000000000E+00 0.  1.
          2   -1    0    0  501    0  0.00000000000E+00 -0.00000000000E+00 -0.33157489299E+04  0.33157489299E+04  0.00000000000E+00 0. -1.
         25    2    1    2    0    0  0.28778366646E+02 -0.41670348591E+02 -0.30519560604E+04  0.30549380276E+04  0.12508375373E+03 0.  0.
         23    2    1    2    0    0 -0.28778366646E+02  0.41670348591E+02 -0.25190741148E+03  0.27269636046E+03  0.91330984407E+02 0.  0.
          5    1    3    3  502    0 -0.22866730053E+02 -0.69454250651E+02 -0.19996383635E+04  0.20009792196E+04  0.41800000000E+01 0.  1.
         -5    1    3    3    0  502  0.51645096699E+02  0.27783902060E+02 -0.10523176969E+04  0.10539588080E+04  0.41800000000E+01 0.  1.
        -11    1    4    4    0    0 -0.39043746804E+02 -0.36384356820E+01 -0.19657152857E+03  0.20044455149E+03  0.00000000000E+00 0. -1.
         11    1    4    4    0    0  0.10265380158E+02  0.45308784273E+02 -0.55335882909E+02  0.72251808970E+02  0.00000000000E+00 0.  1.
</event>
<event>
 8    1  0.6901948E-009  0.1625064E+03  0.7561462E-02  0.1185896E+00
          4   -1    0    0  501    0  0.00000000000E+00  0.00000000000E+00  0.43603679750E+03  0.43603679750E+03  0.00000000000E+00 0. -1.
         -4   -1    0    0    0  501 -0.00000000000E+00 -0.00000000000E+00 -0.78212019757E+02  0.78212019757E+02  0.00000000000E+00 0.  1.
         25    2    1    2    0    0  0.91743401691E+02 -0.88712577936E+02  0.76931295600E+02  0.19455601619E+03  0.12508735331E+03 0.  0.
         23    2    1    2    0    0 -0.91743401691E+02  0.88712577936E+02  0.28089348214E+03  0.31969280106E+03  0.83758972669E+02 0.  0.
          5    1    3    3  502    0 -0.10374523010E+02  0.22358325655E+02  0.23862781723E+02  0.34560529587E+02  0.41800000000E+01 0.  1.
         -5    1    3    3    0  502  0.10211792470E+03 -0.11107090359E+03  0.53068513876E+02  0.15999548661E+03  0.41800000000E+01 0.  1.
        -11    1    4    4    0    0 -0.61115720954E+02  0.99358145316E+02  0.18743485862E+03  0.22076910702E+03  0.00000000000E+00 0.  1.
         11    1    4    4    0    0 -0.30627680736E+02 -0.10645567380E+02  0.93458623527E+02  0.98923694046E+02  0.00000000000E+00 0. -1.
</event>
<event>
 8    1  0.6901948E-009  0.2237841E+03  0.7561462E-02  0.1131093E+00
         -1   -1    0    0    0  501 -0.00000000000E+00  0.00000000000E+00  0.38388589557E+02  0.38388589557E+02  0.00000000000E+00 0.  1.
          1   -1    0    0  501    0  0.00000000000E+00 -0.00000000000E+00 -0.13654249765E+04  0.13654249765E+04  0.00000000000E+00 0. -1.
         25    2    1    2    0    0 -0.11710601289E+03 -0.15923436522E+03 -0.78301337022E+03  0.81720736518E+03  0.12509411828E+03 0.  0.
         23    2    1    2    0    0  0.11710601289E+03  0.15923436522E+03 -0.54402301674E+03  0.58660620090E+03  0.95270094307E+02 0.  0.
          5    1    3    3  502    0 -0.10960948684E+03 -0.53080850098E+02 -0.50497447708E+03  0.51946945161E+03  0.41800000000E+01 0. -1.
         -5    1    3    3    0  502 -0.74965260549E+01 -0.10615351512E+03 -0.27803889314E+03  0.29773791357E+03  0.41800000000E+01 0. -1.
        -11    1    4    4    0    0  0.95271681390E+02  0.49574212540E+02 -0.27939842636E+03  0.29932887678E+03  0.00000000000E+00 0. -1.
         11    1    4    4    0    0  0.21834331502E+02  0.10966015268E+03 -0.26462459037E+03  0.28727732411E+03  0.00000000000E+00 0.  1.
</event>
<event>
 8    1  0.6901948E-009  0.1246122E+03  0.7561462E-02  0.1235677E+00
          1   -1    0    0  501    0  0.00000000000E+00  0.00000000000E+00  0.89704449049E+03  0.89704449049E+03  0.00000000000E+00 0. -1.
         -1   -1    0    0    0  501 -0.00000000000E+00 -0.00000000000E+00 -0.30396187417E+02  0.30396187417E+02  0.00000000000E+00 0.  1.
         25    2    1    2    0    0 -0.86436892438E+02  0.88839538785E+02  0.44926951372E+03  0.48254916928E+03  0.12508718874E+03 0.  0.
         23    2    1    2    0    0  0.86436892438E+02 -0.88839538785E+02  0.41737878935E+03  0.44489150863E+03  0.91430851589E+02 0.  0.
          5    1    3    3  502    0 -0.36352420901E+02  0.38607049613E+02  0.38462002567E+02  0.65641456615E+02  0.41800000000E+01 0.  1.
         -5    1    3    3    0  502 -0.50084471537E+02  0.50232489173E+02  0.41080751115E+03  0.41690771266E+03  0.41800000000E+01 0.  1.
        -11    1    4    4    0    0  0.48714757561E+02 -0.38628215670E+02  0.77976146554E+02  0.99727358741E+02  0.00000000000E+00 0.  1.
         11    1    4    4    0    0  0.37722134877E+02 -0.50211323115E+02  0.33940264280E+03  0.34516414988E+03  0.00000000000E+00 0. -1.
</event>
<event>
 8    1  0.6901948E-009  0.1406706E+03  0.7561462E-02  0.1212429E+00
         -2   -1    0    0    0  501 -0.00000000000E+00  0.00000000000E+00  0.18396677223E+02  0.18396677223E+02  0.00000000000E+00 0.  1.
          2   -1    0    0  501    0  0.00000000000E+00 -0.00000000000E+00 -0.12067947359E+04  0.12067947359E+04  0.00000000000E+00 0. -1.
         25    2    1    2    0    0  0.50736942854E+02  0.80252043897E+02 -0.48609933151E+03  0.51083822273E+03  0.12509397183E+03 0.  0.
         23    2    1    2    0    0 -0.50736942854E+02 -0.80252043897E+02 -0.70229872713E+03  0.71435319036E+03  0.89790592627E+02 0.  0.
          5    1    3    3  502    0 -0.14777924748E+02  0.83536612058E+02 -0.34307895696E+03  0.35343655120E+03  0.41800000000E+01 0. -1.
         -5    1    3    3    0  502  0.65514867602E+02 -0.32845681612E+01 -0.14302037456E+03  0.15740167154E+03  0.41800000000E+01 0. -1.
        -11    1    4    4    0    0 -0.46720127985E+01 -0.84302466978E+02 -0.45657531247E+03  0.46431643261E+03  0.00000000000E+00 0. -1.
         11    1    4    4    0    0 -0.46064930055E+02  0.40504230809E+01 -0.24572341466E+03  0.25003675774E+03  0.00000000000E+00 0.  1.
</event>
<event>
 8    1  0.6901948E-009  0.9992081E+02  0.7561462E-02  0.1280463E+00
         -1   -1    0    0    0  501 -0.00000000000E+00  0.00000000000E+00  0.62184703927E+02  0.62184703927E+02  0.00000000000E+00 0.  1.
          1   -1    0    0  501    0  0.00000000000E+00 -0.00000000000E+00 -0.22880655288E+03  0.22880655288E+03  0.00000000000E+00 0. -1.
         25    2    1    2    0    0 -0.26395915656E+02 -0.96298267758E-01 -0.14784481944E+03  0.19544170001E+03  0.12507043549E+03 0.  0.
         23    2    1    2    0    0  0.26395915656E+02  0.96298267758E-01 -0.18777029522E+02  0.95549556796E+02  0.89890974684E+02 0.  0.
          5    1    3    3  502    0  0.37995325922E+02  0.30671956470E+02 -0.93775147838E+02  0.10580956695E+03  0.41800000000E+01 0.  1.
         -5    1    3    3    0  502 -0.64391241578E+02 -0.30768254738E+02 -0.54069671597E+02  0.89632133067E+02  0.41800000000E+01 0.  1.
        -11    1    4    4    0    0 -0.82715213968E+01 -0.31421878860E+02 -0.33271704919E+02  0.46505471565E+02  0.00000000000E+00 0. -1.
         11    1    4    4    0    0  0.34667437053E+02  0.31518177128E+02  0.14494675396E+02  0.49044085231E+02  0.00000000000E+00 0.  1.
</event>
<event>
 8    1  0.6901948E-009  0.1407757E+03  0.7561462E-02  0.1212289E+00
          2   -1    0    0  501    0  0.00000000000E+00  0.00000000000E+00  0.62279999637E+03  0.62279999637E+03  0.00000000000E+00 0. -1.
         -2   -1    0    0    0  501 -0.00000000000E+00 -0.00000000000E+00 -0.41758798428E+02  0.41758798428E+02  0.00000000000E+00 0.  1.
         25    2    1    2    0    0 -0.50333542782E+02 -0.80068974165E+02  0.16307793533E+03  0.22624416449E+03  0.12508997890E+03 0.  0.
         23    2    1    2    0    0  0.50333542782E+02  0.80068974165E+02  0.41796326262E+03  0.43831463031E+03  0.92097340317E+02 0.  0.
          5    1    3    3  502    0  0.23074764190E+02  0.16337645667E+02  0.85579802414E+01  0.29834121978E+02  0.41800000000E+01 0.  1.
         -5    1    3    3    0  502 -0.73408306972E+02 -0.96406619832E+02  0.15451995509E+03  0.19641004251E+03  0.41800000000E+01 0.  1.
        -11    1    4    4    0    0 -0.26748947400E+02  0.27883385112E+02  0.10988976599E+03  0.11648497767E+03  0.00000000000E+00 0.  1.
         11    1    4    4    0    0  0.77082490182E+02  0.52185589053E+02  0.30807349663E+03  0.32182965264E+03  0.00000000000E+00 0. -1.
</event>
<event>
 8    1  0.6901948E-009  0.1222652E+03  0.7561462E-02  0.1239406E+00
          1   -1    0    0  501    0  0.00000000000E+00  0.00000000000E+00  0.41741143673E+03  0.41741143673E+03  0.00000000000E+00 0. -1.
         -1   -1    0    0    0  501 -0.00000000000E+00 -0.00000000000E+00 -0.62226352478E+02  0.62226352478E+02  0.00000000000E+00 0.  1.
         25    2    1    2    0    0  0.89248069610E+02  0.40940600567E+01  0.30450824111E+03  0.34110679946E+03  0.12508637206E+03 0.  0.
         23    2    1    2    0    0 -0.89248069610E+02 -0.40940600567E+01  0.50676843140E+02  0.13853098975E+03  0.92955437891E+02 0.  0.
          5    1    3    3  502    0  0.95994944306E+02 -0.19915773777E+02  0.29971357989E+03  0.31536862518E+03  0.41800000000E+01 0. -1.
         -5    1    3    3    0  502 -0.67468746966E+01  0.24009833834E+02  0.47946612210E+01  0.25738174277E+02  0.41800000000E+01 0. -1.
        -11    1    4    4    0    0 -0.36227519180E+02  0.38676489254E+02 -0.10381036356E+01  0.53003600124E+02  0.00000000000E+00 0.  1.
         11    1    4    4    0    0 -0.53020550430E+02 -0.42770549311E+02  0.51714946775E+02  0.85527389626E+02  0.00000000000E+00 0. -1.
</event>
<event>
 8    1  0.6901948E-009  0.8946911E+02  0.7561462E-02  0.1304142E+00
          1   -1    0    0  501    0  0.00000000000E+00  0.00000000000E+00  0.59231042133E+02  0.59231042133E+02  0.00000000000E+00 0. -1.
         -1   -1    0    0    0  501 -0.00000000000E+00 -0.00000000000E+00 -0.26750585271E+03  0.26750585271E+03  0.00000000000E+00 0.  1.
         25    2    1    2    0    0 -0.37100484364E+00  0.18547176793E+02 -0.19449679238E+03  0.23199954514E+03  0.12510256308E+03 0.  0.
         23    2    1    2    0    0  0.37100484364E+00 -0.18547176793E+02 -0.13778018202E+02  0.94737349702E+02  0.91875982886E+02 0.  0.
          5    1    3    3  502    0  0.47540387453E+02  0.45236670397E+02 -0.70803373192E+02  0.96628333542E+02  0.41800000000E+01 0. -1.
         -5    1    3    3    0  502 -0.47911392297E+02 -0.26689493604E+02 -0.12369341918E+03  0.13537121160E+03  0.41800000000E+01 0. -1.
        -11    1    4    4    0    0  0.18714842069E+02 -0.30856166690E+02  0.29195022768E+02  0.46418721341E+02  0.00000000000E+00 0. -1.
         11    1    4    4    0    0 -0.18343837226E+02  0.12308989898E+02 -0.42973040970E+02  0.48318628361E+02  0.00000000000E+00 0.  1.
</event>
<event>
 8    1  0.6901948E-009  0.1010953E+03  0.7561462E-02  0.1278009E+00
          2   -1    0    0  501    0  0.00000000000E+00  0.00000000000E+00  0.71800955109E+02  0.71800955109E+02  0.00000000000E+00 0. -1.
         -2   -1    0    0    0  501 -0.00000000000E+00 -0.00000000000E+00 -0.33160492555E+03  0.33160492555E+03  0.00000000000E+00 0.  1.
         25    2    1    2    0    0  0.89922894942E+02  0.21832042938E+02 -0.20930514568E+03  0.26080450152E+03  0.12509028289E+03 0.  0.
         23    2    1    2    0    0 -0.89922894942E+02 -0.21832042938E+02 -0.50498824767E+02  0.14260137914E+03  0.96032582471E+02 0.  0.
          5    1    3    3  502    0  0.63825906856E+02  0.26071297048E+02 -0.22103783335E+03  0.23157861535E+03  0.41800000000E+01 0. -1.
         -5    1    3    3    0  502  0.26096988087E+02 -0.42392541107E+01  0.11732687671E+02  0.29225886173E+02  0.41800000000E+01 0. -1.
        -11    1    4    4    0    0 -0.42862430656E+02 -0.37294099394E+02 -0.69304174931E+02  0.89616440870E+02  0.00000000000E+00 0.  1.
         11    1    4    4    0    0 -0.47060464286E+02  0.15462056457E+02  0.18805350163E+02  0.52984938270E+02  0.00000000000E+00 0. -1.
</event>
<event>
 8    1  0.6901948E-009  0.9239841E+02  0.7561462E-02  0.1297145E+00
          1   -1    0    0  501    0  0.00000000000E+00  0.00000000000E+00  0.52542463511E+02  0.52542463511E+02  0.00000000000E+00 0. -1.
         -1   -1    0    0    0  501 -0.00000000000E+00 -0.00000000000E+00 -0.36390711706E+03  0.36390711706E+03  0.00000000000E+00 0.  1.
         25    2    1    2    0    0 -0.12280038578E+01  0.69163333236E+02 -0.95039514594E+02  0.17165904161E+03  0.12509693271E+03 0.  0.
         23    2    1    2    0    0  0.12280038578E+01 -0.69163333236E+02 -0.21632513895E+03  0.24479053896E+03  0.91327802809E+02 0.  0.
          5    1    3    3  502    0  0.16242584811E+02  0.27403318637E+02  0.26658083802E+02  0.41747925286E+02  0.41800000000E+01 0. -1.
         -5    1    3    3    0  502 -0.17470588669E+02  0.41760014599E+02 -0.12169759840E+03  0.12991111632E+03  0.41800000000E+01 0. -1.
        -11    1    4    4    0    0 -0.36416249541E+02 -0.11210512904E+02 -0.12232278852E+03  0.12811980105E+03  0.00000000000E+00 0.  1.
         11    1    4    4    0    0  0.37644253399E+02 -0.57952820332E+02 -0.94002350434E+02  0.11667073791E+03  0.00000000000E+00 0. -1.
</event>
<event>
 8    1  0.6901948E-009  0.7681044E+02  0.7561462E-02  0.1338355E+00
         -2   -1    0    0    0  501 -0.00000000000E+00  0.00000000000E+00  0.18791540960E+03  0.18791540960E+03  0.00000000000E+00 0. -1.
          2   -1    0    0  501    0  0.00000000000E+00 -0.00000000000E+00 -0.67712260378E+02  0.67712260378E+02  0.00000000000E+00 0.  1.
         25    2    1    2    0    0  0.16348239196E+02 -0.29864876636E+02  0.79593101707E+02  0.15212155971E+03  0.12508689503E+03 0.  0.
         23    2    1    2    0    0 -0.16348239196E+02  0.29864876636E+02  0.40610047512E+02  0.10350611026E+03  0.88910984259E+02 0.  0.
          5    1    3    3  502    0  0.39527045090E+02 -0.30044176149E+02 -0.17041028785E+02  0.52658416954E+02  0.41800000000E+01 0.  1.
         -5    1    3    3    0  502 -0.23178805894E+02  0.17929951354E+00  0.96634130492E+02  0.99463142756E+02  0.41800000000E+01 0.  1.
        -11    1    4    4    0    0  0.36086476670E+01 -0.23236466587E+02  0.40438115577E+02  0.46778167010E+02  0.00000000000E+00 0. -1.
         11    1    4    4    0    0 -0.19956886863E+02  0.53101343223E+02  0.17193193497E+00  0.56727943255E+02  0.00000000000E+00 0.  1.
</event>
<event>
 8    1  0.6901948E-009  0.1185522E+03  0.7561462E-02  0.1245505E+00
         -2   -1    0    0    0  501 -0.00000000000E+00  0.00000000000E+00  0.59831235384E+02  0.59831235384E+02  0.00000000000E+00 0.  1.
          2   -1    0    0  501    0  0.00000000000E+00 -0.00000000000E+00 -0.40764374193E+03  0.40764374193E+03  0.00000000000E+00 0. -1.
         25    2    1    2    0    0 -0.90960866525E+02 -0.23013126703E+02 -0.98181127571E+02  0.18463710172E+03  0.12509133575E+03 0.  0.
         23    2    1    2    0    0  0.90960866525E+02  0.23013126703E+02 -0.24963137897E+03  0.28283787559E+03  0.94222902011E+02 0.  0.
          5    1    3    3  502    0  0.19126224242E+02 -0.15349095446E+02 -0.64579664332E+02  0.69205582361E+02  0.41800000000E+01 0.  1.
         -5    1    3    3    0  502 -0.11008709077E+03 -0.76640312570E+01 -0.33601463240E+02  0.11543151935E+03  0.41800000000E+01 0.  1.
        -11    1    4    4    0    0  0.69025331847E+02 -0.13143858475E+01 -0.23842235800E+03  0.24821652814E+03  0.00000000000E+00 0. -1.
         11    1    4    4    0    0  0.21935534678E+02  0.24327512551E+02 -0.11209020972E+02  0.34621347456E+02  0.00000000000E+00 0.  1.
</event>
<event>
 8    1  0.6901948E-009  0.1505324E+03  0.7561462E-02  0.1199820E+00
          2   -1    0    0  501    0  0.00000000000E+00  0.00000000000E+00  0.66574111373E+03  0.66574111373E+03  0.00000000000E+00 0. -1.
         -2   -1    0    0    0  501 -0.00000000000E+00 -0.00000000000E+00 -0.35597811656E+02  0.35597811656E+02  0.00000000000E+00 0.  1.
         25    2    1    2    0    0  0.92615007171E+01 -0.10549115267E+03  0.41092548080E+03  0.44240407153E+03  0.12508977994E+03 0.  0.
         23    2    1    2    0    0 -0.92615007171E+01  0.10549115267E+03  0.21921782127E+03  0.25893485386E+03  0.88185297470E+02 0.  0.
          5    1    3    3  502    0  0.63683741176E+02 -0.82132553393E+02  0.27804387878E+03  0.29686233534E+03  0.41800000000E+01 0.  1.
         -5    1    3    3    0  502 -0.54422240459E+02 -0.23358599281E+02  0.13288160202E+03  0.14554173618E+03  0.41800000000E+01 0.  1.
        -11    1    4    4    0    0  0.39283190495E+02  0.55519032207E+02  0.10274247127E+03  0.12321342214E+03  0.00000000000E+00 0. -1.
         11    1    4    4    0    0 -0.48544691212E+02  0.49972120466E+02  0.11647535000E+03  0.13572143171E+03  0.00000000000E+00 0.  1.
</event>
<event>
 8    1  0.6901948E-009  0.1454116E+03  0.7561462E-02  0.1206227E+00
         -2   -1    0    0    0  501 -0.00000000000E+00  0.00000000000E+00  0.69945507934E+02  0.69945507934E+02  0.00000000000E+00 0.  1.
          2   -1    0    0  501    0  0.00000000000E+00 -0.00000000000E+00 -0.43508147320E+03  0.43508147320E+03  0.00000000000E+00 0. -1.
         25    2    1    2    0    0 -0.96579215165E+02  0.16145709356E+01 -0.32729467008E+03  0.36345521468E+03  0.12509092844E+03 0.  0.
         23    2    1    2    0    0  0.96579215165E+02 -0.16145709356E+01 -0.37841295191E+02  0.14157176646E+03  0.96335091188E+02 0.  0.
          5    1    3    3  502    0  0.15990061169E+02 -0.35277573211E+02 -0.68418384012E+02  0.78732057630E+02  0.41800000000E+01 0.  1.
         -5    1    3    3    0  502 -0.11256927633E+03  0.36892144147E+02 -0.25887628607E+03  0.28472315705E+03  0.41800000000E+01 0.  1.
        -11    1    4    4    0    0  0.11485629960E+03  0.10533353815E+01 -0.21387823743E+02  0.11683543160E+03  0.00000000000E+00 0. -1.
         11    1    4    4    0    0 -0.18277084431E+02 -0.26679063172E+01 -0.16453471449E+02  0.24736334856E+02  0.00000000000E+00 0.  1.
</event>
<event>
 8    1  0.6901948E-009  0.9177789E+02  0.7561462E-02  0.1298603E+00
         -2   -1    0    0    0  501 -0.00000000000E+00  0.00000000000E+00  0.16626062434E+02  0.16626062434E+02  0.00000000000E+00 0.  1.
          2   -1    0    0  501    0  0.00000000000E+00 -0.00000000000E+00 -0.92836510638E+03  0.92836510638E+03  0.00000000000E+00 0. -1.
         25    2    1    2    0    0 -0.18191502023E+02 -0.26986320341E+02 -0.69998001019E+03  0.71181310839E+03  0.12508674739E+03 0.  0.
         23    2    1    2    0    0  0.18191502023E+02  0.26986320341E+02 -0.21175903375E+03  0.23317806042E+03  0.92037640431E+02 0.  0.
          5    1    3    3  502    0 -0.23880667335E+02  0.40083161843E+02 -0.13655957477E+03  0.14437082807E+03  0.41800000000E+01 0. -1.
         -5    1    3    3    0  502  0.56891653119E+01 -0.67069482185E+02 -0.56342043542E+03  0.56744228032E+03  0.41800000000E+01 0. -1.
        -11    1    4    4    0    0 -0.17646316551E+01  0.43397703917E+02 -0.20022708841E+03  0.20488377574E+03  0.00000000000E+00 0. -1.
         11    1    4    4    0    0  0.19956133678E+02 -0.16411383576E+02 -0.11531945345E+02  0.28294284682E+02  0.00000000000E+00 0.  1.
</event>
<event>
 8    1  0.6901948E-009  0.9683152E+02  0.7561462E-02  0.1287104E+00
          1   -1    0    0  501    0  0.00000000000E+00  0.00000000000E+00  0.18642898352E+03  0.18642898352E+03  0.00000000000E+00 0. -1.
         -1   -1    0    0    0  501 -0.00000000000E+00 -0.00000000000E+00 -0.82102257803E+02  0.82102257803E+02  0.00000000000E+00 0.  1.
         25    2    1    2    0    0 -0.37829955225E+02  0.22401214005E+02  0.13887959995E+02  0.13331658206E+03  0.12509003045E+03 0.  0.
         23    2    1    2    0    0  0.37829955225E+02 -0.22401214005E+02  0.90438765722E+02  0.13521465926E+03  0.90393107218E+02 0.  0.
          5    1    3    3  502    0 -0.87224542175E+01 -0.38408058606E+02  0.44140323693E+02  0.59305149433E+02  0.41800000000E+01 0.  1.
         -5    1    3    3    0  502 -0.29107501007E+02  0.60809272611E+02 -0.30252363699E+02  0.74011432629E+02  0.41800000000E+01 0.  1.
        -11    1    4    4    0    0  0.48080546812E+02 -0.42355813353E+02  0.92675580824E+02  0.11266994802E+03  0.00000000000E+00 0. -1.
         11    1    4    4    0    0 -0.10250591587E+02  0.19954599348E+02 -0.22368151012E+01  0.22544711238E+02  0.00000000000E+00 0.  1.
</event>
<event>
 8    1  0.6901948E-009  0.1517431E+03  0.7561462E-02  0.1198347E+00
         -2   -1    0    0    0  501 -0.00000000000E+00  0.00000000000E+00  0.41870968353E+02  0.41870968353E+02  0.00000000000E+00 0.  1.
          2   -1    0    0  501    0  0.00000000000E+00 -0.00000000000E+00 -0.12624425496E+04  0.12624425496E+04  0.00000000000E+00 0. -1.
         25    2    1    2    0    0  0.12963534807E+03  0.68569820982E+02 -0.10255061146E+04  0.10434642834E+04  0.12509107039E+03 0.  0.
         23    2    1    2    0    0 -0.12963534807E+03 -0.68569820982E+02 -0.19506546667E+03  0.26084923454E+03  0.92112122218E+02 0.  0.
          5    1    3    3  502    0  0.39145428898E+02  0.70336938836E+01 -0.62157343358E+02  0.73911062681E+02  0.41800000000E+01 0. -1.
         -5    1    3    3    0  502  0.90489919167E+02  0.61536127098E+02 -0.96334877126E+03  0.96955322077E+03  0.41800000000E+01 0. -1.
        -11    1    4    4    0    0 -0.92210693357E+02 -0.23036854778E+02 -0.57239724094E+02  0.11094996468E+03  0.00000000000E+00 0.  1.
         11    1    4    4    0    0 -0.37424654708E+02 -0.45532966204E+02 -0.13782574257E+03  0.14989926987E+03  0.00000000000E+00 0. -1.
</event>
<event>
 8    1  0.6901948E-009  0.1102166E+03  0.7561462E-02  0.1260169E+00
          1   -1    0    0  501    0  0.00000000000E+00  0.00000000000E+00  0.99017061161E+02  0.99017061161E+02  0.00000000000E+00 0. -1.
         -1   -1    0    0    0  501 -0.00000000000E+00 -0.00000000000E+00 -0.15747892333E+03  0.15747892333E+03  0.00000000000E+00 0.  1.
         25    2    1    2    0    0  0.55450093231E+02  0.97897347662E+01 -0.50761548558E+02  0.14626963826E+03  0.12509004963E+03 0.  0.
         23    2    1    2    0    0 -0.55450093231E+02 -0.97897347662E+01 -0.77003136144E+01  0.11022634624E+03  0.94445756013E+02 0.  0.
          5    1    3    3  502    0  0.73376502184E+02  0.51019442271E+02 -0.46732521658E+02  0.10093807776E+03  0.41800000000E+01 0. -1.
         -5    1    3    3    0  502 -0.17926408953E+02 -0.41229707504E+02 -0.40290269001E+01  0.45331560492E+02  0.41800000000E+01 0. -1.
        -11    1    4    4    0    0 -0.74697117621E+01  0.25293930996E+02  0.29918254764E+02  0.39883348746E+02  0.00000000000E+00 0. -1.
         11    1    4    4    0    0 -0.47980381469E+02 -0.35083665762E+02 -0.37618568379E+02  0.70342997491E+02  0.00000000000E+00 0.  1.
</event>
<event>
 8    1  0.6901948E-009  0.8563795E+02  0.7561462E-02  0.1313773E+00
         -2   -1    0    0    0  501 -0.00000000000E+00  0.00000000000E+00  0.60327190694E+02  0.60327190694E+02  0.00000000000E+00 0.  1.
          2   -1    0    0  501    0  0.00000000000E+00 -0.00000000000E+00 -0.30833299244E+03  0.30833299244E+03  0.00000000000E+00 0. -1.
         25    2    1    2    0    0  0.58881655693E+02 -0.42437554629E+02 -0.19313709642E+03  0.24128169640E+03  0.12508766360E+03 0.  0.
         23    2    1    2    0    0 -0.58881655693E+02  0.42437554629E+02 -0.54868705323E+02  0.12737848673E+03  0.89144313550E+02 0.  0.
          5    1    3    3  502    0  0.60035709871E+02 -0.40961880470E+02 -0.21080950982E+03  0.22302529888E+03  0.41800000000E+01 0. -1.
         -5    1    3    3    0  502 -0.11540541782E+01 -0.14756741595E+01  0.17672413394E+02  0.18256397521E+02  0.41800000000E+01 0. -1.
        -11    1    4    4    0    0  0.49980460036E+01 -0.10046772166E+02 -0.42287848196E+02  0.43751345121E+02  0.00000000000E+00 0. -1.
         11    1    4    4    0    0 -0.63879701696E+02  0.52484326795E+02 -0.12580857126E+02  0.83627141611E+02  0.00000000000E+00 0.  1.
</event>
<event>
 8    1  0.6901948E-009  0.2995420E+03  0.7561462E-02  0.1085470E+00
         -1   -1    0    0    0  501 -0.00000000000E+00  0.00000000000E+00  0.26516322395E+03  0.26516322395E+03  0.00000000000E+00 0.  1.
          1   -1    0    0  501    0  0.00000000000E+00 -0.00000000000E+00 -0.36341255839E+03  0.36341255839E+03  0.00000000000E+00 0. -1.
         25    2    1    2    0    0 -0.14654773586E+03  0.24869048020E+03 -0.31441875116E+02  0.31616327021E+03  0.12508968022E+03 0.  0.
         23    2    1    2    0    0  0.14654773586E+03 -0.24869048020E+03 -0.66807459321E+02  0.31241251213E+03  0.99071425182E+02 0.  0.
          5    1    3    3  502    0 -0.11366288744E+03  0.11604856101E+03 -0.65606886370E+02  0.17523771407E+03  0.41800000000E+01 0. -1.
         -5    1    3    3    0  502 -0.32884848422E+02  0.13264191919E+03  0.34165011254E+02  0.14092555615E+03  0.41800000000E+01 0. -1.
        -11    1    4    4    0    0  0.61686493838E+02 -0.37313116832E+02  0.83075814400E+01  0.72570711166E+02  0.00000000000E+00 0.  1.
         11    1    4    4    0    0  0.84861242021E+02 -0.21137736336E+03 -0.75115040761E+02  0.23984180096E+03  0.00000000000E+00 0. -1.
</event>
<event>
 8    1  0.6901948E-009  0.1086659E+03  0.7561462E-02  0.1263061E+00
          1   -1    0    0  501    0  0.00000000000E+00  0.00000000000E+00  0.29261736519E+03  0.29261736519E+03  0.00000000000E+00 0. -1.
         -1   -1    0    0    0  501 -0.00000000000E+00 -0.00000000000E+00 -0.50768921341E+02  0.50768921341E+02  0.00000000000E+00 0.  1.
         25    2    1    2    0    0 -0.44321509342E+02 -0.26283450612E+02  0.17187888547E+03  0.21873207108E+03  0.12508457812E+03 0.  0.
         23    2    1    2    0    0  0.44321509342E+02  0.26283450612E+02  0.69969558377E+02  0.12465421545E+03  0.89374036292E+02 0.  0.
          5    1    3    3  502    0  0.10705695117E+02  0.44239033064E+02  0.60154250203E+02  0.75549388958E+02  0.41800000000E+01 0. -1.
         -5    1    3    3    0  502 -0.55027204460E+02 -0.70522483676E+02  0.11172463527E+03  0.14318268212E+03  0.41800000000E+01 0. -1.
        -11    1    4    4    0    0  0.27278271272E+02  0.47552431358E+02  0.60343909699E+01  0.55152077803E+02  0.00000000000E+00 0.  1.
         11    1    4    4    0    0  0.17043238070E+02 -0.21268980746E+02  0.63935167407E+02  0.69502137645E+02  0.00000000000E+00 0. -1.
</event>
<event>
 8    1  0.6901948E-009  0.1198682E+03  0.7561462E-02  0.1243315E+00
          2   -1    0    0  501    0  0.00000000000E+00  0.00000000000E+00  0.57909339821E+03  0.57909339821E+03  0.00000000000E+00 0.  1.
         -2   -1    0    0    0  501 -0.00000000000E+00 -0.00000000000E+00 -0.32763182812E+02  0.32763182812E+02  0.00000000000E+00 0. -1.
         25    2    1    2    0    0  0.55300700354E+02 -0.62300291829E+02  0.26242885989E+03  0.30241780416E+03  0.12509247758E+03 0.  0.
         23    2    1    2    0    0 -0.55300700354E+02  0.62300291829E+02  0.28390135551E+03  0.30943877687E+03  0.90624958743E+02 0.  0.
          5    1    3    3  502    0  0.46074488432E+02 -0.86854371145E+02  0.25715094171E+03  0.27533728315E+03  0.41800000000E+01 0. -1.
         -5    1    3    3    0  502  0.92262119217E+01  0.24554079315E+02  0.52779181762E+01  0.27080521002E+02  0.41800000000E+01 0. -1.
        -11    1    4    4    0    0  0.17222406706E+02 -0.26340737168E+01  0.13475681931E+02  0.22025976496E+02  0.00000000000E+00 0. -1.
         11    1    4    4    0    0 -0.72523107060E+02  0.64934365546E+02  0.27042567358E+03  0.28741280037E+03  0.00000000000E+00 0.  1.
</event>
<event>
 8    1  0.6901948E-009  0.8439676E+02  0.7561462E-02  0.1317018E+00
          2   -1    0    0  501    0  0.00000000000E+00  0.00000000000E+00  0.15238332763E+03  0.15238332763E+03  0.00000000000E+00 0. -1.
         -2   -1    0    0    0  501 -0.00000000000E+00 -0.00000000000E+00 -0.78168596276E+02  0.78168596276E+02  0.00000000000E+00 0.  1.
         25    2    1    2    0    0 -0.80321256190E+01 -0.13509719623E+01  0.50979183138E+02  0.13532462039E+03  0.12509010993E+03 0.  0.
         23    2    1    2    0    0  0.80321256190E+01  0.13509719623E+01  0.23235548215E+02  0.95227303518E+02  0.91989175815E+02 0.  0.
          5    1    3    3  502    0 -0.44596181522E+02 -0.11184852336E+02 -0.23399594345E+02  0.51758417128E+02  0.41800000000E+01 0. -1.
         -5    1    3    3    0  502  0.36564055903E+02  0.98338803741E+01  0.74378777483E+02  0.83566203259E+02  0.41800000000E+01 0. -1.
        -11    1    4    4    0    0 -0.36993208376E+02  0.10778311753E+02  0.29865151756E+02  0.48750351380E+02  0.00000000000E+00 0. -1.
         11    1    4    4    0    0  0.45025333995E+02 -0.94273397903E+01 -0.66296035418E+01  0.46476952138E+02  0.00000000000E+00 0.  1.
</event>
<event>
 8    1  0.6901948E-009  0.1228394E+03  0.7561462E-02  0.1238485E+00
          2   -1    0    0  501    0  0.00000000000E+00  0.00000000000E+00  0.18272400510E+03  0.18272400510E+03  0.00000000000E+00 0. -1.
         -2   -1    0    0    0  501 -0.00000000000E+00 -0.00000000000E+00 -0.12185654531E+03  0.12185654531E+03  0.00000000000E+00 0.  1.
         25    2    1    2    0    0 -0.75688044496E+02  0.62887370143E+02  0.63788747024E+01  0.15929134923E+03  0.12509813146E+03 0.  0.
         23    2    1    2    0    0  0.75688044496E+02 -0.62887370143E+02  0.54488585086E+02  0.14528920117E+03  0.91958929249E+02 0.  0.
          5    1    3    3  502    0  0.43346107985E+01  0.66077392426E+02 -0.28026259417E+02  0.72027454887E+02  0.41800000000E+01 0.  1.
         -5    1    3    3    0  502 -0.80022655295E+02 -0.31900222838E+01  0.34405134119E+02  0.87263894346E+02  0.41800000000E+01 0.  1.
        -11    1    4    4    0    0  0.41193488306E+02 -0.41883247217E+02  0.78695195000E+02  0.98204091525E+02  0.00000000000E+00 0. -1.
         11    1    4    4    0    0  0.34494556190E+02 -0.21004122926E+02 -0.24206609914E+02  0.47085109644E+02  0.00000000000E+00 0.  1.
</event>
<event>
 8    1  0.6901948E-009  0.1157962E+03  0.7561462E-02  0.1250198E+00
          2   -1    0    0  501    0  0.00000000000E+00  0.00000000000E+00  0.13356974424E+04  0.13356974424E+04  0.00000000000E+00 0. -1.
         -2   -1    0    0    0  501 -0.00000000000E+00 -0.00000000000E+00 -0.14280581345E+02  0.14280581345E+02  0.00000000000E+00 0.  1.
         25    2    1    2    0    0  0.30188274634E+01  0.87453990178E+02  0.76395499466E+03  0.77905758854E+03  0.12508468601E+03 0.  0.
         23    2    1    2    0    0 -0.30188274634E+01 -0.87453990178E+02  0.55746186638E+03  0.57092043519E+03  0.86770370144E+02 0.  0.
          5    1    3    3  502    0 -0.44564940436E+01  0.96341545117E+02  0.30447915440E+03  0.31941600073E+03  0.41800000000E+01 0.  1.
         -5    1    3    3    0  502  0.74753215070E+01 -0.88875549395E+01  0.45947584026E+03  0.45964158782E+03  0.41800000000E+01 0.  1.
        -11    1    4    4    0    0 -0.42340176877E+02 -0.25777576837E+02  0.25131021231E+03  0.25615229231E+03  0.00000000000E+00 0. -1.
         11    1    4    4    0    0  0.39321349414E+02 -0.61676413341E+02  0.30615165407E+03  0.31476814288E+03  0.00000000000E+00 0.  1.
</event>
<event>
 8    1  0.6901948E-009  0.1254596E+03  0.7561462E-02  0.1234353E+00
          1   -1    0    0  501    0  0.00000000000E+00  0.00000000000E+00  0.13066599482E+04  0.13066599482E+04  0.00000000000E+00 0. -1.
         -1   -1    0    0    0  501 -0.00000000000E+00 -0.00000000000E+00 -0.31907137391E+02  0.31907137391E+02  0.00000000000E+00 0.  1.
         25    2    1    2    0    0 -0.66697595112E+02 -0.25081864323E+02  0.11809857395E+04  0.11897278718E+04  0.12508965896E+03 0.  0.
         23    2    1    2    0    0  0.66697595112E+02  0.25081864323E+02  0.93767071223E+02  0.14883921377E+03  0.91011970625E+02 0.  0.
          5    1    3    3  502    0 -0.18231217661E+02  0.46636773147E+02  0.62640004661E+03  0.62841217103E+03  0.41800000000E+01 0.  1.
         -5    1    3    3    0  502 -0.48466377451E+02 -0.71718637470E+02  0.55458569294E+03  0.56131570076E+03  0.41800000000E+01 0.  1.
        -11    1    4    4    0    0  0.88892862987E+02  0.22255252631E+02  0.64781257485E+02  0.11222231811E+03  0.00000000000E+00 0. -1.
         11    1    4    4    0    0 -0.22195267875E+02  0.28266116921E+01  0.28985813738E+02  0.36616895660E+02  0.00000000000E+00 0.  1.
</event>
<event>
 7    1  0.6901948E-009  0.1486235E+03  0.7561462E-02  0.1202175E+00
          1   -1    0    0  501    0  0.00000000000E+00  0.00000000000E+00  0.18415465229E+03  0.18415465229E+03  0.00000000000E+00 0. -1.
         -1   -1    0    0    0  501 -0.00000000000E+00 -0.00000000000E+00 -0.18433216712E+03  0.18433216712E+03  0.00000000000E+00 0.  1.
         23    2    1    2    0    0 -0.42685258518E+01 -0.12372134098E+03 -0.80272146676E+02  0.17506833798E+03  0.94234361585E+02 0.  0.
          5    1    1    2  502    0  0.58588454076E+02  0.34073867562E+02  0.13712329235E+02  0.69275795013E+02  0.41800000000E+01 0.  1.
         -5    1    1    2    0  502 -0.54319928224E+02  0.89647473421E+02  0.66382302609E+02  0.12414268642E+03  0.41800000000E+01 0.  1.
        -11    1    3    3    0    0 -0.85978964982E+01 -0.95541876898E+02 -0.10139802041E+03  0.13958414168E+03  0.00000000000E+00 0.  1.
         11    1    3    3    0    0  0.43293706464E+01 -0.28179464085E+02  0.21125873731E+02  0.35484196302E+02  0.00000000000E+00 0. -1.
</event>
<event>
 8    1  0.6901948E-009  0.1388012E+03  0.7561462E-02  0.1214951E+00
          2   -1    0    0  501    0  0.00000000000E+00  0.00000000000E+00  0.81861586602E+03  0.81861586602E+03  0.00000000000E+00 0.  1.
         -2   -1    0    0    0  501 -0.00000000000E+00 -0.00000000000E+00 -0.36021178162E+02  0.36021178162E+02  0.00000000000E+00 0. -1.
         25    2    1    2    0    0  0.13251880988E+03 -0.72132160676E+01  0.41800065274E+03  0.45603901256E+03  0.12503507441E+03 0.  0.
         23    2    1    2    0    0 -0.13251880988E+03  0.72132160676E+01  0.36459403512E+03  0.39859803162E+03  0.91314374061E+02 0.  0.
          5    1    3    3  502    0  0.59495453048E+02 -0.29110257106E+02  0.58340065399E+02  0.88363746145E+02  0.41800000000E+01 0. -1.
         -5    1    3    3    0  502  0.73023356829E+02  0.21897041038E+02  0.35966058734E+03  0.36767526642E+03  0.41800000000E+01 0. -1.
        -11    1    4    4    0    0 -0.50914799328E+02  0.14546791864E+02  0.26202511443E+03  0.26732206519E+03  0.00000000000E+00 0. -1.
         11    1    4    4    0    0 -0.81604010548E+02 -0.73335757960E+01  0.10256892069E+03  0.13127596643E+03  0.00000000000E+00 0.  1.
</event>
<event>
 8    1  0.6901948E-009  0.1078998E+03  0.7561462E-02  0.1264509E+00
          1   -1    0    0  501    0  0.00000000000E+00  0.00000000000E+00  0.19025167684E+03  0.19025167684E+03  0.00000000000E+00 0. -1.
         -1   -1    0    0    0  501 -0.00000000000E+00 -0.00000000000E+00 -0.89030721145E+02  0.89030721145E+02  0.00000000000E+00 0.  1.
         25    2    1    2    0    0  0.68693933709E+02  0.12991378194E+02  0.39277536442E+02  0.14858637744E+03  0.12509018449E+03 0.  0.
         23    2    1    2    0    0 -0.68693933709E+02 -0.12991378194E+02  0.61943419257E+02  0.13069602055E+03  0.91415699754E+02 0.  0.
          5    1    3    3  502    0  0.99096501577E+02  0.16762169576E+02  0.26130033535E+01  0.10062498268E+03  0.41800000000E+01 0. -1.
         -5    1    3    3    0  502 -0.30402567868E+02 -0.37707913826E+01  0.36664533088E+02  0.47961394759E+02  0.41800000000E+01 0. -1.
        -11    1    4    4    0    0 -0.45471241795E+02 -0.30888501760E+02  0.79401500036E+02  0.96572933989E+02  0.00000000000E+00 0. -1.
         11    1    4    4    0    0 -0.23222691915E+02  0.17897123566E+02 -0.17458080778E+02  0.34123086557E+02  0.00000000000E+00 0.  1.
</event>
<event>
 8    1  0.6901948E-009  0.8966415E+02  0.7561462E-02  0.1303667E+00
          2   -1    0    0  501    0  0.00000000000E+00  0.00000000000E+00  0.19557672299E+03  0.19557672299E+03  0.00000000000E+00 0. -1.
         -2   -1    0    0    0  501 -0.00000000000E+00 -0.00000000000E+00 -0.13051248310E+03  0.13051248310E+03  0.00000000000E+00 0.  1.
         25    2    1    2    0    0 -0.37875641143E+02  0.32051883862E+02 -0.73161249464E+02  0.15317557790E+03  0.12509317244E+03 0.  0.
         23    2    1    2    0    0  0.37875641143E+02 -0.32051883862E+02  0.13822548935E+03  0.17291362819E+03  0.91274034956E+02 0.  0.
          5    1    3    3  502    0  0.33852280842E+02  0.43690002654E+02 -0.55157329561E+02  0.78195886430E+02  0.41800000000E+01 0.  1.
         -5    1    3    3    0  502 -0.71727921986E+02 -0.11638118792E+02 -0.18003919903E+02  0.74979691472E+02  0.41800000000E+01 0.  1.
        -11    1    4    4    0    0  0.24600612823E+02 -0.27918276774E+02  0.15009119044E+03  0.15463500825E+03  0.00000000000E+00 0. -1.
         11    1    4    4    0    0  0.13275028320E+02 -0.41336070882E+01 -0.11865701092E+02  0.18278619938E+02  0.00000000000E+00 0.  1.
</event>
<event>
 8    1  0.6901948E-009  0.9367705E+02  0.7561462E-02  0.1294184E+00
         -2   -1    0    0    0  501 -0.00000000000E+00  0.00000000000E+00  0.15010770072E+03  0.15010770072E+03  0.00000000000E+00 0.  1.
          2   -1    0    0  501    0  0.00000000000E+00 -0.00000000000E+00 -0.91714124763E+02  0.91714124763E+02  0.00000000000E+00 0. -1.
         25    2    1    2    0    0 -0.30074789970E+02  0.25824837691E+02  0.26140941018E+02  0.13380666794E+03  0.12509780315E+03 0.  0.
         23    2    1    2    0    0  0.30074789970E+02 -0.25824837691E+02  0.32252634935E+02  0.10801515754E+03  0.95161055927E+02 0.  0.
          5    1    3    3  502    0 -0.41910472243E+02  0.45816646908E+02  0.63949706854E+02  0.89233907369E+02  0.41800000000E+01 0.  1.
         -5    1    3    3    0  502  0.11835682273E+02 -0.19991809217E+02 -0.37808765836E+02  0.44572760569E+02  0.41800000000E+01 0.  1.
        -11    1    4    4    0    0  0.42415123466E+02  0.24985066267E+02  0.25051155250E+02  0.55234559964E+02  0.00000000000E+00 0.  1.
         11    1    4    4    0    0 -0.12340333496E+02 -0.50809903958E+02  0.72014796851E+01  0.52780597578E+02  0.00000000000E+00 0. -1.
</event>
<event>
 8    1  0.6901948E-009  0.1104369E+03  0.7561462E-02  0.1259763E+00
          2   -1    0    0  501    0  0.00000000000E+00  0.00000000000E+00  0.46406060218E+03  0.46406060218E+03  0.00000000000E+00 0. -1.
         -2   -1    0    0    0  501 -0.00000000000E+00 -0.00000000000E+00 -0.34700062030E+02  0.34700062030E+02  0.00000000000E+00 0.  1.
         25    2    1    2    0    0 -0.16219994112E+02  0.25604934311E+02  0.13014790912E+03  0.18304270149E+03  0.12508977356E+03 0.  0.
         23    2    1    2    0    0  0.16219994112E+02 -0.25604934311E+02  0.29921263103E+03  0.31571796272E+03  0.96077742208E+02 0.  0.
          5    1    3    3  502    0 -0.29971974772E+02 -0.44273101637E+02  0.78075905754E+02  0.94719302466E+02  0.41800000000E+01 0. -1.
         -5    1    3    3    0  502  0.13751980660E+02  0.69878035948E+02  0.52072003367E+02  0.88323399021E+02  0.41800000000E+01 0. -1.
        -11    1    4    4    0    0 -0.24464710920E+02  0.22266833891E+02  0.15374408473E+03  0.15726276597E+03  0.00000000000E+00 0. -1.
         11    1    4    4    0    0  0.40684705033E+02 -0.47871768202E+02  0.14546854630E+03  0.15845519675E+03  0.00000000000E+00 0.  1.
</event>
<event>
 8    1  0.6901948E-009  0.7657716E+02  0.7561462E-02  0.1339055E+00
          1   -1    0    0  501    0  0.00000000000E+00  0.00000000000E+00  0.13029351310E+03  0.13029351310E+03  0.00000000000E+00 0. -1.
         -1   -1    0    0    0  501 -0.00000000000E+00 -0.00000000000E+00 -0.14763879196E+03  0.14763879196E+03  0.00000000000E+00 0.  1.
         25    2    1    2    0    0 -0.24324227674E+02 -0.48167170867E+02 -0.76453003201E+02  0.15622081977E+03  0.12509251948E+03 0.  0.
         23    2    1    2    0    0  0.24324227674E+02  0.48167170867E+02  0.59107724341E+02  0.12171148528E+03  0.91696336743E+02 0.  0.
          5    1    3    3  502    0 -0.55964919711E+01 -0.28896445132E+02  0.32429247063E+02  0.43993791934E+02  0.41800000000E+01 0. -1.
         -5    1    3    3    0  502 -0.18727735703E+02 -0.19270725734E+02 -0.10888225026E+03  0.11222702784E+03  0.41800000000E+01 0. -1.
        -11    1    4    4    0    0  0.49547229070E+02  0.50688548089E+02  0.17532705488E+02  0.73018166080E+02  0.00000000000E+00 0. -1.
         11    1    4    4    0    0 -0.25223001396E+02 -0.25213772228E+01  0.41575018853E+02  0.48693319204E+02  0.00000000000E+00 0.  1.
</event>
<event>
 8    1  0.6901948E-009  0.2636461E+03  0.7561462E-02  0.1104972E+00
         -1   -1    0    0    0  501 -0.00000000000E+00  0.00000000000E+00  0.21713080678E+03  0.21713080678E+03  0.00000000000E+00 0. -1.
          1   -1    0    0  501    0  0.00000000000E+00 -0.00000000000E+00 -0.49577641682E+03  0.49577641682E+03  0.00000000000E+00 0.  1.
         25    2    1    2    0    0 -0.22857657031E+03  0.11859746174E+03 -0.32755663496E+03  0.43503323820E+03  0.12509181752E+03 0.  0.
         23    2    1    2    0    0  0.22857657031E+03 -0.11859746174E+03  0.48911024916E+02  0.27787398541E+03  0.92244549867E+02 0.  0.
          5    1    3    3  502    0 -0.20942532598E+03  0.11355084886E+03 -0.33698038427E+03  0.41270572352E+03  0.41800000000E+01 0. -1.
         -5    1    3    3    0  502 -0.19151244331E+02  0.50466128781E+01  0.94237493136E+01  0.22327514687E+02  0.41800000000E+01 0. -1.
        -11    1    4    4    0    0  0.18328457709E+03 -0.56246580058E+02  0.57933312334E+02  0.20028275673E+03  0.00000000000E+00 0. -1.
         11    1    4    4    0    0  0.45291993225E+02 -0.62350881682E+02 -0.90222874180E+01  0.77591228673E+02  0.00000000000E+00 0.  1.
</event>
<event>
 8    1  0.6901948E-009  0.1053151E+03  0.7561462E-02  0.1269500E+00
         -1   -1    0    0    0  501 -0.00000000000E+00  0.00000000000E+00  0.59493189430E+03  0.59493189430E+03  0.00000000000E+00 0. -1.
          1   -1    0    0  501    0  0.00000000000E+00 -0.00000000000E+00 -0.34608811399E+02  0.34608811399E+02  0.00000000000E+00 0.  1.
         25    2    1    2    0    0 -0.85254531089E+02 -0.31025084884E+02  0.35983109570E+03  0.39160757377E+03  0.12508870227E+03 0.  0.
         23    2    1    2    0    0  0.85254531089E+02  0.31025084884E+02  0.20049198719E+03  0.23793313193E+03  0.90466830255E+02 0.  0.
          5    1    3    3  502    0 -0.71062447626E+02 -0.46528756222E+02  0.10162550840E+03  0.13251419915E+03  0.41800000000E+01 0. -1.
         -5    1    3    3    0  502 -0.14192083463E+02  0.15503671338E+02  0.25820558730E+03  0.25909337462E+03  0.41800000000E+01 0. -1.
        -11    1    4    4    0    0  0.28278152919E+02  0.37331914948E+02  0.24528202820E+02  0.52867367438E+02  0.00000000000E+00 0.  1.
         11    1    4    4    0    0  0.56976378170E+02 -0.63068300648E+01  0.17596378437E+03  0.18506576449E+03  0.00000000000E+00 0. -1.
</event>
<event>
 8    1  0.6901948E-009  0.2095642E+03  0.7561462E-02  0.1141912E+00
          2   -1    0    0  501    0  0.00000000000E+00  0.00000000000E+00  0.46846131296E+03  0.46846131296E+03  0.00000000000E+00 0. -1.
         -2   -1    0    0    0  501 -0.00000000000E+00 -0.00000000000E+00 -0.10161802888E+03  0.10161802888E+03  0.00000000000E+00 0.  1.
         25    2    1    2    0    0  0.12738674073E+03 -0.13217673047E+03  0.24485211367E+03  0.33060231866E+03  0.12508903126E+03 0.  0.
         23    2    1    2    0    0 -0.12738674073E+03  0.13217673047E+03  0.12199117041E+03  0.23947702318E+03  0.93644696490E+02 0.  0.
          5    1    3    3  502    0  0.66602070835E+02 -0.13884076356E+03  0.13509860009E+03  0.20489435720E+03  0.41800000000E+01 0.  1.
         -5    1    3    3    0  502  0.60784669898E+02  0.66640330894E+01  0.10975351358E+03  0.12570796146E+03  0.41800000000E+01 0.  1.
        -11    1    4    4    0    0 -0.10348480720E+03  0.44031752842E+02  0.49493502244E+02  0.12287191438E+03  0.00000000000E+00 0.  1.
         11    1    4    4    0    0 -0.23901933530E+02  0.88144977630E+02  0.72497668168E+02  0.11660510880E+03  0.00000000000E+00 0. -1.
</event>
<event>
 8    1  0.6901948E-009  0.1073888E+03  0.7561462E-02  0.1265483E+00
          4   -1    0    0  501    0  0.00000000000E+00  0.00000000000E+00  0.33253338754E+02  0.33253338754E+02  0.00000000000E+00 0. -1.
         -4   -1    0    0    0  501 -0.00000000000E+00 -0.00000000000E+00 -0.70771645646E+03  0.70771645646E+03  0.00000000000E+00 0.  1.
         25    2    1    2    0    0  0.17284977046E+02  0.47665463689E+02 -0.58504167077E+03  0.60040910629E+03  0.12508625632E+03 0.  0.
         23    2    1    2    0    0 -0.17284977046E+02 -0.47665463689E+02 -0.89421446930E+02  0.14056068892E+03  0.95866288327E+02 0.  0.
          5    1    3    3  502    0  0.46286426003E+02 -0.19265986231E+02 -0.12743884358E+03  0.13701000953E+03  0.41800000000E+01 0.  1.
         -5    1    3    3    0  502 -0.29001448957E+02  0.66931449919E+02 -0.45760282719E+03  0.46339909677E+03  0.41800000000E+01 0.  1.
        -11    1    4    4    0    0  0.30352289342E+02 -0.18836715173E+02 -0.74953006382E+02  0.83030334653E+02  0.00000000000E+00 0.  1.
         11    1    4    4    0    0 -0.47637266388E+02 -0.28828748515E+02 -0.14468440548E+02  0.57530354265E+02  0.00000000000E+00 0. -1.
</event>
<event>
 8    1  0.6901948E-009  0.8619284E+02  0.7561462E-02  0.1312342E+00
         -3   -1    0    0    0  501 -0.00000000000E+00  0.00000000000E+00  0.22631594886E+03  0.22631594886E+03  0.00000000000E+00 0.  1.
          3   -1    0    0  501    0  0.00000000000E+00 -0.00000000000E+00 -0.59966395725E+02  0.59966395725E+02  0.00000000000E+00 0. -1.
         25    2    1    2    0    0 -0.29330210196E+02 -0.90675767330E+01  0.55272127804E+02  0.14016042175E+03  0.12508978190E+03 0.  0.
         23    2    1    2    0    0  0.29330210196E+02  0.90675767330E+01  0.11107742533E+03  0.14612192283E+03  0.89838409031E+02 0.  0.
          5    1    3    3  502    0  0.23029866340E+02 -0.85457400828E+01 -0.30620917309E+02  0.39478062187E+02  0.41800000000E+01 0. -1.
         -5    1    3    3    0  502 -0.52360076536E+02 -0.52183665017E+00  0.85893045113E+02  0.10068235956E+03  0.41800000000E+01 0. -1.
        -11    1    4    4    0    0 -0.29473787508E+02 -0.12890096132E+02  0.37607451704E+02  0.49489182172E+02  0.00000000000E+00 0. -1.
         11    1    4    4    0    0  0.58803997704E+02  0.21957672865E+02  0.73469973625E+02  0.96632740663E+02  0.00000000000E+00 0.  1.
</event>
<event>
 8    1  0.6901948E-009  0.9337712E+02  0.7561462E-02  0.1294874E+00
          1   -1    0    0  501    0  0.00000000000E+00  0.00000000000E+00  0.27049950074E+03  0.27049950074E+03  0.00000000000E+00 0. -1.
         -1   -1    0    0    0  501 -0.00000000000E+00 -0.00000000000E+00 -0.43370338857E+02  0.43370338857E+02  0.00000000000E+00 0.  1.
         25    2    1    2    0    0 -0.23857179240E+02 -0.17474559957E+02  0.15558604218E+03  0.20181714779E+03  0.12509444182E+03 0.  0.
         23    2    1    2    0    0  0.23857179240E+02  0.17474559957E+02  0.71543119701E+02  0.11205269180E+03  0.81011496204E+02 0.  0.
          5    1    3    3  502    0  0.29356603133E+02  0.23623959857E+02  0.68369067308E+01  0.38524243283E+02  0.41800000000E+01 0.  1.
         -5    1    3    3    0  502 -0.53213782373E+02 -0.41098519815E+02  0.14874913545E+03  0.16329290451E+03  0.41800000000E+01 0.  1.
        -11    1    4    4    0    0  0.69564458007E+01  0.46969008237E+02  0.22916840832E+02  0.52722494883E+02  0.00000000000E+00 0.  1.
         11    1    4    4    0    0  0.16900733439E+02 -0.29494448280E+02  0.48626278868E+02  0.59330196921E+02  0.00000000000E+00 0. -1.
</event>
<event>
 8    1  0.6901948E-009  0.1103970E+03  0.7561462E-02  0.1259836E+00
         -1   -1    0    0    0  501 -0.00000000000E+00  0.00000000000E+00  0.25832551396E+02  0.25832551396E+02  0.00000000000E+00 0.  1.
          1   -1    0    0  501    0  0.00000000000E+00 -0.00000000000E+00 -0.75844641491E+03  0.75844641491E+03  0.00000000000E+00 0. -1.
         25    2    1    2    0    0 -0.70972136833E+02  0.24515698401E+02 -0.53201670219E+03  0.55166263915E+03  0.12510728334E+03 0.  0.
         23    2    1    2    0    0  0.70972136833E+02 -0.24515698401E+02 -0.20059716132E+03  0.23261632716E+03  0.90736270898E+02 0.  0.
          5    1    3    3  502    0 -0.29955707617E+02  0.47192027746E+02 -0.82802346547E+02  0.99990664041E+02  0.41800000000E+01 0. -1.
         -5    1    3    3    0  502 -0.41016429217E+02 -0.22676329345E+02 -0.44921435564E+03  0.45167197511E+03  0.41800000000E+01 0. -1.
        -11    1    4    4    0    0  0.90487619940E+02 -0.58397587025E+01 -0.15825616324E+03  0.18239277768E+03  0.00000000000E+00 0. -1.
         11    1    4    4    0    0 -0.19515483106E+02 -0.18675939699E+02 -0.42340998082E+02  0.50223549487E+02  0.00000000000E+00 0.  1.
</event>
<event>
 8    1  0.6901948E-009  0.1162020E+03  0.7561462E-02  0.1249497E+00
         -1   -1    0    0    0  501 -0.00000000000E+00  0.00000000000E+00  0.71556113440E+02  0.71556113440E+02  0.00000000000E+00 0.  1.
          1   -1    0    0  501    0  0.00000000000E+00 -0.00000000000E+00 -0.29587015300E+03  0.29587015300E+03  0.00000000000E+00 0. -1.
         25    2    1    2    0    0  0.92471149214E+02 -0.13592689910E+02 -0.15215544351E+03  0.21802510308E+03  0.12509193391E+03 0.  0.
         23    2    1    2    0    0 -0.92471149214E+02  0.13592689910E+02 -0.72158596052E+02  0.14940116336E+03  0.91532343860E+02 0.  0.
          5    1    3    3  502    0  0.52895527939E+02 -0.46233932706E+02 -0.15591560617E+02  0.72083857915E+02  0.41800000000E+01 0.  1.
         -5    1    3    3    0  502  0.39575621275E+02  0.32641242796E+02 -0.13656388289E+03  0.14594124517E+03  0.41800000000E+01 0.  1.
        -11    1    4    4    0    0 -0.38920204331E+02 -0.23453258878E+02 -0.70974072505E+02  0.84274293976E+02  0.00000000000E+00 0. -1.
         11    1    4    4    0    0 -0.53550944882E+02  0.37045948788E+02 -0.11845235466E+01  0.65126869381E+02  0.00000000000E+00 0.  1.
</event>
<event>
 8    1  0.6901948E-009  0.1627668E+03  0.7561462E-02  0.1185608E+00
          2   -1    0    0  501    0  0.00000000000E+00  0.00000000000E+00  0.68372740636E+03  0.68372740636E+03  0.00000000000E+00 0. -1.
         -2   -1    0    0    0  501 -0.00000000000E+00 -0.00000000000E+00 -0.41686334728E+02  0.41686334728E+02  0.00000000000E+00 0.  1.
         25    2    1    2    0    0  0.12703132241E+03  0.51047655973E+01  0.37830562767E+03  0.41824196721E+03  0.12509268446E+03 0.  0.
         23    2    1    2    0    0 -0.12703132241E+03 -0.51047655973E+01  0.26373544396E+03  0.30717177388E+03  0.92925232095E+02 0.  0.
          5    1    3    3  502    0  0.10884435984E+03 -0.43256374058E+02  0.31692641870E+03  0.33790240579E+03  0.41800000000E+01 0. -1.
         -5    1    3    3    0  502  0.18186962567E+02  0.48361139655E+02  0.61379208965E+02  0.80339561421E+02  0.41800000000E+01 0. -1.
        -11    1    4    4    0    0 -0.17726317818E+02  0.35672544740E+02  0.82838117505E+02  0.91917933524E+02  0.00000000000E+00 0.  1.
         11    1    4    4    0    0 -0.10930500459E+03 -0.40777310337E+02  0.18089732646E+03  0.21525384035E+03  0.00000000000E+00 0. -1.
</event>
<event>
 8    1  0.6901948E-009  0.1461462E+03  0.7561462E-02  0.1205290E+00
          2   -1    0    0  501    0  0.00000000000E+00  0.00000000000E+00  0.84805947069E+03  0.84805947069E+03  0.00000000000E+00 0. -1.
         -2   -1    0    0    0  501 -0.00000000000E+00 -0.00000000000E+00 -0.30191682783E+02  0.30191682783E+02  0.00000000000E+00 0.  1.
         25    2    1    2    0    0 -0.11353620033E+03 -0.12680403213E+02  0.50393198795E+03  0.53164443374E+03  0.12508834492E+03 0.  0.
         23    2    1    2    0    0  0.11353620033E+03  0.12680403213E+02  0.31393579996E+03  0.34660671974E+03  0.92354048423E+02 0.  0.
          5    1    3    3  502    0 -0.61233332431E+02 -0.65327110667E+02  0.34055950421E+03  0.35215820408E+03  0.41800000000E+01 0. -1.
         -5    1    3    3    0  502 -0.52302867897E+02  0.52646707454E+02  0.16337248374E+03  0.17948622966E+03  0.41800000000E+01 0. -1.
        -11    1    4    4    0    0  0.84853570005E+02  0.35195956952E+02  0.13055373532E+03  0.15963446224E+03  0.00000000000E+00 0.  1.
         11    1    4    4    0    0  0.28682630323E+02 -0.22515553739E+02  0.18338206464E+03  0.18697225750E+03  0.00000000000E+00 0. -1.
</event>
<event>
 8    1  0.6901948E-009  0.9610453E+02  0.7561462E-02  0.1288708E+00
          2   -1    0    0  501    0  0.00000000000E+00  0.00000000000E+00  0.44586939878E+03  0.44586939878E+03  0.00000000000E+00 0.  1.
         -2   -1    0    0    0  501 -0.00000000000E+00 -0.00000000000E+00 -0.28483364114E+02  0.28483364114E+02  0.00000000000E+00 0. -1.
         25    2    1    2    0    0 -0.30760222146E+02  0.33551518017E+01  0.25817208685E+03  0.28854514949E+03  0.12509208031E+03 0.  0.
         23    2    1    2    0    0  0.30760222146E+02 -0.33551518017E+01  0.15921394782E+03  0.18580761341E+03  0.90652852740E+02 0.  0.
          5    1    3    3  502    0 -0.34043448566E+02 -0.44779558845E+02  0.51851401002E+02  0.76617266112E+02  0.41800000000E+01 0.  1.
         -5    1    3    3    0  502  0.32832264198E+01  0.48134710646E+02  0.20632068584E+03  0.21192788337E+03  0.41800000000E+01 0.  1.
        -11    1    4    4    0    0  0.40012659978E+02 -0.35767495818E+02  0.13197549450E+03  0.14247055087E+03  0.00000000000E+00 0.  1.
         11    1    4    4    0    0 -0.92524378317E+01  0.32412344016E+02  0.27238453320E+02  0.43337062541E+02  0.00000000000E+00 0. -1.
</event>
<event>
 8    1  0.6901948E-009  0.4075611E+03  0.7561462E-02  0.1041193E+00
          1   -1    0    0  501    0  0.00000000000E+00  0.00000000000E+00  0.11674093865E+04  0.11674093865E+04  0.00000000000E+00 0.  1.
         -1   -1    0    0    0  501 -0.00000000000E+00 -0.00000000000E+00 -0.16148728181E+03  0.16148728181E+03  0.00000000000E+00 0. -1.
         25    2    1    2    0    0 -0.36451971676E+03 -0.16827209659E+03  0.31865225795E+03  0.52761524051E+03  0.12509379731E+03 0.  0.
         23    2    1    2    0    0  0.36451971676E+03  0.16827209659E+03  0.68726984674E+03  0.80128142779E+03  0.92314472784E+02 0.  0.
          5    1    3    3  502    0 -0.18000110366E+03 -0.13006094844E+03  0.11495979081E+03  0.25009892749E+03  0.41800000000E+01 0.  1.
         -5    1    3    3    0  502 -0.18451861310E+03 -0.38211148149E+02  0.20369246714E+03  0.27751631302E+03  0.41800000000E+01 0.  1.
        -11    1    4    4    0    0  0.31592012636E+03  0.12600426648E+03  0.62575643520E+03  0.71221746511E+03  0.00000000000E+00 0.  1.
         11    1    4    4    0    0  0.48599590401E+02  0.42267830110E+02  0.61513411537E+02  0.89063962680E+02  0.00000000000E+00 0. -1.
</event>
<event>
 8    1  0.6901948E-009  0.8580075E+02  0.7561462E-02  0.1313352E+00
         -2   -1    0    0    0  501 -0.00000000000E+00  0.00000000000E+00  0.48852592415E+03  0.48852592415E+03  0.00000000000E+00 0.  1.
          2   -1    0    0  501    0  0.00000000000E+00 -0.00000000000E+00 -0.31587604131E+02  0.31587604131E+02  0.00000000000E+00 0. -1.
         25    2    1    2    0    0  0.58680173226E+02 -0.13992310118E+02  0.27669374583E+03  0.30959263811E+03  0.12509606355E+03 0.  0.
         23    2    1    2    0    0 -0.58680173226E+02  0.13992310118E+02  0.18024457418E+03  0.21052089017E+03  0.90508514535E+02 0.  0.
          5    1    3    3  502    0  0.50652307261E+02 -0.23274005190E+02  0.28739585627E+03  0.29278180638E+03  0.41800000000E+01 0.  1.
         -5    1    3    3    0  502  0.80278659643E+01  0.92816950722E+01 -0.10702110439E+02  0.16810831722E+02  0.41800000000E+01 0.  1.
        -11    1    4    4    0    0  0.52643843097E+01 -0.26521407724E+02  0.21124961075E+02  0.34312720532E+02  0.00000000000E+00 0. -1.
         11    1    4    4    0    0 -0.63944557535E+02  0.40513717842E+02  0.15911961311E+03  0.17620816964E+03  0.00000000000E+00 0.  1.
</event>
<event>
 8    1  0.6901948E-009  0.7519136E+02  0.7561462E-02  0.1343279E+00
          2   -1    0    0  501    0  0.00000000000E+00  0.00000000000E+00  0.12564644424E+03  0.12564644424E+03  0.00000000000E+00 0. -1.
         -2   -1    0    0    0  501 -0.00000000000E+00 -0.00000000000E+00 -0.11551719500E+03  0.11551719500E+03  0.00000000000E+00 0.  1.
         25    2    1    2    0    0  0.34272930288E+02 -0.24088472794E+02  0.28268568844E+02  0.13491227493E+03  0.12508925481E+03 0.  0.
         23    2    1    2    0    0 -0.34272930288E+02  0.24088472794E+02 -0.18139319606E+02  0.10625136431E+03  0.95944928110E+02 0.  0.
          5    1    3    3  502    0  0.53753070441E+02 -0.17584502983E+02  0.68873931145E+02  0.89217140272E+02  0.41800000000E+01 0.  1.
         -5    1    3    3    0  502 -0.19480140153E+02 -0.65039698108E+01 -0.40605362301E+02  0.45695134656E+02  0.41800000000E+01 0.  1.
        -11    1    4    4    0    0 -0.50629453534E+02  0.11110493795E+02  0.25579665698E+02  0.57802283127E+02  0.00000000000E+00 0. -1.
         11    1    4    4    0    0  0.16356523246E+02  0.12977978999E+02 -0.43718985304E+02  0.48449081184E+02  0.00000000000E+00 0.  1.
</event>
<event>
 8    1  0.6901948E-009  0.1169787E+03  0.7561462E-02  0.1248166E+00
          1   -1    0    0  501    0  0.00000000000E+00  0.00000000000E+00  0.97524760827E+02  0.97524760827E+02  0.00000000000E+00 0. -1.
         -1   -1    0    0    0  501 -0.00000000000E+00 -0.00000000000E+00 -0.18550018717E+03  0.18550018717E+03  0.00000000000E+00 0.  1.
         25    2    1    2    0    0 -0.55785836434E+02 -0.16436595339E+02 -0.10219308726E+03  0.17167651656E+03  0.12508868071E+03 0.  0.
         23    2    1    2    0    0  0.55785836434E+02  0.16436595339E+02  0.14217660913E+02  0.11134843144E+03  0.93883492100E+02 0.  0.
          5    1    3    3  502    0  0.33787620864E+02 -0.17630834068E+02 -0.63127953215E+02  0.73858381452E+02  0.41800000000E+01 0.  1.
         -5    1    3    3    0  502 -0.89573457298E+02  0.11942387285E+01 -0.39065134043E+02  0.97818135109E+02  0.41800000000E+01 0.  1.
        -11    1    4    4    0    0 -0.15850285856E+02  0.29152695163E+02  0.19348211991E+02  0.38411775593E+02  0.00000000000E+00 0. -1.
         11    1    4    4    0    0  0.71636122290E+02 -0.12716099824E+02 -0.51305510778E+01  0.72936655845E+02  0.00000000000E+00 0.  1.
</event>
<event>
 8    1  0.6901948E-009  0.1127067E+03  0.7561462E-02  0.1255638E+00
          2   -1    0    0  501    0  0.00000000000E+00  0.00000000000E+00  0.42202482353E+03  0.42202482353E+03  0.00000000000E+00 0. -1.
         -2   -1    0    0    0  501 -0.00000000000E+00 -0.00000000000E+00 -0.52156794457E+02  0.52156794457E+02  0.00000000000E+00 0.  1.
         25    2    1    2    0    0  0.23321636764E+02  0.75091630442E+02  0.96629968217E+02  0.17654149052E+03  0.12508755100E+03 0.  0.
         23    2    1    2    0    0 -0.23321636764E+02 -0.75091630442E+02  0.27323806085E+03  0.29764012746E+03  0.88022473677E+02 0.  0.
          5    1    3    3  502    0  0.44019413227E+02 -0.99597209152E+01 -0.10178852906E+01  0.45336665868E+02  0.41800000000E+01 0. -1.
         -5    1    3    3    0  502 -0.20697776463E+02  0.85051351358E+02  0.97647853508E+02  0.13120482466E+03  0.41800000000E+01 0. -1.
        -11    1    4    4    0    0 -0.33907274861E+02 -0.27376200005E+02  0.22423114654E+03  0.22842672062E+03  0.00000000000E+00 0. -1.
         11    1    4    4    0    0  0.10585638097E+02 -0.47715430437E+02  0.49006914313E+02  0.69213406838E+02  0.00000000000E+00 0.  1.
</event>
<event>
 8    1  0.6901948E-009  0.1211477E+03  0.7561462E-02  0.1241216E+00
          1   -1    0    0  501    0  0.00000000000E+00  0.00000000000E+00  0.38945156337E+02  0.38945156337E+02  0.00000000000E+00 0. -1.
         -1   -1    0    0    0  501 -0.00000000000E+00 -0.00000000000E+00 -0.63069487768E+03  0.63069487768E+03  0.00000000000E+00 0.  1.
         25    2    1    2    0    0 -0.63131821466E+02  0.44262691960E+02 -0.49629760181E+03  0.51759362529E+03  0.12508812336E+03 0.  0.
         23    2    1    2    0    0  0.63131821466E+02 -0.44262691960E+02 -0.95452119536E+02  0.15204640872E+03  0.89789701528E+02 0.  0.
          5    1    3    3  502    0 -0.94754996006E+02  0.43178368091E+02 -0.44608229232E+03  0.45809361998E+03  0.41800000000E+01 0.  1.
         -5    1    3    3    0  502  0.31623174540E+02  0.10843238683E+01 -0.50215309481E+02  0.59500005315E+02  0.41800000000E+01 0.  1.
        -11    1    4    4    0    0  0.35211324101E+02 -0.63257068842E+02 -0.93457757849E+02  0.11821863899E+03  0.00000000000E+00 0.  1.
         11    1    4    4    0    0  0.27920497366E+02  0.18994376882E+02 -0.19943616869E+01  0.33827769729E+02  0.00000000000E+00 0. -1.
</event>
<event>
 8    1  0.6901948E-009  0.1153593E+03  0.7561462E-02  0.1250955E+00
          1   -1    0    0  501    0  0.00000000000E+00  0.00000000000E+00  0.56578227299E+03  0.56578227299E+03  0.00000000000E+00 0. -1.
         -1   -1    0    0    0  501 -0.00000000000E+00 -0.00000000000E+00 -0.30546231772E+02  0.30546231772E+02  0.00000000000E+00 0.  1.
         25    2    1    2    0    0  0.73829796456E+02 -0.10069033891E+02  0.26967726617E+03  0.30647257157E+03  0.12508950774E+03 0.  0.
         23    2    1    2    0    0 -0.73829796456E+02  0.10069033891E+02  0.26555877505E+03  0.28985593319E+03  0.89122245900E+02 0.  0.
          5    1    3    3  502    0  0.10391771665E+03 -0.30320627608E+02  0.21461313699E+03  0.24040487362E+03  0.41800000000E+01 0. -1.
         -5    1    3    3    0  502 -0.30087920194E+02  0.20251593717E+02  0.55064129182E+02  0.66067697948E+02  0.41800000000E+01 0. -1.
        -11    1    4    4    0    0 -0.44002385789E+02  0.26955739146E+02  0.24392553985E+03  0.24932406787E+03  0.00000000000E+00 0.  1.
         11    1    4    4    0    0 -0.29827410667E+02 -0.16886705255E+02  0.21633235198E+02  0.40531865324E+02  0.00000000000E+00 0. -1.
</event>
<event>
 8    1  0.6901948E-009  0.9593562E+02  0.7561462E-02  0.1289083E+00
         -2   -1    0    0    0  501 -0.00000000000E+00  0.00000000000E+00  0.27888193919E+03  0.27888193919E+03  0.00000000000E+00 0.  1.
          2   -1    0    0  501    0  0.00000000000E+00 -0.00000000000E+00 -0.53832294515E+02  0.53832294515E+02  0.00000000000E+00 0. -1.
         25    2    1    2    0    0 -0.28634585187E+02  0.33529354481E+02  0.82214010204E+02  0.15603901161E+03  0.12507946510E+03 0.  0.
         23    2    1    2    0    0  0.28634585187E+02 -0.33529354481E+02  0.14283563447E+03  0.17667522209E+03  0.94169838833E+02 0.  0.
          5    1    3    3  502    0 -0.42035170200E+02 -0.37568799396E+02  0.54277476101E+02  0.78370192252E+02  0.41800000000E+01 0. -1.
         -5    1    3    3    0  502  0.13400585013E+02  0.71098153876E+02  0.27936534103E+02  0.77668819361E+02  0.41800000000E+01 0. -1.
        -11    1    4    4    0    0  0.39436802998E+02 -0.16603078323E+02  0.14951228287E+03  0.15551477862E+03  0.00000000000E+00 0.  1.
         11    1    4    4    0    0 -0.10802217811E+02 -0.16926276158E+02 -0.66766483959E+01  0.21160443474E+02  0.00000000000E+00 0. -1.
</event>
<event>
 8    1  0.6901948E-009  0.2676341E+03  0.7561462E-02  0.1102641E+00
          1   -1    0    0  501    0  0.00000000000E+00  0.00000000000E+00  0.95727676916E+02  0.95727676916E+02  0.00000000000E+00 0. -1.
         -1   -1    0    0    0  501 -0.00000000000E+00 -0.00000000000E+00 -0.80503340214E+03  0.80503340214E+03  0.00000000000E+00 0.  1.
         25    2    1    2    0    0 -0.10276074517E+03 -0.22277885447E+03 -0.24758283178E+03  0.37031725145E+03  0.12508964538E+03 0.  0.
         23    2    1    2    0    0  0.10276074517E+03  0.22277885447E+03 -0.46172289344E+03  0.53044382761E+03  0.89400420433E+02 0.  0.
          5    1    3    3  502    0 -0.85191828368E+02 -0.45037034173E+02 -0.78981828568E+02  0.12466588832E+03  0.41800000000E+01 0. -1.
         -5    1    3    3    0  502 -0.17568916802E+02 -0.17774182029E+03 -0.16860100321E+03  0.24565136312E+03  0.41800000000E+01 0. -1.
        -11    1    4    4    0    0  0.19723339200E+02  0.14515113988E+03 -0.28232168264E+03  0.31806193737E+03  0.00000000000E+00 0. -1.
         11    1    4    4    0    0  0.83037405970E+02  0.77627714591E+02 -0.17940121081E+03  0.21238189024E+03  0.00000000000E+00 0.  1.
</event>
<event>
 8    1  0.6901948E-009  0.1079019E+03  0.7561462E-02  0.1264505E+00
          2   -1    0    0  501    0  0.00000000000E+00  0.00000000000E+00  0.42980262176E+03  0.42980262176E+03  0.00000000000E+00 0.  1.
         -2   -1    0    0    0  501 -0.00000000000E+00 -0.00000000000E+00 -0.37247739916E+02  0.37247739916E+02  0.00000000000E+00 0. -1.
         25    2    1    2    0    0  0.65799713078E+02  0.29910588833E+01  0.21828482425E+03  0.26006614809E+03  0.12509032022E+03 0.  0.
         23    2    1    2    0    0 -0.65799713078E+02 -0.29910588833E+01  0.17427005760E+03  0.20698421358E+03  0.90187931693E+02 0.  0.
          5    1    3    3  502    0  0.95473687951E+01 -0.37113795776E+02  0.89337351612E+01  0.39571076706E+02  0.41800000000E+01 0. -1.
         -5    1    3    3    0  502  0.56252344283E+02  0.40104854659E+02  0.20935108908E+03  0.22049507139E+03  0.41800000000E+01 0. -1.
        -11    1    4    4    0    0  0.13836503739E+02 -0.22166872202E+02  0.22336431632E+02  0.34376376147E+02  0.00000000000E+00 0. -1.
         11    1    4    4    0    0 -0.79636216817E+02  0.19175813319E+02  0.15193362597E+03  0.17260783744E+03  0.00000000000E+00 0.  1.
</event>
<event>
 8    1  0.6901948E-009  0.1137783E+03  0.7561462E-02  0.1253729E+00
         -2   -1    0    0    0  501 -0.00000000000E+00  0.00000000000E+00  0.40408030851E+02  0.40408030851E+02  0.00000000000E+00 0.  1.
          2   -1    0    0  501    0  0.00000000000E+00 -0.00000000000E+00 -0.64607597519E+03  0.64607597519E+03  0.00000000000E+00 0. -1.
         25    2    1    2    0    0 -0.55639445753E+01 -0.55562570114E+02 -0.99970416338E+02  0.16958865521E+03  0.12509225058E+03 0.  0.
         23    2    1    2    0    0  0.55639445753E+01  0.55562570114E+02 -0.50569752800E+03  0.51689535083E+03  0.91283389573E+02 0.  0.
          5    1    3    3  502    0 -0.12353318700E+02 -0.87615752329E+02 -0.32297606271E+02  0.94285376968E+02  0.41800000000E+01 0. -1.
         -5    1    3    3    0  502  0.67893741245E+01  0.32053182215E+02 -0.67672810067E+02  0.75303278239E+02  0.41800000000E+01 0. -1.
        -11    1    4    4    0    0 -0.27158110756E+02 -0.12899241774E+02 -0.17850696896E+03  0.18102124568E+03  0.00000000000E+00 0.  1.
         11    1    4    4    0    0  0.32722055332E+02  0.68461811888E+02 -0.32719055903E+03  0.33587410515E+03  0.00000000000E+00 0. -1.
</event>
<event>
 8    1  0.6901948E-009  0.8771416E+02  0.7561462E-02  0.1308484E+00
         -2   -1    0    0    0  501 -0.00000000000E+00  0.00000000000E+00  0.21775069527E+03  0.21775069527E+03  0.00000000000E+00 0.  1.
          2   -1    0    0  501    0  0.00000000000E+00 -0.00000000000E+00 -0.68423966200E+02  0.68423966200E+02  0.00000000000E+00 0. -1.
         25    2    1    2    0    0 -0.27834471033E+01 -0.11736354192E+02  0.18410364654E+02  0.12701566286E+03  0.12509415453E+03 0.  0.
         23    2    1    2    0    0  0.27834471033E+01  0.11736354192E+02  0.13091636442E+03  0.15915899861E+03  0.89705087809E+02 0.  0.
          5    1    3    3  502    0  0.27980097976E+02 -0.35823411912E+02 -0.37226031548E+02  0.58902058950E+02  0.41800000000E+01 0.  1.
         -5    1    3    3    0  502 -0.30763545079E+02  0.24087057719E+02  0.55636396202E+02  0.68113603911E+02  0.41800000000E+01 0.  1.
        -11    1    4    4    0    0 -0.42174372845E+02 -0.50957160790E+01  0.59566773440E+02  0.73163136519E+02  0.00000000000E+00 0. -1.
         11    1    4    4    0    0  0.44957819948E+02  0.16832070271E+02  0.71349590981E+02  0.85995862094E+02  0.00000000000E+00 0.  1.
</event>
<event>
 8    1  0.6901948E-009  0.1590069E+03  0.7561462E-02  0.1189822E+00
         -2   -1    0    0    0  501 -0.00000000000E+00  0.00000000000E+00  0.46442799010E+02  0.46442799010E+02  0.00000000000E+00 0.  1.
          2   -1    0    0  501    0  0.00000000000E+00 -0.00000000000E+00 -0.80122325457E+03  0.80122325457E+03  0.00000000000E+00 0. -1.
         25    2    1    2    0    0 -0.92874583979E+02 -0.92486051061E+02 -0.19781720666E+03  0.26825102785E+03  0.12509040211E+03 0.  0.
         23    2    1    2    0    0  0.92874583979E+02  0.92486051061E+02 -0.55696324890E+03  0.57941502573E+03  0.91292680046E+02 0.  0.
          5    1    3    3  502    0  0.18048791433E+02 -0.15110212259E+02  0.50160835016E+01  0.24427666291E+02  0.41800000000E+01 0.  1.
         -5    1    3    3    0  502 -0.11092337541E+03 -0.77375838802E+02 -0.20283329016E+03  0.24382336156E+03  0.41800000000E+01 0.  1.
        -11    1    4    4    0    0  0.10285521422E+03  0.48541469843E+02 -0.42572439294E+03  0.44065488552E+03  0.00000000000E+00 0. -1.
         11    1    4    4    0    0 -0.99806302454E+01  0.43944581218E+02 -0.13123885596E+03  0.13876014021E+03  0.00000000000E+00 0.  1.
</event>
<event>
 7    1  0.6901948E-009  0.8019151E+02  0.7561462E-02  0.1328509E+00
         -2   -1    0    0    0  501 -0.00000000000E+00  0.00000000000E+00  0.24017894946E+02  0.24017894946E+02  0.00000000000E+00 0.  1.
          2   -1    0    0  501    0  0.00000000000E+00 -0.00000000000E+00 -0.63124762567E+03  0.63124762567E+03  0.00000000000E+00 0. -1.
         23    2    1    2    0    0  0.12498804551E+02  0.30385764732E+02 -0.14731250083E+03  0.17753040877E+03  0.93469558262E+02 0.  0.
          5    1    1    2  502    0 -0.19140327057E+01 -0.57074895759E+02 -0.43707120220E+03  0.44080598390E+03  0.41800000000E+01 0.  1.
         -5    1    1    2    0  502 -0.10584771845E+02  0.26689131028E+02 -0.22846027693E+02  0.36929127953E+02  0.41800000000E+01 0.  1.
        -11    1    3    3    0    0 -0.23193162003E+02 -0.51340978213E+01 -0.21141944828E+01  0.23848512373E+02  0.00000000000E+00 0.  1.
         11    1    3    3    0    0  0.35691966553E+02  0.35519862553E+02 -0.14519830635E+03  0.15368189639E+03  0.00000000000E+00 0. -1.
</event>
<event>
 8    1  0.6901948E-009  0.2075291E+03  0.7561462E-02  0.1143538E+00
         -2   -1    0    0    0  501 -0.00000000000E+00  0.00000000000E+00  0.27408498128E+02  0.27408498128E+02  0.00000000000E+00 0.  1.
          2   -1    0    0  501    0  0.00000000000E+00 -0.00000000000E+00 -0.18958472996E+04  0.18958472996E+04  0.00000000000E+00 0. -1.
         25    2    1    2    0    0 -0.12130840559E+03 -0.15930478450E+03 -0.97982020181E+03  0.10078634746E+04  0.12508961554E+03 0.  0.
         23    2    1    2    0    0  0.12130840559E+03  0.15930478450E+03 -0.88861859963E+03  0.91539232310E+03  0.90588884283E+02 0.  0.
          5    1    3    3  502    0 -0.66126428772E+02 -0.27259188819E+02 -0.55410075429E+03  0.55871359949E+03  0.41800000000E+01 0.  1.
         -5    1    3    3    0  502 -0.55181976815E+02 -0.13204559568E+03 -0.42571944752E+03  0.44914987510E+03  0.41800000000E+01 0.  1.
        -11    1    4    4    0    0  0.35064643205E+02  0.47025527509E+02 -0.11687517556E+03  0.13076978284E+03  0.00000000000E+00 0.  1.
         11    1    4    4    0    0  0.86243762383E+02  0.11227925699E+03 -0.77174342407E+03  0.78462254026E+03  0.00000000000E+00 0. -1.
</event>
<event>
 8    1  0.6901948E-009  0.1338047E+03  0.7561462E-02  0.1221917E+00
          1   -1    0    0  501    0  0.00000000000E+00  0.00000000000E+00  0.17551027238E+03  0.17551027238E+03  0.00000000000E+00 0. -1.
         -1   -1    0    0    0  501 -0.00000000000E+00 -0.00000000000E+00 -0.20014540549E+03  0.20014540549E+03  0.00000000000E+00 0.  1.
         25    2    1    2    0    0  0.99075410983E+02  0.45475223434E+02  0.95498922993E+02  0.19144588381E+03  0.12509016399E+03 0.  0.
         23    2    1    2    0    0 -0.99075410983E+02 -0.45475223434E+02 -0.12013405610E+03  0.18420979407E+03  0.87276135265E+02 0.  0.
          5    1    3    3  502    0  0.76442789060E+02 -0.22562903819E+02  0.88665067275E+02  0.11929606524E+03  0.41800000000E+01 0.  1.
         -5    1    3    3    0  502  0.22632621923E+02  0.68038127252E+02  0.68338557182E+01  0.72149818566E+02  0.41800000000E+01 0.  1.
        -11    1    4    4    0    0 -0.59500743854E+02 -0.55550864893E+01 -0.11262661554E+03  0.12749883149E+03  0.00000000000E+00 0.  1.
         11    1    4    4    0    0 -0.39574667128E+02 -0.39920136944E+02 -0.75074405643E+01  0.56710962572E+02  0.00000000000E+00 0. -1.
</event>
<event>
 8    1  0.6901948E-009  0.2453879E+03  0.7561462E-02  0.1116255E+00
          1   -1    0    0  501    0  0.00000000000E+00  0.00000000000E+00  0.11284972726E+04  0.11284972726E+04  0.00000000000E+00 0. -1.
         -1   -1    0    0    0  501 -0.00000000000E+00 -0.00000000000E+00 -0.94870127489E+02  0.94870127489E+02  0.00000000000E+00 0.  1.
         25    2    1    2    0    0 -0.15459310935E+03  0.15753684200E+03  0.12519252291E+03  0.28290811753E+03  0.12508776569E+03 0.  0.
         23    2    1    2    0    0  0.15459310935E+03 -0.15753684200E+03  0.90843462218E+03  0.94045928254E+03  0.10243687465E+03 0.  0.
          5    1    3    3  502    0 -0.12724133587E+03  0.17823281562E+03  0.11102574793E+03  0.24556360321E+03  0.41800000000E+01 0.  1.
         -5    1    3    3    0  502 -0.27351773484E+02 -0.20695973620E+02  0.14166774982E+02  0.37344514325E+02  0.41800000000E+01 0.  1.
        -11    1    4    4    0    0  0.50251687792E+02 -0.25013947343E+01  0.11885311657E+03  0.12906414072E+03  0.00000000000E+00 0. -1.
         11    1    4    4    0    0  0.10434142156E+03 -0.15503544726E+03  0.78958150562E+03  0.81139514182E+03  0.00000000000E+00 0.  1.
</event>
<event>
 8    1  0.6901948E-009  0.9525567E+02  0.7561462E-02  0.1290601E+00
         -2   -1    0    0    0  501 -0.00000000000E+00  0.00000000000E+00  0.52893042704E+02  0.52893042704E+02  0.00000000000E+00 0.  1.
          2   -1    0    0  501    0  0.00000000000E+00 -0.00000000000E+00 -0.26539533584E+03  0.26539533584E+03  0.00000000000E+00 0. -1.
         25    2    1    2    0    0  0.22406619623E+00  0.38521772177E+02 -0.16593789964E+03  0.21134490003E+03  0.12508918056E+03 0.  0.
         23    2    1    2    0    0 -0.22406619623E+00 -0.38521772177E+02 -0.46564393498E+02  0.10694347852E+03  0.88230877351E+02 0.  0.
          5    1    3    3  502    0 -0.31635562462E+02  0.50753106227E+02 -0.16649372492E+03  0.17695852463E+03  0.41800000000E+01 0. -1.
         -5    1    3    3    0  502  0.31859628658E+02 -0.12231334050E+02  0.55582527965E+00  0.34386375392E+02  0.41800000000E+01 0. -1.
        -11    1    4    4    0    0  0.21139946437E+02  0.22888778834E+02 -0.17333107847E+02  0.35654314739E+02  0.00000000000E+00 0.  1.
         11    1    4    4    0    0 -0.21364012634E+02 -0.61410551011E+02 -0.29231285651E+02  0.71289163777E+02  0.00000000000E+00 0. -1.
</event>
<event>
 8    1  0.6901948E-009  0.7639181E+02  0.7561462E-02  0.1339614E+00
          1   -1    0    0  501    0  0.00000000000E+00  0.00000000000E+00  0.21271436734E+03  0.21271436734E+03  0.00000000000E+00 0. -1.
         -1   -1    0    0    0  501 -0.00000000000E+00 -0.00000000000E+00 -0.68836421282E+02  0.68836421282E+02  0.00000000000E+00 0.  1.
         25    2    1    2    0    0  0.45118941171E+02  0.17707878794E+02  0.52958765337E+02  0.14422710780E+03  0.12509012740E+03 0.  0.
         23    2    1    2    0    0 -0.45118941171E+02 -0.17707878794E+02  0.90919180724E+02  0.13732368083E+03  0.90786607323E+02 0.  0.
          5    1    3    3  502    0 -0.32635372574E+01 -0.39191658184E+01  0.82935362023E+02  0.83197098567E+02  0.41800000000E+01 0.  1.
         -5    1    3    3    0  502  0.48382478428E+02  0.21627044612E+02 -0.29976596686E+02  0.61030009228E+02  0.41800000000E+01 0.  1.
        -11    1    4    4    0    0 -0.50364304325E+02  0.20562761724E+02  0.22739703275E+02  0.58961719997E+02  0.00000000000E+00 0.  1.
         11    1    4    4    0    0  0.52453631547E+01 -0.38270640518E+02  0.68179477449E+02  0.78361960832E+02  0.00000000000E+00 0. -1.
</event>
<event>
 8    1  0.6901948E-009  0.9913590E+02  0.7561462E-02  0.1282124E+00
         -1   -1    0    0    0  501 -0.00000000000E+00  0.00000000000E+00  0.20844635023E+03  0.20844635023E+03  0.00000000000E+00 0.  1.
          1   -1    0    0  501    0  0.00000000000E+00 -0.00000000000E+00 -0.68621021820E+02  0.68621021820E+02  0.00000000000E+00 0. -1.
         25    2    1    2    0    0  0.20352854377E+02  0.27387397915E+02  0.12184634707E+03  0.17792665191E+03  0.12508818057E+03 0.  0.
         23    2    1    2    0    0 -0.20352854377E+02 -0.27387397915E+02  0.17978981348E+02  0.99140720148E+02  0.91330884017E+02 0.  0.
          5    1    3    3  502    0  0.68429583309E+02  0.16698151478E+02  0.10337319404E+03  0.12515960123E+03  0.41800000000E+01 0.  1.
         -5    1    3    3    0  502 -0.48076728932E+02  0.10689246438E+02  0.18473153028E+02  0.52767050675E+02  0.41800000000E+01 0.  1.
        -11    1    4    4    0    0  0.74668886633E+01  0.21099463965E+02 -0.21238782977E+02  0.30854946253E+02  0.00000000000E+00 0. -1.
         11    1    4    4    0    0 -0.27819743041E+02 -0.48486861881E+02  0.39217764325E+02  0.68285773896E+02  0.00000000000E+00 0.  1.
</event>
<event>
 8    1  0.6901948E-009  0.9920149E+02  0.7561462E-02  0.1281984E+00
         -2   -1    0    0    0  501 -0.00000000000E+00  0.00000000000E+00  0.53028927157E+03  0.53028927157E+03  0.00000000000E+00 0.  1.
          2   -1    0    0  501    0  0.00000000000E+00 -0.00000000000E+00 -0.24110469498E+02  0.24110469498E+02  0.00000000000E+00 0. -1.
         25    2    1    2    0    0  0.96611434473E+01  0.34655121385E+02  0.28927632769E+03  0.31719317512E+03  0.12504559748E+03 0.  0.
         23    2    1    2    0    0 -0.96611434473E+01 -0.34655121385E+02  0.21690247438E+03  0.23720656594E+03  0.89027840615E+02 0.  0.
          5    1    3    3  502    0  0.57918372040E+02  0.35581675389E+01  0.72777769133E+02  0.93173357008E+02  0.41800000000E+01 0. -1.
         -5    1    3    3    0  502 -0.48257228593E+02  0.31096953846E+02  0.21649855856E+03  0.22401981811E+03  0.41800000000E+01 0. -1.
        -11    1    4    4    0    0 -0.69964668609E+01 -0.58376173241E+02  0.19862052573E+03  0.20713966639E+03  0.00000000000E+00 0.  1.
         11    1    4    4    0    0 -0.26646765865E+01  0.23721051856E+02  0.18281948649E+02  0.30066899555E+02  0.00000000000E+00 0. -1.
</event>
<event>
 8    1  0.6901948E-009  0.9155760E+02  0.7561462E-02  0.1299123E+00
          2   -1    0    0  501    0  0.00000000000E+00  0.00000000000E+00  0.60509555210E+03  0.60509555210E+03  0.00000000000E+00 0. -1.
         -2   -1    0    0    0  501 -0.00000000000E+00 -0.00000000000E+00 -0.19491729622E+02  0.19491729622E+02  0.00000000000E+00 0.  1.
         25    2    1    2    0    0  0.18511762613E+02  0.11619078082E+02  0.32213186803E+03  0.34625743305E+03  0.12509029225E+03 0.  0.
         23    2    1    2    0    0 -0.18511762613E+02 -0.11619078082E+02  0.26347195445E+03  0.27832984867E+03  0.87019225160E+02 0.  0.
          5    1    3    3  502    0 -0.14296749796E+01 -0.39827197502E+02  0.33093774212E+02  0.51970375436E+02  0.41800000000E+01 0. -1.
         -5    1    3    3    0  502  0.19941437593E+02  0.51446275584E+02  0.28903809382E+03  0.29428705762E+03  0.41800000000E+01 0. -1.
        -11    1    4    4    0    0  0.72205693171E+01  0.34311011371E+02  0.77756371073E+02  0.85296162663E+02  0.00000000000E+00 0. -1.
         11    1    4    4    0    0 -0.25732331930E+02 -0.45930089453E+02  0.18571558338E+03  0.19303368601E+03  0.00000000000E+00 0.  1.
</event>
<event>
 8    1  0.6901948E-009  0.1085258E+03  0.7561462E-02  0.1263324E+00
          2   -1    0    0  501    0  0.00000000000E+00  0.00000000000E+00  0.31226707546E+03  0.31226707546E+03  0.00000000000E+00 0. -1.
         -2   -1    0    0    0  501 -0.00000000000E+00 -0.00000000000E+00 -0.59324711530E+02  0.59324711530E+02  0.00000000000E+00 0.  1.
         25    2    1    2    0    0  0.42908257456E+02  0.68812999818E+02  0.16408673063E+03  0.22169516083E+03  0.12509173299E+03 0.  0.
         23    2    1    2    0    0 -0.42908257456E+02 -0.68812999818E+02  0.88855633293E+02  0.14989662616E+03  0.89427777918E+02 0.  0.
          5    1    3    3  502    0  0.52070938528E+02  0.83113658543E+02  0.57675603127E+02  0.11385609545E+03  0.41800000000E+01 0. -1.
         -5    1    3    3    0  502 -0.91626810721E+01 -0.14300658724E+02  0.10641112751E+03  0.10783906538E+03  0.41800000000E+01 0. -1.
        -11    1    4    4    0    0 -0.35683759402E+01  0.11458087485E+02  0.51725312356E+02  0.53099237414E+02  0.00000000000E+00 0. -1.
         11    1    4    4    0    0 -0.39339881516E+02 -0.80271087303E+02  0.37130320938E+02  0.96797388743E+02  0.00000000000E+00 0.  1.
</event>
<event>
 8    1  0.6901948E-009  0.1129015E+03  0.7561462E-02  0.1255289E+00
          2   -1    0    0  501    0  0.00000000000E+00  0.00000000000E+00  0.26917820429E+03  0.26917820429E+03  0.00000000000E+00 0.  1.
         -2   -1    0    0    0  501 -0.00000000000E+00 -0.00000000000E+00 -0.11014421949E+03  0.11014421949E+03  0.00000000000E+00 0. -1.
         25    2    1    2    0    0  0.39410299936E+02 -0.92688107505E+02 -0.11771422150E+02  0.16103265372E+03  0.12509473279E+03 0.  0.
         23    2    1    2    0    0 -0.39410299936E+02  0.92688107505E+02  0.17080540695E+03  0.21828977006E+03  0.91278034909E+02 0.  0.
          5    1    3    3  502    0 -0.10630835782E+02  0.68540012303E+01  0.37011804813E+02  0.39336218652E+02  0.41800000000E+01 0.  1.
         -5    1    3    3    0  502  0.50041135717E+02 -0.99542108735E+02 -0.48783226963E+02  0.12169643507E+03  0.41800000000E+01 0.  1.
        -11    1    4    4    0    0 -0.23045086969E+02  0.63126717450E+02  0.30189716017E+02  0.73671415370E+02  0.00000000000E+00 0. -1.
         11    1    4    4    0    0 -0.16365212967E+02  0.29561390054E+02  0.14061569093E+03  0.14461835469E+03  0.00000000000E+00 0.  1.
</event>
<event>
 8    1  0.6901948E-009  0.1241758E+03  0.7561462E-02  0.1236363E+00
          2   -1    0    0  501    0  0.00000000000E+00  0.00000000000E+00  0.11571907484E+04  0.11571907484E+04  0.00000000000E+00 0. -1.
         -2   -1    0    0    0  501 -0.00000000000E+00 -0.00000000000E+00 -0.15566686312E+02  0.15566686312E+02  0.00000000000E+00 0.  1.
         25    2    1    2    0    0  0.56857632126E+02 -0.53683714776E+02  0.62613724810E+03  0.64328084503E+03  0.12509060943E+03 0.  0.
         23    2    1    2    0    0 -0.56857632126E+02  0.53683714776E+02  0.51548681397E+03  0.52947658966E+03  0.92217525763E+02 0.  0.
          5    1    3    3  502    0  0.62612069021E+02 -0.81644942222E+02  0.32881349986E+03  0.34456052860E+03  0.41800000000E+01 0.  1.
         -5    1    3    3    0  502 -0.57544368953E+01  0.27961227446E+02  0.29732374824E+03  0.29872031644E+03  0.41800000000E+01 0.  1.
        -11    1    4    4    0    0 -0.66778169157E+00  0.59980632984E+02  0.19421590802E+03  0.20326815095E+03  0.00000000000E+00 0.  1.
         11    1    4    4    0    0 -0.56189850435E+02 -0.62969182082E+01  0.32127090595E+03  0.32620843871E+03  0.00000000000E+00 0. -1.
</event>
<event>
 8    1  0.6901948E-009  0.1662694E+03  0.7561462E-02  0.1181795E+00
         -1   -1    0    0    0  501 -0.00000000000E+00  0.00000000000E+00  0.81137845529E+03  0.81137845529E+03  0.00000000000E+00 0.  1.
          1   -1    0    0  501    0  0.00000000000E+00 -0.00000000000E+00 -0.48300651684E+02  0.48300651684E+02  0.00000000000E+00 0. -1.
         25    2    1    2    0    0  0.30681164442E+01 -0.13481267713E+03  0.59941220323E+03  0.62699839999E+03  0.12509249758E+03 0.  0.
         23    2    1    2    0    0 -0.30681164442E+01  0.13481267713E+03  0.16366560038E+03  0.23268070699E+03  0.95760176510E+02 0.  0.
          5    1    3    3  502    0 -0.76546088987E+01 -0.15780305556E+03  0.52477377740E+03  0.54805600738E+03  0.41800000000E+01 0.  1.
         -5    1    3    3    0  502  0.10722725343E+02  0.22990378435E+02  0.74638425830E+02  0.78942392602E+02  0.41800000000E+01 0.  1.
        -11    1    4    4    0    0 -0.31898284405E+02  0.51016811933E+02  0.11922032588E+03  0.13354288356E+03  0.00000000000E+00 0.  1.
         11    1    4    4    0    0  0.28830167961E+02  0.83795865195E+02  0.44445274500E+02  0.99137823427E+02  0.00000000000E+00 0. -1.
</event>
<event>
 8    1  0.6901948E-009  0.1417322E+03  0.7561462E-02  0.1211017E+00
         -2   -1    0    0    0  501 -0.00000000000E+00  0.00000000000E+00  0.10474651654E+03  0.10474651654E+03  0.00000000000E+00 0.  1.
          2   -1    0    0  501    0  0.00000000000E+00 -0.00000000000E+00 -0.24168344075E+03  0.24168344075E+03  0.00000000000E+00 0. -1.
         25    2    1    2    0    0  0.10704733091E+03 -0.38494622732E+02 -0.98331219792E+02  0.19559724797E+03  0.12509311569E+03 0.  0.
         23    2    1    2    0    0 -0.10704733091E+03  0.38494622732E+02 -0.38605704421E+02  0.15083270932E+03  0.91209312850E+02 0.  0.
          5    1    3    3  502    0  0.10783009965E+03  0.18709137170E+02 -0.79096465136E+02  0.13509657805E+03  0.41800000000E+01 0. -1.
         -5    1    3    3    0  502 -0.78276873798E+00 -0.57203759902E+02 -0.19234754656E+02  0.60500669918E+02  0.41800000000E+01 0. -1.
        -11    1    4    4    0    0 -0.16874908082E+02 -0.32997602107E+01  0.26809448828E+02  0.31849607324E+02  0.00000000000E+00 0.  1.
         11    1    4    4    0    0 -0.90172422832E+02  0.41794382943E+02 -0.65415153249E+02  0.11898310199E+03  0.00000000000E+00 0. -1.
</event>
<event>
 8    1  0.6901948E-009  0.1851982E+03  0.7561462E-02  0.1162865E+00
          2   -1    0    0  501    0  0.00000000000E+00  0.00000000000E+00  0.14247563432E+03  0.14247563432E+03  0.00000000000E+00 0. -1.
         -2   -1    0    0    0  501 -0.00000000000E+00 -0.00000000000E+00 -0.29663933890E+03  0.29663933890E+03  0.00000000000E+00 0.  1.
         25    2    1    2    0    0 -0.23143064374E+02 -0.17269474483E+03 -0.73699578516E+02  0.22680170944E+03  0.12509321008E+03 0.  0.
         23    2    1    2    0    0  0.23143064374E+02  0.17269474483E+03 -0.80464126061E+02  0.21231326378E+03  0.90793006750E+02 0.  0.
          5    1    3    3  502    0  0.60787669161E+01 -0.12786788714E+03 -0.10415967711E+03  0.16508742746E+03  0.41800000000E+01 0.  1.
         -5    1    3    3    0  502 -0.29221831291E+02 -0.44826857687E+02  0.30460098589E+02  0.61714281979E+02  0.41800000000E+01 0.  1.
        -11    1    4    4    0    0  0.44305593874E+02  0.15452056269E+03 -0.88214291191E+02  0.18336125848E+03  0.00000000000E+00 0.  1.
         11    1    4    4    0    0 -0.21162529500E+02  0.18174182143E+02  0.77501651296E+01  0.28952005301E+02  0.00000000000E+00 0. -1.
</event>
<event>
 8    1  0.6901948E-009  0.1760780E+03  0.7561462E-02  0.1171654E+00
          1   -1    0    0  501    0  0.00000000000E+00  0.00000000000E+00  0.45965564394E+03  0.45965564394E+03  0.00000000000E+00 0. -1.
         -1   -1    0    0    0  501 -0.00000000000E+00 -0.00000000000E+00 -0.90711467575E+02  0.90711467575E+02  0.00000000000E+00 0.  1.
         25    2    1    2    0    0 -0.12126480553E+03  0.11679202431E+03  0.14544515735E+03  0.25524140466E+03  0.12509336854E+03 0.  0.
         23    2    1    2    0    0  0.12126480553E+03 -0.11679202431E+03  0.22349901902E+03  0.29512570686E+03  0.93818129058E+02 0.  0.
          5    1    3    3  502    0 -0.11172739945E+03  0.10875885967E+03  0.57375897835E+02  0.16619556972E+03  0.41800000000E+01 0. -1.
         -5    1    3    3    0  502 -0.95374060881E+01  0.80331646470E+01  0.88069259513E+02  0.89045834941E+02  0.41800000000E+01 0. -1.
        -11    1    4    4    0    0  0.12756934241E+03 -0.91577824548E+02  0.14999146343E+03  0.21715863827E+03  0.00000000000E+00 0.  1.
         11    1    4    4    0    0 -0.63045368808E+01 -0.25214199767E+02  0.73507555593E+02  0.77967068590E+02  0.00000000000E+00 0. -1.
</event>
<event>
 8    1  0.6901948E-009  0.1343312E+03  0.7561462E-02  0.1221167E+00
         -2   -1    0    0    0  501 -0.00000000000E+00  0.00000000000E+00  0.32875390802E+02  0.32875390802E+02  0.00000000000E+00 0.  1.
          2   -1    0    0  501    0  0.00000000000E+00 -0.00000000000E+00 -0.74668098405E+03  0.74668098405E+03  0.00000000000E+00 0. -1.
         25    2    1    2    0    0  0.57621569620E+02 -0.67226982047E+02 -0.56078265441E+03  0.58134712104E+03  0.12509027643E+03 0.  0.
         23    2    1    2    0    0 -0.57621569620E+02  0.67226982047E+02 -0.15302293884E+03  0.19820925381E+03  0.89616829246E+02 0.  0.
          5    1    3    3  502    0  0.20149896848E+02  0.34317895924E+02 -0.94024308353E+02  0.10218502476E+03  0.41800000000E+01 0.  1.
         -5    1    3    3    0  502  0.37471672772E+02 -0.10154487797E+03 -0.46675834606E+03  0.47916209628E+03  0.41800000000E+01 0.  1.
        -11    1    4    4    0    0 -0.74979920027E+02  0.70204664842E+02 -0.10423928348E+03  0.14634381296E+03  0.00000000000E+00 0.  1.
         11    1    4    4    0    0  0.17358350406E+02 -0.29776827954E+01 -0.48783655364E+02  0.51865440848E+02  0.00000000000E+00 0. -1.
</event>
<event>
 8    1  0.6901948E-009  0.1440063E+03  0.7561462E-02  0.1208038E+00
          2   -1    0    0  501    0  0.00000000000E+00  0.00000000000E+00  0.80309952740E+02  0.80309952740E+02  0.00000000000E+00 0. -1.
         -2   -1    0    0    0  501 -0.00000000000E+00 -0.00000000000E+00 -0.43300747232E+03  0.43300747232E+03  0.00000000000E+00 0.  1.
         25    2    1    2    0    0 -0.78114572301E+02 -0.73421129980E+02 -0.41120424376E+02  0.16979577655E+03  0.12508863937E+03 0.  0.
         23    2    1    2    0    0  0.78114572301E+02  0.73421129980E+02 -0.31157709520E+03  0.34352164851E+03  0.97130263084E+02 0.  0.
          5    1    3    3  502    0 -0.11060958895E+03 -0.54436059462E+02 -0.16067227983E+02  0.12439209763E+03  0.41800000000E+01 0.  1.
         -5    1    3    3    0  502  0.32495016651E+02 -0.18985070518E+02 -0.25053196393E+02  0.45403678917E+02  0.41800000000E+01 0.  1.
        -11    1    4    4    0    0  0.14875047141E+01  0.45067373687E+02 -0.41237097439E+02  0.61104656504E+02  0.00000000000E+00 0.  1.
         11    1    4    4    0    0  0.76627067587E+02  0.28353756293E+02 -0.27033999776E+03  0.28241699200E+03  0.00000000000E+00 0. -1.
</event>
<event>
 8    1  0.6901948E-009  0.1055504E+03  0.7561462E-02  0.1269039E+00
         -4   -1    0    0    0  501 -0.00000000000E+00  0.00000000000E+00  0.16104510498E+03  0.16104510498E+03  0.00000000000E+00 0. -1.
          4   -1    0    0  501    0  0.00000000000E+00 -0.00000000000E+00 -0.11954501310E+03  0.11954501310E+03  0.00000000000E+00 0.  1.
         25    2    1    2    0    0  0.32268489847E+01  0.21118335058E+02 -0.61765810872E+02  0.14113219312E+03  0.12508750502E+03 0.  0.
         23    2    1    2    0    0 -0.32268489847E+01 -0.21118335058E+02  0.10326590276E+03  0.13945792496E+03  0.91259353120E+02 0.  0.
          5    1    3    3  502    0 -0.42529137868E+02 -0.32492802482E+02 -0.40956122454E+02  0.67523226725E+02  0.41800000000E+01 0. -1.
         -5    1    3    3    0  502  0.45755986853E+02  0.53611137540E+02 -0.20809688418E+02  0.73608966392E+02  0.41800000000E+01 0. -1.
        -11    1    4    4    0    0  0.39888528157E+02 -0.17452581583E+02  0.78058333222E+02  0.89380035063E+02  0.00000000000E+00 0. -1.
         11    1    4    4    0    0 -0.43115377142E+02 -0.36657534743E+01  0.25207569535E+02  0.50077889897E+02  0.00000000000E+00 0.  1.
</event>
<event>
 8    1  0.6901948E-009  0.1224699E+03  0.7561462E-02  0.1239077E+00
         -1   -1    0    0    0  501 -0.00000000000E+00  0.00000000000E+00  0.68459486972E+02  0.68459486972E+02  0.00000000000E+00 0.  1.
          1   -1    0    0  501    0  0.00000000000E+00 -0.00000000000E+00 -0.25494423527E+03  0.25494423527E+03  0.00000000000E+00 0. -1.
         25    2    1    2    0    0  0.66147241690E+02 -0.35179373255E+02 -0.85831400597E+02  0.16919840369E+03  0.12509206449E+03 0.  0.
         23    2    1    2    0    0 -0.66147241690E+02  0.35179373255E+02 -0.10065334770E+03  0.15420531855E+03  0.89638931159E+02 0.  0.
          5    1    3    3  502    0  0.58603455689E+02  0.27492448597E+02 -0.83709102281E+02  0.10590035861E+03  0.41800000000E+01 0. -1.
         -5    1    3    3    0  502  0.75437860009E+01 -0.62671821852E+02 -0.21222983159E+01  0.63298045085E+02  0.41800000000E+01 0. -1.
        -11    1    4    4    0    0 -0.44024176295E+02 -0.26430763249E+02 -0.43030902872E+02  0.66995312869E+02  0.00000000000E+00 0.  1.
         11    1    4    4    0    0 -0.22123065395E+02  0.61610136504E+02 -0.57622444827E+02  0.87210005678E+02  0.00000000000E+00 0. -1.
</event>
<event>
 8    1  0.6901948E-009  0.1337303E+03  0.7561462E-02  0.1222023E+00
          1   -1    0    0  501    0  0.00000000000E+00  0.00000000000E+00  0.32495826121E+03  0.32495826121E+03  0.00000000000E+00 0. -1.
         -1   -1    0    0    0  501 -0.00000000000E+00 -0.00000000000E+00 -0.65982415212E+02  0.65982415212E+02  0.00000000000E+00 0.  1.
         25    2    1    2    0    0  0.64663503136E+02  0.77416317947E+02  0.15233467706E+03  0.22138943141E+03  0.12503108247E+03 0.  0.
         23    2    1    2    0    0 -0.64663503136E+02 -0.77416317947E+02  0.10664116894E+03  0.16955124501E+03  0.84856530977E+02 0.  0.
          5    1    3    3  502    0  0.19142262332E+02  0.89631338864E+02  0.14766018203E+03  0.17384247143E+03  0.41800000000E+01 0.  1.
         -5    1    3    3    0  502  0.45521240804E+02 -0.12215020917E+02  0.46744950305E+01  0.47546959988E+02  0.41800000000E+01 0.  1.
        -11    1    4    4    0    0 -0.19151689673E+02  0.15692228459E+02  0.68714469899E+01  0.25695330998E+02  0.00000000000E+00 0.  1.
         11    1    4    4    0    0 -0.45511813463E+02 -0.93108546406E+02  0.99769721947E+02  0.14385591401E+03  0.00000000000E+00 0. -1.
</event>
<event>
 8    1  0.6901948E-009  0.1339687E+03  0.7561462E-02  0.1221683E+00
         -2   -1    0    0    0  501 -0.00000000000E+00  0.00000000000E+00  0.31144542383E+03  0.31144542383E+03  0.00000000000E+00 0.  1.
          2   -1    0    0  501    0  0.00000000000E+00 -0.00000000000E+00 -0.91909500932E+02  0.91909500932E+02  0.00000000000E+00 0. -1.
         25    2    1    2    0    0 -0.44308922273E+02 -0.11030781498E+03  0.55892973975E+02  0.18139240012E+03  0.12509230049E+03 0.  0.
         23    2    1    2    0    0  0.44308922273E+02  0.11030781498E+03  0.16364294892E+03  0.22196252464E+03  0.91418012319E+02 0.  0.
          5    1    3    3  502    0 -0.23712389148E+02 -0.80761784660E+02  0.95720257020E+02  0.12753267528E+03  0.41800000000E+01 0. -1.
         -5    1    3    3    0  502 -0.20596533125E+02 -0.29546030320E+02 -0.39827283044E+02  0.53859724833E+02  0.41800000000E+01 0. -1.
        -11    1    4    4    0    0 -0.61656980249E+01  0.94229372624E+02  0.12366616439E+03  0.15559727090E+03  0.00000000000E+00 0.  1.
         11    1    4    4    0    0  0.50474620297E+02  0.16078442356E+02  0.39976784529E+02  0.66365253740E+02  0.00000000000E+00 0. -1.
</event>
<event>
 8    1  0.6901948E-009  0.4653255E+02  0.7561462E-02  0.1464995E+00
         -2   -1    0    0    0  501 -0.00000000000E+00  0.00000000000E+00  0.57504584224E+02  0.57504584224E+02  0.00000000000E+00 0.  1.
          2   -1    0    0  501    0  0.00000000000E+00 -0.00000000000E+00 -0.23987143877E+03  0.23987143877E+03  0.00000000000E+00 0. -1.
         25    2    1    2    0    0 -0.26362371437E+02  0.34558992490E+02 -0.87315420315E+02  0.15861649123E+03  0.12508361234E+03 0.  0.
         23    2    1    2    0    0  0.26362371437E+02 -0.34558992490E+02 -0.95051434235E+02  0.13875953177E+03  0.91269567310E+02 0.  0.
          5    1    3    3  502    0 -0.21464828100E+02  0.14628967737E+02 -0.11831485138E+03  0.12120487614E+03  0.41800000000E+01 0. -1.
         -5    1    3    3    0  502 -0.48975433369E+01  0.19930024753E+02  0.30999431065E+02  0.37411615091E+02  0.41800000000E+01 0. -1.
        -11    1    4    4    0    0  0.20232452003E+02 -0.14650132552E+02 -0.11020446408E+03  0.11300001062E+03  0.00000000000E+00 0. -1.
         11    1    4    4    0    0  0.61299194343E+01 -0.19908859938E+02  0.15153029843E+02  0.25759521147E+02  0.00000000000E+00 0.  1.
</event>
<event>
 8    1  0.6901948E-009  0.8799796E+02  0.7561462E-02  0.1307774E+00
          1   -1    0    0  501    0  0.00000000000E+00  0.00000000000E+00  0.23042923524E+03  0.23042923524E+03  0.00000000000E+00 0. -1.
         -1   -1    0    0    0  501 -0.00000000000E+00 -0.00000000000E+00 -0.67426728396E+02  0.67426728396E+02  0.00000000000E+00 0.  1.
         25    2    1    2    0    0  0.51587892699E+01  0.53008390777E+02  0.58976083332E+02  0.14819502280E+03  0.12508830393E+03 0.  0.
         23    2    1    2    0    0 -0.51587892699E+01 -0.53008390777E+02  0.10402642351E+03  0.14966094083E+03  0.93490094782E+02 0.  0.
          5    1    3    3  502    0  0.71797257380E+01 -0.66662751413E+01  0.83013216855E+02  0.83693812547E+02  0.41800000000E+01 0. -1.
         -5    1    3    3    0  502 -0.20209364681E+01  0.59674665918E+02 -0.24037133523E+02  0.64501210257E+02  0.41800000000E+01 0. -1.
        -11    1    4    4    0    0 -0.40591070422E+02  0.13373105049E+01  0.54870232335E+02  0.68265407008E+02  0.00000000000E+00 0. -1.
         11    1    4    4    0    0  0.35432281152E+02 -0.54345701282E+02  0.49156191175E+02  0.81395533823E+02  0.00000000000E+00 0.  1.
</event>
<event>
 8    1  0.6901948E-009  0.8680280E+02  0.7561462E-02  0.1310784E+00
          1   -1    0    0  501    0  0.00000000000E+00  0.00000000000E+00  0.12542649686E+03  0.12542649686E+03  0.00000000000E+00 0. -1.
         -1   -1    0    0    0  501 -0.00000000000E+00 -0.00000000000E+00 -0.10404931167E+03  0.10404931167E+03  0.00000000000E+00 0.  1.
         25    2    1    2    0    0 -0.21645160756E+02 -0.18631958738E+02  0.36452963805E+02  0.13338587661E+03  0.12508921072E+03 0.  0.
         23    2    1    2    0    0  0.21645160756E+02  0.18631958738E+02 -0.15075778624E+02  0.96089931917E+02  0.90500458806E+02 0.  0.
          5    1    3    3  502    0 -0.42913247341E+02  0.36396774016E+02 -0.11087835486E+02  0.57503777718E+02  0.41800000000E+01 0. -1.
         -5    1    3    3    0  502  0.21268086584E+02 -0.55028732754E+02  0.47540799292E+02  0.75882098896E+02  0.41800000000E+01 0. -1.
        -11    1    4    4    0    0 -0.63212721044E+01  0.27875206179E+02  0.30515797553E+02  0.41811475707E+02  0.00000000000E+00 0. -1.
         11    1    4    4    0    0  0.27966432861E+02 -0.92432474404E+01 -0.45591576177E+02  0.54278456210E+02  0.00000000000E+00 0.  1.
</event>
<event>
 8    1  0.6901948E-009  0.1276095E+03  0.7561462E-02  0.1231046E+00
          1   -1    0    0  501    0  0.00000000000E+00  0.00000000000E+00  0.23022874231E+03  0.23022874231E+03  0.00000000000E+00 0. -1.
         -1   -1    0    0    0  501 -0.00000000000E+00 -0.00000000000E+00 -0.12417928560E+03  0.12417928560E+03  0.00000000000E+00 0.  1.
         25    2    1    2    0    0 -0.86778956586E+02  0.60710898940E+02 -0.19925493684E+02  0.16512796376E+03  0.12511522114E+03 0.  0.
         23    2    1    2    0    0  0.86778956586E+02 -0.60710898940E+02  0.12597495040E+03  0.18928006415E+03  0.93492534463E+02 0.  0.
          5    1    3    3  502    0 -0.21558458471E+02  0.47277444799E+02  0.47317035544E+02  0.70400981322E+02  0.41800000000E+01 0. -1.
         -5    1    3    3    0  502 -0.65220498115E+02  0.13433454141E+02 -0.67242529229E+02  0.94726982437E+02  0.41800000000E+01 0. -1.
        -11    1    4    4    0    0  0.59155472258E+02  0.10417505408E+02  0.31451938822E+02  0.67802055814E+02  0.00000000000E+00 0.  1.
         11    1    4    4    0    0  0.27623484328E+02 -0.71128404348E+02  0.94523011580E+02  0.12147800834E+03  0.00000000000E+00 0. -1.
</event>
<event>
 8    1  0.6901948E-009  0.8166675E+02  0.7561462E-02  0.1324387E+00
          2   -1    0    0  501    0  0.00000000000E+00  0.00000000000E+00  0.18106331306E+03  0.18106331306E+03  0.00000000000E+00 0.  1.
         -2   -1    0    0    0  501 -0.00000000000E+00 -0.00000000000E+00 -0.11832377545E+03  0.11832377545E+03  0.00000000000E+00 0. -1.
         25    2    1    2    0    0  0.58157689889E+02  0.33530682323E+02  0.10636731241E+03  0.17739510569E+03  0.12509354429E+03 0.  0.
         23    2    1    2    0    0 -0.58157689889E+02 -0.33530682323E+02 -0.43627774793E+02  0.12199198282E+03  0.92043672179E+02 0.  0.
          5    1    3    3  502    0  0.38951597355E+02 -0.48637163982E+01  0.12449766450E+03  0.13060636868E+03  0.41800000000E+01 0. -1.
         -5    1    3    3    0  502  0.19206092534E+02  0.38394398721E+02 -0.18130352096E+02  0.46788737007E+02  0.41800000000E+01 0. -1.
        -11    1    4    4    0    0  0.28308297544E+01 -0.17413439753E+02  0.23819987521E+02  0.29641749047E+02  0.00000000000E+00 0.  1.
         11    1    4    4    0    0 -0.60988519644E+02 -0.16117242570E+02 -0.67447762314E+02  0.92350233771E+02  0.00000000000E+00 0. -1.
</event>
<event>
 8    1  0.6901948E-009  0.1097940E+03  0.7561462E-02  0.1260952E+00
          1   -1    0    0  501    0  0.00000000000E+00  0.00000000000E+00  0.54559377077E+03  0.54559377077E+03  0.00000000000E+00 0. -1.
         -1   -1    0    0    0  501 -0.00000000000E+00 -0.00000000000E+00 -0.43666306053E+02  0.43666306053E+02  0.00000000000E+00 0.  1.
         25    2    1    2    0    0 -0.55756982450E+02 -0.53707612899E+02  0.42041291256E+03  0.44540730378E+03  0.12508916994E+03 0.  0.
         23    2    1    2    0    0  0.55756982450E+02  0.53707612899E+02  0.81514552153E+02  0.14385277304E+03  0.89753269156E+02 0.  0.
          5    1    3    3  502    0  0.26672180296E+02 -0.51359481466E+02  0.24131480763E+03  0.24819248643E+03  0.41800000000E+01 0.  1.
         -5    1    3    3    0  502 -0.82429162746E+02 -0.23481314325E+01  0.17909810493E+03  0.19721481735E+03  0.41800000000E+01 0.  1.
        -11    1    4    4    0    0  0.13084553541E+02  0.44386491902E+01 -0.19340551781E+02  0.23768973288E+02  0.00000000000E+00 0.  1.
         11    1    4    4    0    0  0.42672428910E+02  0.49268963709E+02  0.10085510393E+03  0.12008379975E+03  0.00000000000E+00 0. -1.
</event>
<event>
 8    1  0.6901948E-009  0.1117459E+03  0.7561462E-02  0.1257370E+00
          1   -1    0    0  501    0  0.00000000000E+00  0.00000000000E+00  0.44485387402E+03  0.44485387402E+03  0.00000000000E+00 0. -1.
         -1   -1    0    0    0  501 -0.00000000000E+00 -0.00000000000E+00 -0.45729901214E+02  0.45729901214E+02  0.00000000000E+00 0.  1.
         25    2    1    2    0    0  0.42810671689E+02  0.79405328160E+02  0.18180698969E+03  0.23841162947E+03  0.12509342035E+03 0.  0.
         23    2    1    2    0    0 -0.42810671689E+02 -0.79405328160E+02  0.21731698312E+03  0.25217214577E+03  0.90698181891E+02 0.  0.
          5    1    3    3  502    0  0.57192127758E+02  0.35459648518E+02  0.20371910955E+02  0.70433041298E+02  0.41800000000E+01 0. -1.
         -5    1    3    3    0  502 -0.14381456070E+02  0.43945679642E+02  0.16143507873E+03  0.16797858817E+03  0.41800000000E+01 0. -1.
        -11    1    4    4    0    0 -0.50988991281E+02 -0.85426110080E+02  0.22018676164E+03  0.24161893038E+03  0.00000000000E+00 0. -1.
         11    1    4    4    0    0  0.81783195924E+01  0.60207819201E+01 -0.28697785215E+01  0.10553215389E+02  0.00000000000E+00 0.  1.
</event>
<event>
 8    1  0.6901948E-009  0.9749531E+02  0.7561462E-02  0.1285653E+00
         -2   -1    0    0    0  501 -0.00000000000E+00  0.00000000000E+00  0.22532814993E+03  0.22532814993E+03  0.00000000000E+00 0.  1.
          2   -1    0    0  501    0  0.00000000000E+00 -0.00000000000E+00 -0.59064149788E+02  0.59064149788E+02  0.00000000000E+00 0. -1.
         25    2    1    2    0    0  0.29597676624E+01 -0.13932275252E+02  0.59166020998E+02  0.13910895015E+03  0.12509122053E+03 0.  0.
         23    2    1    2    0    0 -0.29597676624E+01  0.13932275252E+02  0.10709797914E+03  0.14528334956E+03  0.97130870509E+02 0.  0.
          5    1    3    3  502    0  0.59660157063E+02 -0.13211682792E+02  0.54625916079E+02  0.82069153830E+02  0.41800000000E+01 0. -1.
         -5    1    3    3    0  502 -0.56700389401E+02 -0.72059246016E+00  0.45401049187E+01  0.57039796321E+02  0.41800000000E+01 0. -1.
        -11    1    4    4    0    0  0.30298182146E+02 -0.14071023522E+02  0.43157837993E+01  0.33683817095E+02  0.00000000000E+00 0. -1.
         11    1    4    4    0    0 -0.33257949808E+02  0.28003298774E+02  0.10278219534E+03  0.11159953247E+03  0.00000000000E+00 0.  1.
</event>
<event>
 8    1  0.6901948E-009  0.3320407E+03  0.7561462E-02  0.1070237E+00
         -1   -1    0    0    0  501 -0.00000000000E+00  0.00000000000E+00  0.17116858805E+03  0.17116858805E+03  0.00000000000E+00 0.  1.
          1   -1    0    0  501    0  0.00000000000E+00 -0.00000000000E+00 -0.10282879286E+04  0.10282879286E+04  0.00000000000E+00 0. -1.
         25    2    1    2    0    0 -0.10001690101E+03  0.31327454720E+03 -0.77123691766E+03  0.84770186265E+03  0.12509093641E+03 0.  0.
         23    2    1    2    0    0  0.10001690101E+03 -0.31327454720E+03 -0.85882422885E+02  0.35175465400E+03  0.90615802344E+02 0.  0.
          5    1    3    3  502    0 -0.66791046420E+02  0.27065539677E+03 -0.72391741831E+03  0.77575079028E+03  0.41800000000E+01 0.  1.
         -5    1    3    3    0  502 -0.33225854595E+02  0.42619150434E+02 -0.47319499345E+02  0.71951072372E+02  0.41800000000E+01 0.  1.
        -11    1    4    4    0    0  0.65849446882E+02 -0.14339296014E+03 -0.83352712762E+02  0.17845269793E+03  0.00000000000E+00 0.  1.
         11    1    4    4    0    0  0.34167454133E+02 -0.16988158706E+03 -0.25297101237E+01  0.17330195607E+03  0.00000000000E+00 0. -1.
</event>
<event>
 8    1  0.6901948E-009  0.1497394E+03  0.7561462E-02  0.1200794E+00
         -2   -1    0    0    0  501 -0.00000000000E+00  0.00000000000E+00  0.14138608193E+03  0.14138608193E+03  0.00000000000E+00 0. -1.
          2   -1    0    0  501    0  0.00000000000E+00 -0.00000000000E+00 -0.19672467998E+03  0.19672467998E+03  0.00000000000E+00 0.  1.
         25    2    1    2    0    0  0.12193361571E+03  0.28150774730E+02 -0.40224860920E+02  0.18145341427E+03  0.12508808639E+03 0.  0.
         23    2    1    2    0    0 -0.12193361571E+03 -0.28150774730E+02 -0.15113737136E+02  0.15665734764E+03  0.93020571719E+02 0.  0.
          5    1    3    3  502    0  0.12326724801E+03  0.14061936459E+01 -0.69484024310E+02  0.14157080860E+03  0.41800000000E+01 0.  1.
         -5    1    3    3    0  502 -0.13336323085E+01  0.26744581084E+02  0.29259163389E+02  0.39882605666E+02  0.41800000000E+01 0.  1.
        -11    1    4    4    0    0 -0.15269802597E+02  0.25432287676E+02 -0.22244714063E+02  0.37078233932E+02  0.00000000000E+00 0. -1.
         11    1    4    4    0    0 -0.10666381311E+03 -0.53583062406E+02  0.71309769269E+01  0.11957911371E+03  0.00000000000E+00 0.  1.
</event>
<event>
 7    1  0.6901948E-009  0.1009165E+03  0.7561462E-02  0.1278380E+00
          1   -1    0    0  501    0  0.00000000000E+00  0.00000000000E+00  0.24050321745E+03  0.24050321745E+03  0.00000000000E+00 0. -1.
         -1   -1    0    0    0  501 -0.00000000000E+00 -0.00000000000E+00 -0.62461462244E+02  0.62461462244E+02  0.00000000000E+00 0.  1.
         25    2    1    2    0    0 -0.33544381161E+02  0.73690346409E+02  0.87187431619E+02  0.17263982939E+03  0.12508944719E+03 0.  0.
          5    1    3    3  502    0  0.27596163901E+02  0.46977315498E+01  0.74244460583E+02  0.79456461481E+02  0.41800000000E+01 0. -1.
         -5    1    3    3    0  502 -0.61140545063E+02  0.68992614859E+02  0.12942971036E+02  0.93183367909E+02  0.41800000000E+01 0. -1.
        -11    1    1    2    0    0  0.22513627626E+02 -0.41381321699E+02  0.19045469600E+02  0.50813454190E+02  0.00000000000E+00 0.  1.
         11    1    1    2    0    0  0.11030753536E+02 -0.32309024710E+02  0.71808853990E+02  0.79511396118E+02  0.00000000000E+00 0. -1.
</event>
<event>
 8    1  0.6901948E-009  0.1136372E+03  0.7561462E-02  0.1253979E+00
         -3   -1    0    0    0  501 -0.00000000000E+00  0.00000000000E+00  0.21503613770E+03  0.21503613770E+03  0.00000000000E+00 0.  1.
          3   -1    0    0  501    0  0.00000000000E+00 -0.00000000000E+00 -0.87863593885E+02  0.87863593885E+02  0.00000000000E+00 0. -1.
         25    2    1    2    0    0  0.79046106744E+02 -0.28890509910E+02  0.41868359489E+02  0.15647066053E+03  0.12508860671E+03 0.  0.
         23    2    1    2    0    0 -0.79046106744E+02  0.28890509910E+02  0.85304184330E+02  0.14642907105E+03  0.84152958543E+02 0.  0.
          5    1    3    3  502    0  0.77973105405E+02 -0.48406750342E+02 -0.17767443642E+02  0.93574425452E+02  0.41800000000E+01 0. -1.
         -5    1    3    3    0  502  0.10730013389E+01  0.19516240432E+02  0.59635803130E+02  0.62896235082E+02  0.41800000000E+01 0. -1.
        -11    1    4    4    0    0 -0.40677029658E+02  0.55435318595E+02  0.32770874698E+02  0.76168402360E+02  0.00000000000E+00 0. -1.
         11    1    4    4    0    0 -0.38369077086E+02 -0.26544808685E+02  0.52533309632E+02  0.70260668695E+02  0.00000000000E+00 0.  1.
</event>
<event>
 8    1  0.6901948E-009  0.1684964E+03  0.7561462E-02  0.1179425E+00
          3   -1    0    0  501    0  0.00000000000E+00  0.00000000000E+00  0.74939204991E+02  0.74939204991E+02  0.00000000000E+00 0. -1.
         -3   -1    0    0    0  501 -0.00000000000E+00 -0.00000000000E+00 -0.54329081514E+03  0.54329081514E+03  0.00000000000E+00 0.  1.
         25    2    1    2    0    0  0.97732858732E+02  0.11372013246E+03 -0.36291345495E+03  0.41211353555E+03  0.12508960866E+03 0.  0.
         23    2    1    2    0    0 -0.97732858732E+02 -0.11372013246E+03 -0.10543815520E+03  0.20611648458E+03  0.94248715863E+02 0.  0.
          5    1    3    3  502    0  0.28606639019E+02  0.77473501454E+02 -0.30171401308E+03  0.31284069638E+03  0.41800000000E+01 0. -1.
         -5    1    3    3    0  502  0.69126219712E+02  0.36246631010E+02 -0.61199441878E+02  0.99272839173E+02  0.41800000000E+01 0. -1.
        -11    1    4    4    0    0 -0.10680303001E+03 -0.12317737090E+03 -0.91367726763E+02  0.18688930792E+03  0.00000000000E+00 0.  1.
         11    1    4    4    0    0  0.90701712821E+01  0.94572384374E+01 -0.14070428435E+02  0.19227176659E+02  0.00000000000E+00 0. -1.
</event>
<event>
 8    1  0.6901948E-009  0.1208798E+03  0.7561462E-02  0.1241653E+00
          1   -1    0    0  501    0  0.00000000000E+00  0.00000000000E+00  0.91146633224E+03  0.91146633224E+03  0.00000000000E+00 0. -1.
         -1   -1    0    0    0  501 -0.00000000000E+00 -0.00000000000E+00 -0.24963726922E+02  0.24963726922E+02  0.00000000000E+00 0.  1.
         25    2    1    2    0    0 -0.50271448048E+02 -0.90148144203E+02  0.42773778770E+03  0.45744726577E+03  0.12507789389E+03 0.  0.
         23    2    1    2    0    0  0.50271448048E+02  0.90148144203E+02  0.45876481761E+03  0.47898279339E+03  0.91134253112E+02 0.  0.
          5    1    3    3  502    0 -0.65455895396E+02 -0.91848909021E+02  0.42691844435E+03  0.44158524302E+03  0.41800000000E+01 0. -1.
         -5    1    3    3    0  502  0.15184447348E+02  0.17007648184E+01  0.81934335825E+00  0.15862022752E+02  0.41800000000E+01 0. -1.
        -11    1    4    4    0    0  0.19350037397E+02  0.17780972560E+01  0.12734988815E+02  0.23232854264E+02  0.00000000000E+00 0.  1.
         11    1    4    4    0    0  0.30921410651E+02  0.88370046947E+02  0.44602982880E+03  0.45574993912E+03  0.00000000000E+00 0. -1.
</event>
<event>
 8    1  0.6901948E-009  0.8940861E+02  0.7561462E-02  0.1304290E+00
          2   -1    0    0  501    0  0.00000000000E+00  0.00000000000E+00  0.66072424893E+02  0.66072424893E+02  0.00000000000E+00 0. -1.
         -2   -1    0    0    0  501 -0.00000000000E+00 -0.00000000000E+00 -0.18980028558E+03  0.18980028558E+03  0.00000000000E+00 0.  1.
         25    2    1    2    0    0  0.22518292544E+02  0.20012343453E+02 -0.45188510480E+02  0.13636949017E+03  0.12508824477E+03 0.  0.
         23    2    1    2    0    0 -0.22518292544E+02 -0.20012343453E+02 -0.78539350203E+02  0.11950322030E+03  0.84882405379E+02 0.  0.
          5    1    3    3  502    0  0.26650306203E+02 -0.41234186339E+02 -0.55243094502E+02  0.74025460714E+02  0.41800000000E+01 0. -1.
         -5    1    3    3    0  502 -0.41320136597E+01  0.61246529792E+02  0.10054584022E+02  0.62344029452E+02  0.41800000000E+01 0. -1.
        -11    1    4    4    0    0 -0.29563051589E+02  0.14403672200E+02 -0.77689966369E+02  0.84363325364E+02  0.00000000000E+00 0.  1.
         11    1    4    4    0    0  0.70447590450E+01 -0.34416015653E+02 -0.84938383406E+00  0.35139894939E+02  0.00000000000E+00 0. -1.
</event>
<event>
 8    1  0.6901948E-009  0.5999498E+02  0.7561462E-02  0.1397853E+00
          2   -1    0    0  501    0  0.00000000000E+00  0.00000000000E+00  0.12246405891E+04  0.12246405891E+04  0.00000000000E+00 0. -1.
         -2   -1    0    0    0  501 -0.00000000000E+00 -0.00000000000E+00 -0.21473401077E+02  0.21473401077E+02  0.00000000000E+00 0.  1.
         25    2    1    2    0    0  0.40840504075E+02 -0.60007870840E+01  0.10735962103E+04  0.10816467142E+04  0.12508731059E+03 0.  0.
         23    2    1    2    0    0 -0.40840504075E+02  0.60007870840E+01  0.12957097766E+03  0.16446727595E+03  0.92503461493E+02 0.  0.
          5    1    3    3  502    0 -0.44079267341E+01 -0.44846835792E+01  0.47816131365E+00  0.75659264562E+01  0.41800000000E+01 0. -1.
         -5    1    3    3    0  502  0.45248430809E+02 -0.15161035048E+01  0.10731180490E+04  0.10740807877E+04  0.41800000000E+01 0. -1.
        -11    1    4    4    0    0 -0.16061684508E+02  0.29009223744E+02  0.28144638497E+01  0.33278130630E+02  0.00000000000E+00 0.  1.
         11    1    4    4    0    0 -0.24778819567E+02 -0.23008436660E+02  0.12675651381E+03  0.13118914532E+03  0.00000000000E+00 0. -1.
</event>
<event>
 8    1  0.6901948E-009  0.2137609E+03  0.7561462E-02  0.1138622E+00
          2   -1    0    0  501    0  0.00000000000E+00  0.00000000000E+00  0.17781723044E+03  0.17781723044E+03  0.00000000000E+00 0. -1.
         -2   -1    0    0    0  501 -0.00000000000E+00 -0.00000000000E+00 -0.59638202076E+03  0.59638202076E+03  0.00000000000E+00 0.  1.
         25    2    1    2    0    0  0.15727084089E+03  0.12153635097E+03 -0.49152812395E+03  0.54475001731E+03  0.12508989860E+03 0.  0.
         23    2    1    2    0    0 -0.15727084089E+03 -0.12153635097E+03  0.72963333626E+02  0.22944923388E+03  0.88420025295E+02 0.  0.
          5    1    3    3  502    0  0.68673189940E+02 -0.10597243940E+02 -0.21148307031E+03  0.22264516618E+03  0.41800000000E+01 0.  1.
         -5    1    3    3    0  502  0.88597650955E+02  0.13213359491E+03 -0.28004505363E+03  0.32210485113E+03  0.41800000000E+01 0.  1.
        -11    1    4    4    0    0 -0.26628478874E+02 -0.19706378432E+02  0.53149139420E+02  0.62627855297E+02  0.00000000000E+00 0.  1.
         11    1    4    4    0    0 -0.13064236202E+03 -0.10182997254E+03  0.19814194206E+02  0.16682137858E+03  0.00000000000E+00 0. -1.
</event>
<event>
 8    1  0.6901948E-009  0.8383627E+02  0.7561462E-02  0.1318504E+00
         -2   -1    0    0    0  501 -0.00000000000E+00  0.00000000000E+00  0.35505748051E+03  0.35505748051E+03  0.00000000000E+00 0.  1.
          2   -1    0    0  501    0  0.00000000000E+00 -0.00000000000E+00 -0.54109337969E+02  0.54109337969E+02  0.00000000000E+00 0. -1.
         25    2    1    2    0    0 -0.50230381901E+01  0.56872341584E+02  0.25956551675E+03  0.29373794927E+03  0.12509209088E+03 0.  0.
         23    2    1    2    0    0  0.50230381901E+01 -0.56872341584E+02  0.41382625786E+02  0.11542886921E+03  0.91387132465E+02 0.  0.
          5    1    3    3  502    0 -0.36924735745E+02  0.45225106687E+02  0.25198039470E+03  0.25868965595E+03  0.41800000000E+01 0.  1.
         -5    1    3    3    0  502  0.31901697555E+02  0.11647234897E+02  0.75851220546E+01  0.35048293313E+02  0.41800000000E+01 0.  1.
        -11    1    4    4    0    0  0.26041012032E+02 -0.41050024254E+02  0.64252168585E+02  0.80570341732E+02  0.00000000000E+00 0.  1.
         11    1    4    4    0    0 -0.21017973842E+02 -0.15822317330E+02 -0.22869542799E+02  0.34858527478E+02  0.00000000000E+00 0. -1.
</event>
<event>
 8    1  0.6901948E-009  0.1299300E+03  0.7561462E-02  0.1227560E+00
         -2   -1    0    0    0  501 -0.00000000000E+00  0.00000000000E+00  0.22451144112E+03  0.22451144112E+03  0.00000000000E+00 0. -1.
          2   -1    0    0  501    0  0.00000000000E+00 -0.00000000000E+00 -0.11671464372E+03  0.11671464372E+03  0.00000000000E+00 0.  1.
         25    2    1    2    0    0  0.74747744649E+02  0.79222778357E+02  0.22705934411E+01  0.16583728660E+03  0.12503349987E+03 0.  0.
         23    2    1    2    0    0 -0.74747744649E+02 -0.79222778357E+02  0.10552620396E+03  0.17538879825E+03  0.88102082203E+02 0.  0.
          5    1    3    3  502    0  0.12558990307E+02  0.64220890116E+02  0.52818000627E+02  0.84197770487E+02  0.41800000000E+01 0.  1.
         -5    1    3    3    0  502  0.62188754342E+02  0.15001888241E+02 -0.50547407186E+02  0.81639516110E+02  0.41800000000E+01 0.  1.
        -11    1    4    4    0    0  0.79015950590E-04 -0.49878891146E+02  0.73740031299E+02  0.89025254832E+02  0.00000000000E+00 0. -1.
         11    1    4    4    0    0 -0.74747823665E+02 -0.29343887211E+02  0.31786172662E+02  0.86363543418E+02  0.00000000000E+00 0.  1.
</event>
<event>
 8    1  0.6901948E-009  0.1261171E+03  0.7561462E-02  0.1233334E+00
          4   -1    0    0  501    0  0.00000000000E+00  0.00000000000E+00  0.20634832826E+03  0.20634832826E+03  0.00000000000E+00 0. -1.
         -4   -1    0    0    0  501 -0.00000000000E+00 -0.00000000000E+00 -0.11607009956E+03  0.11607009956E+03  0.00000000000E+00 0.  1.
         25    2    1    2    0    0  0.37179958084E+02 -0.10093155394E+03  0.19840269160E+02  0.16616575682E+03  0.12509154486E+03 0.  0.
         23    2    1    2    0    0 -0.37179958084E+02  0.10093155394E+03  0.70437959545E+02  0.15625267099E+03  0.88791121080E+02 0.  0.
          5    1    3    3  502    0 -0.18603364034E+02 -0.49328743840E+02  0.60109621677E+02  0.80062782492E+02  0.41800000000E+01 0. -1.
         -5    1    3    3    0  502  0.55783322118E+02 -0.51602810102E+02 -0.40269352517E+02  0.86102974333E+02  0.41800000000E+01 0. -1.
        -11    1    4    4    0    0 -0.44515340243E+02  0.34269678989E+02 -0.36779308847E+01  0.56298788536E+02  0.00000000000E+00 0.  1.
         11    1    4    4    0    0  0.73353821598E+01  0.66661874953E+02  0.74115890430E+02  0.99953882455E+02  0.00000000000E+00 0. -1.
</event>
<event>
 8    1  0.6901948E-009  0.1136852E+03  0.7561462E-02  0.1253894E+00
         -2   -1    0    0    0  501 -0.00000000000E+00  0.00000000000E+00  0.16240735410E+02  0.16240735410E+02  0.00000000000E+00 0.  1.
          2   -1    0    0  501    0  0.00000000000E+00 -0.00000000000E+00 -0.10357900924E+04  0.10357900924E+04  0.00000000000E+00 0. -1.
         25    2    1    2    0    0 -0.56426227815E+02 -0.32310196419E+02 -0.68262149002E+03  0.69702788405E+03  0.12509158457E+03 0.  0.
         23    2    1    2    0    0  0.56426227815E+02  0.32310196419E+02 -0.33692786701E+03  0.35500294380E+03  0.90988101198E+02 0.  0.
          5    1    3    3  502    0 -0.93071130557E+02 -0.33682978058E+02 -0.40382965993E+03  0.41580361349E+03  0.41800000000E+01 0.  1.
         -5    1    3    3    0  502  0.36644902742E+02  0.13727816392E+01 -0.27879183009E+03  0.28122427056E+03  0.41800000000E+01 0.  1.
        -11    1    4    4    0    0  0.19435138886E+02  0.47564837874E+02 -0.28422266422E+03  0.28882981370E+03  0.00000000000E+00 0. -1.
         11    1    4    4    0    0  0.36991088929E+02 -0.15254641455E+02 -0.52705202796E+02  0.66173130105E+02  0.00000000000E+00 0.  1.
</event>
<event>
 8    1  0.6901948E-009  0.9680989E+02  0.7561462E-02  0.1287151E+00
          3   -1    0    0  501    0  0.00000000000E+00  0.00000000000E+00  0.37463002655E+03  0.37463002655E+03  0.00000000000E+00 0. -1.
         -3   -1    0    0    0  501 -0.00000000000E+00 -0.00000000000E+00 -0.56789548800E+02  0.56789548800E+02  0.00000000000E+00 0.  1.
         25    2    1    2    0    0  0.25858633697E+02 -0.41229466379E+02  0.29609007049E+03  0.32509135289E+03  0.12508605057E+03 0.  0.
         23    2    1    2    0    0 -0.25858633697E+02  0.41229466379E+02  0.21750407269E+02  0.10632822247E+03  0.92000395880E+02 0.  0.
          5    1    3    3  502    0  0.66327073259E+01 -0.75423084762E+02  0.26264373057E+03  0.27337124232E+03  0.41800000000E+01 0. -1.
         -5    1    3    3    0  502  0.19225926371E+02  0.34193618383E+02  0.33446339917E+02  0.51720110564E+02  0.41800000000E+01 0. -1.
        -11    1    4    4    0    0  0.57414051485E+01 -0.13764474807E+02 -0.23907210335E+02  0.28177636625E+02  0.00000000000E+00 0.  1.
         11    1    4    4    0    0 -0.31600038845E+02  0.54993941186E+02  0.45657617603E+02  0.78150585842E+02  0.00000000000E+00 0. -1.
</event>
<event>
 8    1  0.6901948E-009  0.1287341E+03  0.7561462E-02  0.1229346E+00
          2   -1    0    0  501    0  0.00000000000E+00  0.00000000000E+00  0.30816328396E+02  0.30816328396E+02  0.00000000000E+00 0. -1.
         -2   -1    0    0    0  501 -0.00000000000E+00 -0.00000000000E+00 -0.14690065344E+04  0.14690065344E+04  0.00000000000E+00 0.  1.
         25    2    1    2    0    0  0.12167297152E+03  0.21453612908E+02 -0.12231163729E+04  0.12356882678E+04  0.12508902413E+03 0.  0.
         23    2    1    2    0    0 -0.12167297152E+03 -0.21453612908E+02 -0.21507383311E+03  0.26413459503E+03  0.90806173218E+02 0.  0.
          5    1    3    3  502    0  0.67217888001E+02  0.17778598933E+02 -0.10833217458E+04  0.10855587503E+04  0.41800000000E+01 0. -1.
         -5    1    3    3    0  502  0.54455083522E+02  0.36750139751E+01 -0.13979462709E+03  0.15012951746E+03  0.41800000000E+01 0. -1.
        -11    1    4    4    0    0 -0.17935945400E+02 -0.23197679592E+02 -0.11959038672E+03  0.12313281882E+03  0.00000000000E+00 0.  1.
         11    1    4    4    0    0 -0.10373702612E+03  0.17440666840E+01 -0.95483446392E+02  0.14100177620E+03  0.00000000000E+00 0. -1.
</event>
<event>
 8    1  0.6901948E-009  0.1235182E+03  0.7561462E-02  0.1237403E+00
         -1   -1    0    0    0  501 -0.00000000000E+00  0.00000000000E+00  0.93859438270E+02  0.93859438270E+02  0.00000000000E+00 0.  1.
          1   -1    0    0  501    0  0.00000000000E+00 -0.00000000000E+00 -0.29470173310E+03  0.29470173310E+03  0.00000000000E+00 0. -1.
         25    2    1    2    0    0  0.96481472597E+01 -0.11118592470E+03 -0.17442716215E+03  0.24192535935E+03  0.12509055922E+03 0.  0.
         23    2    1    2    0    0 -0.96481472597E+01  0.11118592470E+03 -0.26415132684E+02  0.14663581202E+03  0.91372345569E+02 0.  0.
          5    1    3    3  502    0  0.12751154951E+02 -0.48088482696E+02 -0.17141974315E+03  0.17854213749E+03  0.41800000000E+01 0.  1.
         -5    1    3    3    0  502 -0.31030076913E+01 -0.63097442004E+02 -0.30074190019E+01  0.63383221859E+02  0.41800000000E+01 0.  1.
        -11    1    4    4    0    0 -0.29410062986E+02  0.10556279649E+02 -0.30954413307E+02  0.43983662286E+02  0.00000000000E+00 0. -1.
         11    1    4    4    0    0  0.19761915727E+02  0.10062964505E+03  0.45392806228E+01  0.10265214973E+03  0.00000000000E+00 0.  1.
</event>
<event>
 8    1  0.6901948E-009  0.1021107E+03  0.7561462E-02  0.1275919E+00
         -1   -1    0    0    0  501 -0.00000000000E+00  0.00000000000E+00  0.28657423429E+02  0.28657423429E+02  0.00000000000E+00 0.  1.
          1   -1    0    0  501    0  0.00000000000E+00 -0.00000000000E+00 -0.51646026344E+03  0.51646026344E+03  0.00000000000E+00 0. -1.
         25    2    1    2    0    0 -0.16004471925E+02  0.47914606665E+02 -0.22036184055E+03  0.25837801777E+03  0.12509159301E+03 0.  0.
         23    2    1    2    0    0  0.16004471925E+02 -0.47914606665E+02 -0.26744099946E+03  0.28673966910E+03  0.90238556006E+02 0.  0.
          5    1    3    3  502    0 -0.52800791763E+02  0.70459946423E+02 -0.17303955953E+03  0.19419755205E+03  0.41800000000E+01 0.  1.
         -5    1    3    3    0  502  0.36796319839E+02 -0.22545339758E+02 -0.47322281017E+02  0.64180465713E+02  0.41800000000E+01 0.  1.
        -11    1    4    4    0    0  0.31042949496E+02 -0.48594982283E+02 -0.26534760458E+03  0.27154095137E+03  0.00000000000E+00 0. -1.
         11    1    4    4    0    0 -0.15038477571E+02  0.68037561824E+00 -0.20933948893E+01  0.15198717735E+02  0.00000000000E+00 0.  1.
</event>
<event>
 8    1  0.6901948E-009  0.1526877E+03  0.7561462E-02  0.1197209E+00
          1   -1    0    0  501    0  0.00000000000E+00  0.00000000000E+00  0.17329286980E+03  0.17329286980E+03  0.00000000000E+00 0. -1.
         -1   -1    0    0    0  501 -0.00000000000E+00 -0.00000000000E+00 -0.18268776067E+03  0.18268776067E+03  0.00000000000E+00 0.  1.
         25    2    1    2    0    0  0.61153733171E+02  0.90613266961E+02  0.84356713680E+02  0.18631614754E+03  0.12508840259E+03 0.  0.
         23    2    1    2    0    0 -0.61153733171E+02 -0.90613266961E+02 -0.93751604544E+02  0.16966448293E+03  0.89700223982E+02 0.  0.
          5    1    3    3  502    0  0.82495685263E+02  0.12087071688E+02  0.31682900627E+02  0.89291175270E+02  0.41800000000E+01 0.  1.
         -5    1    3    3    0  502 -0.21341952092E+02  0.78526195274E+02  0.52673813053E+02  0.97024972274E+02  0.41800000000E+01 0.  1.
        -11    1    4    4    0    0 -0.26956516293E+02  0.13983061614E+02 -0.28959410227E+02  0.41962211852E+02  0.00000000000E+00 0.  1.
         11    1    4    4    0    0 -0.34197216878E+02 -0.10459632858E+03 -0.64792194317E+02  0.12770227108E+03  0.00000000000E+00 0. -1.
</event>
<event>
 8    1  0.6901948E-009  0.6607038E+02  0.7561462E-02  0.1373990E+00
          4   -1    0    0  501    0  0.00000000000E+00  0.00000000000E+00  0.31660853534E+03  0.31660853534E+03  0.00000000000E+00 0.  1.
         -4   -1    0    0    0  501 -0.00000000000E+00 -0.00000000000E+00 -0.49064961842E+02  0.49064961842E+02  0.00000000000E+00 0. -1.
         25    2    1    2    0    0 -0.57350245396E+01 -0.10428632127E+02  0.23830441926E+03  0.26940142954E+03  0.12508591896E+03 0.  0.
         23    2    1    2    0    0  0.57350245396E+01  0.10428632127E+02  0.29239154239E+02  0.96272067648E+02  0.90949084625E+02 0.  0.
          5    1    3    3  502    0  0.11228071920E+02 -0.18426887354E+02  0.24723712130E+03  0.24821218005E+03  0.41800000000E+01 0.  1.
         -5    1    3    3    0  502 -0.16963096459E+02  0.79982552267E+01 -0.89327020375E+01  0.21189249488E+02  0.41800000000E+01 0.  1.
        -11    1    4    4    0    0  0.47953412951E+02  0.83707792410E+01  0.21871267660E+02  0.53366207545E+02  0.00000000000E+00 0.  1.
         11    1    4    4    0    0 -0.42218388411E+02  0.20578528864E+01  0.73678865791E+01  0.42905860103E+02  0.00000000000E+00 0. -1.
</event>
<event>
 8    1  0.6901948E-009  0.1061726E+03  0.7561462E-02  0.1267826E+00
          2   -1    0    0  501    0  0.00000000000E+00  0.00000000000E+00  0.17185931027E+03  0.17185931027E+03  0.00000000000E+00 0. -1.
         -2   -1    0    0    0  501 -0.00000000000E+00 -0.00000000000E+00 -0.90755030426E+02  0.90755030426E+02  0.00000000000E+00 0.  1.
         25    2    1    2    0    0 -0.10586913549E+02  0.48409399491E+02  0.59552611392E+01  0.13467616122E+03  0.12508657229E+03 0.  0.
         23    2    1    2    0    0  0.10586913549E+02 -0.48409399491E+02  0.75149018707E+02  0.12793817948E+03  0.90913420676E+02 0.  0.
          5    1    3    3  502    0  0.25524272179E+02 -0.35021980322E+02  0.18872183278E+01  0.43578223564E+02  0.41800000000E+01 0. -1.
         -5    1    3    3    0  502 -0.36111185728E+02  0.83431379813E+02  0.40680428115E+01  0.91097937652E+02  0.41800000000E+01 0. -1.
        -11    1    4    4    0    0 -0.11441873249E+01 -0.60757760633E+02  0.11241067085E+02  0.61799484067E+02  0.00000000000E+00 0.  1.
         11    1    4    4    0    0  0.11731100874E+02  0.12348361142E+02  0.63907951622E+02  0.66138695415E+02  0.00000000000E+00 0. -1.
</event>
<event>
 8    1  0.6901948E-009  0.1291529E+03  0.7561462E-02  0.1228718E+00
          2   -1    0    0  501    0  0.00000000000E+00  0.00000000000E+00  0.32894403010E+03  0.32894403010E+03  0.00000000000E+00 0. -1.
         -2   -1    0    0    0  501 -0.00000000000E+00 -0.00000000000E+00 -0.54701325663E+02  0.54701325663E+02  0.00000000000E+00 0.  1.
         25    2    1    2    0    0  0.72591783563E+02  0.25754194738E+02  0.12469720048E+03  0.19268934013E+03  0.12508774681E+03 0.  0.
         23    2    1    2    0    0 -0.72591783563E+02 -0.25754194738E+02  0.14954550395E+03  0.19095601563E+03  0.90374202999E+02 0.  0.
          5    1    3    3  502    0 -0.79356749761E+01 -0.39441924984E+02  0.19241995902E+02  0.44792490331E+02  0.41800000000E+01 0. -1.
         -5    1    3    3    0  502  0.80527458539E+02  0.65196119722E+02  0.10545520458E+03  0.14789684979E+03  0.41800000000E+01 0. -1.
        -11    1    4    4    0    0  0.17881365022E+02  0.50626070368E+01  0.81623907512E+01  0.20297729623E+02  0.00000000000E+00 0.  1.
         11    1    4    4    0    0 -0.90473148585E+02 -0.30816801775E+02  0.14138311320E+03  0.17065828601E+03  0.00000000000E+00 0. -1.
</event>
<event>
 8    1  0.6901948E-009  0.1044561E+03  0.7561462E-02  0.1271195E+00
          1   -1    0    0  501    0  0.00000000000E+00  0.00000000000E+00  0.17699430408E+03  0.17699430408E+03  0.00000000000E+00 0. -1.
         -1   -1    0    0    0  501 -0.00000000000E+00 -0.00000000000E+00 -0.77830177064E+02  0.77830177064E+02  0.00000000000E+00 0.  1.
         25    2    1    2    0    0 -0.44618979651E+02  0.38220325344E+02  0.41948814910E+02  0.14442553553E+03  0.12508951046E+03 0.  0.
         23    2    1    2    0    0  0.44618979651E+02 -0.38220325344E+02  0.57215312108E+02  0.11039894561E+03  0.73910003642E+02 0.  0.
          5    1    3    3  502    0 -0.79914461197E+01 -0.43681199530E+02 -0.15522248877E+01  0.44629499275E+02  0.41800000000E+01 0.  1.
         -5    1    3    3    0  502 -0.36627533531E+02  0.81901524874E+02  0.43501039798E+02  0.99796036258E+02  0.41800000000E+01 0.  1.
        -11    1    4    4    0    0 -0.60603489776E+01 -0.19577814944E+02 -0.11109294161E+02  0.23311694157E+02  0.00000000000E+00 0.  1.
         11    1    4    4    0    0  0.50679328629E+02 -0.18642510400E+02  0.68324606269E+02  0.87087251456E+02  0.00000000000E+00 0. -1.
</event>
<event>
 8    1  0.6901948E-009  0.5146753E+03  0.7561462E-02  0.1010018E+00
          1   -1    0    0  501    0  0.00000000000E+00  0.00000000000E+00  0.53997749525E+03  0.53997749525E+03  0.00000000000E+00 0. -1.
         -1   -1    0    0    0  501 -0.00000000000E+00 -0.00000000000E+00 -0.51985673417E+03  0.51985673417E+03  0.00000000000E+00 0.  1.
         25    2    1    2    0    0 -0.27708122290E+03 -0.43120458880E+03  0.87192483507E+02  0.53475402325E+03  0.12509170526E+03 0.  0.
         23    2    1    2    0    0  0.27708122290E+03  0.43120458880E+03 -0.67071722424E+02  0.52508020616E+03  0.92191135544E+02 0.  0.
          5    1    3    3  502    0 -0.85343528990E+02 -0.17162194422E+03 -0.24398474286E+02  0.19326243201E+03  0.41800000000E+01 0.  1.
         -5    1    3    3    0  502 -0.19173769391E+03 -0.25958264457E+03  0.11159095779E+03  0.34149159125E+03  0.41800000000E+01 0.  1.
        -11    1    4    4    0    0  0.24309305686E+03  0.34338292488E+03 -0.23658084674E+02  0.42138553887E+03  0.00000000000E+00 0.  1.
         11    1    4    4    0    0  0.33988166039E+02  0.87821663913E+02 -0.43413637749E+02  0.10369466730E+03  0.00000000000E+00 0. -1.
</event>
<event>
 8    1  0.6901948E-009  0.1132500E+03  0.7561462E-02  0.1254667E+00
          1   -1    0    0  501    0  0.00000000000E+00  0.00000000000E+00  0.39917573183E+03  0.39917573183E+03  0.00000000000E+00 0. -1.
         -1   -1    0    0    0  501 -0.00000000000E+00 -0.00000000000E+00 -0.40602737068E+02  0.40602737068E+02  0.00000000000E+00 0.  1.
         25    2    1    2    0    0  0.36884170646E+02  0.10109233841E+02  0.29620573835E+03  0.32380221244E+03  0.12508954671E+03 0.  0.
         23    2    1    2    0    0 -0.36884170646E+02 -0.10109233841E+02  0.62367256404E+02  0.11597625645E+03  0.89989881297E+02 0.  0.
          5    1    3    3  502    0  0.83193211200E+02  0.76129346012E+01  0.20469731807E+03  0.22112786254E+03  0.41800000000E+01 0.  1.
         -5    1    3    3    0  502 -0.46309040553E+02  0.24962992402E+01  0.91508420281E+02  0.10267434991E+03  0.41800000000E+01 0.  1.
        -11    1    4    4    0    0 -0.28493374910E+02  0.37977007677E+02  0.40844599223E+02  0.62629121115E+02  0.00000000000E+00 0.  1.
         11    1    4    4    0    0 -0.83907957358E+01 -0.48086241519E+02  0.21522657181E+02  0.53347135337E+02  0.00000000000E+00 0. -1.
</event>
<event>
 8    1  0.6901948E-009  0.1338709E+03  0.7561462E-02  0.1221822E+00
         -1   -1    0    0    0  501 -0.00000000000E+00  0.00000000000E+00  0.84779901271E+02  0.84779901271E+02  0.00000000000E+00 0.  1.
          1   -1    0    0  501    0  0.00000000000E+00 -0.00000000000E+00 -0.31011361480E+03  0.31011361480E+03  0.00000000000E+00 0. -1.
         25    2    1    2    0    0  0.11250433094E+03  0.11473439997E+02 -0.16947012854E+03  0.23907319761E+03  0.12508798921E+03 0.  0.
         23    2    1    2    0    0 -0.11250433094E+03 -0.11473439997E+02 -0.55863584991E+02  0.15582031846E+03  0.91489710960E+02 0.  0.
          5    1    3    3  502    0  0.49531319648E+01  0.41693460286E+02 -0.84227284466E+01  0.43026653384E+02  0.41800000000E+01 0.  1.
         -5    1    3    3    0  502  0.10755119897E+03 -0.30220020289E+02 -0.16104740009E+03  0.19604654423E+03  0.41800000000E+01 0.  1.
        -11    1    4    4    0    0 -0.23216634118E+02 -0.74204310800E+01 -0.61610075150E+02  0.66256141279E+02  0.00000000000E+00 0. -1.
         11    1    4    4    0    0 -0.89287696821E+02 -0.40530089173E+01  0.57464901596E+01  0.89564177181E+02  0.00000000000E+00 0.  1.
</event>
<event>
 8    1  0.6901948E-009  0.1645953E+03  0.7561462E-02  0.1183604E+00
          2   -1    0    0  501    0  0.00000000000E+00  0.00000000000E+00  0.23267429216E+04  0.23267429216E+04  0.00000000000E+00 0. -1.
         -2   -1    0    0    0  501 -0.00000000000E+00 -0.00000000000E+00 -0.15122097324E+02  0.15122097324E+02  0.00000000000E+00 0.  1.
         25    2    1    2    0    0  0.28516417711E+02 -0.13096234132E+03  0.16790825069E+04  0.16890620926E+04  0.12509343209E+03 0.  0.
         23    2    1    2    0    0 -0.28516417711E+02  0.13096234132E+03  0.63253831741E+03  0.65280292636E+03  0.89903374516E+02 0.  0.
          5    1    3    3  502    0 -0.72402838859E+01  0.23123573242E+02  0.18601430085E+03  0.18763239025E+03  0.41800000000E+01 0. -1.
         -5    1    3    3    0  502  0.35756701597E+02 -0.15408591456E+03  0.14930682060E+04  0.15014297023E+04  0.41800000000E+01 0. -1.
        -11    1    4    4    0    0 -0.46938446183E+02  0.94232648340E+02  0.55651914848E+03  0.56638906449E+03  0.00000000000E+00 0. -1.
         11    1    4    4    0    0  0.18422028472E+02  0.36729692979E+02  0.76019168932E+02  0.86413861876E+02  0.00000000000E+00 0.  1.
</event>
<event>
 8    1  0.6901948E-009  0.1887016E+03  0.7561462E-02  0.1159638E+00
         -3   -1    0    0    0  501 -0.00000000000E+00  0.00000000000E+00  0.13641282812E+03  0.13641282812E+03  0.00000000000E+00 0.  1.
          3   -1    0    0  501    0  0.00000000000E+00 -0.00000000000E+00 -0.27188941573E+03  0.27188941573E+03  0.00000000000E+00 0. -1.
         25    2    1    2    0    0  0.68652487522E+02  0.14299197253E+03 -0.69877215686E+02  0.21375203685E+03  0.12508892731E+03 0.  0.
         23    2    1    2    0    0 -0.68652487522E+02 -0.14299197253E+03 -0.65599371927E+02  0.19455020700E+03  0.91578584812E+02 0.  0.
          5    1    3    3  502    0  0.56397527233E+02  0.25879541447E+01 -0.51219795538E+00  0.56613720346E+02  0.41800000000E+01 0. -1.
         -5    1    3    3    0  502  0.12254960288E+02  0.14040401838E+03 -0.69365017730E+02  0.15713831651E+03  0.41800000000E+01 0. -1.
        -11    1    4    4    0    0  0.10684440312E+02 -0.73655392773E+02 -0.90665433012E+01  0.74976505365E+02  0.00000000000E+00 0.  1.
         11    1    4    4    0    0 -0.79336927834E+02 -0.69336579756E+02 -0.56532828626E+02  0.11957370164E+03  0.00000000000E+00 0. -1.
</event>
<event>
 8    1  0.6901948E-009  0.9915762E+02  0.7561462E-02  0.1282077E+00
         -1   -1    0    0    0  501 -0.00000000000E+00  0.00000000000E+00  0.39728070824E+02  0.39728070824E+02  0.00000000000E+00 0.  1.
          1   -1    0    0  501    0  0.00000000000E+00 -0.00000000000E+00 -0.33913714408E+03  0.33913714408E+03  0.00000000000E+00 0. -1.
         25    2    1    2    0    0  0.60237586564E-01  0.27753215727E+02 -0.14416549178E+03  0.19287732717E+03  0.12509088578E+03 0.  0.
         23    2    1    2    0    0 -0.60237586564E-01 -0.27753215727E+02 -0.15524358147E+03  0.18598788773E+03  0.98593509829E+02 0.  0.
          5    1    3    3  502    0  0.27848551202E+02  0.67972885623E+02 -0.11269959823E+03  0.13459021816E+03  0.41800000000E+01 0.  1.
         -5    1    3    3    0  502 -0.27788313615E+02 -0.40219669896E+02 -0.31465893553E+02  0.58287109014E+02  0.41800000000E+01 0.  1.
        -11    1    4    4    0    0  0.27120563082E+02 -0.37950538396E+02 -0.25751268734E+02  0.53281292663E+02  0.00000000000E+00 0.  1.
         11    1    4    4    0    0 -0.27180800668E+02  0.10197322670E+02 -0.12949231274E+03  0.13270659506E+03  0.00000000000E+00 0. -1.
</event>
<event>
 8    1  0.6901948E-009  0.1260018E+03  0.7561462E-02  0.1233512E+00
         -3   -1    0    0    0  501 -0.00000000000E+00  0.00000000000E+00  0.42763007809E+02  0.42763007809E+02  0.00000000000E+00 0.  1.
          3   -1    0    0  501    0  0.00000000000E+00 -0.00000000000E+00 -0.45037095302E+03  0.45037095302E+03  0.00000000000E+00 0. -1.
         25    2    1    2    0    0  0.80439149704E+02 -0.43464207500E+01 -0.17169242329E+03  0.22719128512E+03  0.12509294001E+03 0.  0.
         23    2    1    2    0    0 -0.80439149704E+02  0.43464207500E+01 -0.23591552192E+03  0.26594267571E+03  0.92628424916E+02 0.  0.
          5    1    3    3  502    0  0.75212322891E+02  0.52257259565E+02 -0.10160877496E+03  0.13685587398E+03  0.41800000000E+01 0. -1.
         -5    1    3    3    0  502  0.52268268124E+01 -0.56603680315E+02 -0.70083648325E+02  0.90335411142E+02  0.41800000000E+01 0. -1.
        -11    1    4    4    0    0 -0.11822737758E+02  0.28282676748E+02 -0.15143328754E+03  0.15450478150E+03  0.00000000000E+00 0. -1.
         11    1    4    4    0    0 -0.68616411945E+02 -0.23936255998E+02 -0.84482234384E+02  0.11143789421E+03  0.00000000000E+00 0.  1.
</event>
<event>
 8    1  0.6901948E-009  0.9523736E+02  0.7561462E-02  0.1290642E+00
          1   -1    0    0  501    0  0.00000000000E+00  0.00000000000E+00  0.29351622087E+03  0.29351622087E+03  0.00000000000E+00 0. -1.
         -1   -1    0    0    0  501 -0.00000000000E+00 -0.00000000000E+00 -0.55673620324E+02  0.55673620324E+02  0.00000000000E+00 0.  1.
         25    2    1    2    0    0 -0.55194326953E+02  0.68141111732E+01  0.76413128287E+02  0.15677747886E+03  0.12508943147E+03 0.  0.
         23    2    1    2    0    0  0.55194326953E+02 -0.68141111732E+01  0.16142947226E+03  0.19241236234E+03  0.88714129802E+02 0.  0.
          5    1    3    3  502    0  0.24000702925E+02  0.17438658624E+02  0.70433248398E+02  0.76540547655E+02  0.41800000000E+01 0.  1.
         -5    1    3    3    0  502 -0.79195029877E+02 -0.10624547451E+02  0.59798798891E+01  0.80236931206E+02  0.41800000000E+01 0.  1.
        -11    1    4    4    0    0  0.11230304695E+02 -0.29113714258E+02  0.93989729908E+01  0.32589396968E+02  0.00000000000E+00 0.  1.
         11    1    4    4    0    0  0.43964022257E+02  0.22299603085E+02  0.15203049927E+03  0.15982296537E+03  0.00000000000E+00 0. -1.
</event>
<event>
 8    1  0.6901948E-009  0.3782851E+03  0.7561462E-02  0.1051569E+00
          4   -1    0    0  501    0  0.00000000000E+00  0.00000000000E+00  0.41033632848E+03  0.41033632848E+03  0.00000000000E+00 0. -1.
         -4   -1    0    0    0  501 -0.00000000000E+00 -0.00000000000E+00 -0.44931370621E+03  0.44931370621E+03  0.00000000000E+00 0.  1.
         25    2    1    2    0    0 -0.93123929746E+02  0.36155877849E+03  0.16206681674E+03  0.42580671391E+03  0.12509551523E+03 0.  0.
         23    2    1    2    0    0  0.93123929746E+02 -0.36155877849E+03 -0.20104419447E+03  0.43384332079E+03  0.91675745257E+02 0.  0.
          5    1    3    3  502    0 -0.67657006191E+02  0.11503321494E+03  0.75841973540E+01  0.13373519909E+03  0.41800000000E+01 0.  1.
         -5    1    3    3    0  502 -0.25466923555E+02  0.24652556355E+03  0.15448261938E+03  0.29207151482E+03  0.41800000000E+01 0.  1.
        -11    1    4    4    0    0  0.60323741890E+02 -0.16052163947E+03 -0.45116249591E+02  0.17731786867E+03  0.00000000000E+00 0.  1.
         11    1    4    4    0    0  0.32800187855E+02 -0.20103713902E+03 -0.15592794488E+03  0.25652545212E+03  0.00000000000E+00 0. -1.
</event>
<event>
 8    1  0.6901948E-009  0.1503229E+03  0.7561462E-02  0.1200077E+00
          1   -1    0    0  501    0  0.00000000000E+00  0.00000000000E+00  0.89052410526E+02  0.89052410526E+02  0.00000000000E+00 0. -1.
         -1   -1    0    0    0  501 -0.00000000000E+00 -0.00000000000E+00 -0.38431840831E+03  0.38431840831E+03  0.00000000000E+00 0.  1.
         25    2    1    2    0    0 -0.69195078281E+02 -0.97832386849E+02 -0.43694360082E+02  0.17865048647E+03  0.12509062490E+03 0.  0.
         23    2    1    2    0    0  0.69195078281E+02  0.97832386849E+02 -0.25157163771E+03  0.29472033237E+03  0.95982553823E+02 0.  0.
          5    1    3    3  502    0 -0.74741785640E+02 -0.15086446949E+02  0.13868546411E+02  0.77612784912E+02  0.41800000000E+01 0.  1.
         -5    1    3    3    0  502  0.55467073584E+01 -0.82745939901E+02 -0.57562906494E+02  0.10103770156E+03  0.41800000000E+01 0.  1.
        -11    1    4    4    0    0  0.48355010886E+02  0.10779675695E+03 -0.24278600062E+03  0.27000627767E+03  0.00000000000E+00 0.  1.
         11    1    4    4    0    0  0.20840067395E+02 -0.99643700988E+01 -0.87856370880E+01  0.24714054697E+02  0.00000000000E+00 0. -1.
</event>
<event>
 8    1  0.6901948E-009  0.1193001E+03  0.7561462E-02  0.1244256E+00
         -1   -1    0    0    0  501 -0.00000000000E+00  0.00000000000E+00  0.34070804411E+02  0.34070804411E+02  0.00000000000E+00 0.  1.
          1   -1    0    0  501    0  0.00000000000E+00 -0.00000000000E+00 -0.66536326843E+03  0.66536326843E+03  0.00000000000E+00 0. -1.
         25    2    1    2    0    0  0.52873904983E+02 -0.80163667353E+02 -0.43099367534E+03  0.45893866589E+03  0.12508911814E+03 0.  0.
         23    2    1    2    0    0 -0.52873904983E+02  0.80163667353E+02 -0.20029878868E+03  0.24049540694E+03  0.92176855147E+02 0.  0.
          5    1    3    3  502    0  0.15852951431E+02 -0.90081401778E+02 -0.15315159512E+03  0.17843446557E+03  0.41800000000E+01 0.  1.
         -5    1    3    3    0  502  0.37020953552E+02  0.99177344245E+01 -0.27784208022E+03  0.28050420032E+03  0.41800000000E+01 0.  1.
        -11    1    4    4    0    0  0.10109408969E+02  0.11371523507E+02  0.41544686375E+01  0.15772485734E+02  0.00000000000E+00 0.  1.
         11    1    4    4    0    0 -0.62983313952E+02  0.68792143846E+02 -0.20445325731E+03  0.22472292121E+03  0.00000000000E+00 0. -1.
</event>
<event>
 8    1  0.6901948E-009  0.1810431E+03  0.7561462E-02  0.1166797E+00
         -1   -1    0    0    0  501 -0.00000000000E+00  0.00000000000E+00  0.96786037959E+02  0.96786037959E+02  0.00000000000E+00 0.  1.
          1   -1    0    0  501    0  0.00000000000E+00 -0.00000000000E+00 -0.64938022578E+03  0.64938022578E+03  0.00000000000E+00 0. -1.
         25    2    1    2    0    0  0.88804818409E+02  0.12236359171E+03 -0.53269029865E+03  0.56768405790E+03  0.12508833266E+03 0.  0.
         23    2    1    2    0    0 -0.88804818409E+02 -0.12236359171E+03 -0.19903889166E+02  0.17848220583E+03  0.92739358667E+02 0.  0.
          5    1    3    3  502    0 -0.23040951039E+02  0.80245056689E+01 -0.24211412794E+02  0.34625756677E+02  0.41800000000E+01 0.  1.
         -5    1    3    3    0  502  0.11184576945E+03  0.11433908604E+03 -0.50847888586E+03  0.53305830123E+03  0.41800000000E+01 0.  1.
        -11    1    4    4    0    0 -0.58567739860E+02 -0.80887714389E+01 -0.83731869839E+01  0.59713638609E+02  0.00000000000E+00 0. -1.
         11    1    4    4    0    0 -0.30237078549E+02 -0.11427482027E+03 -0.11530702182E+02  0.11876856723E+03  0.00000000000E+00 0.  1.
</event>
<event>
 8    1  0.6901948E-009  0.9563160E+02  0.7561462E-02  0.1289760E+00
         -1   -1    0    0    0  501 -0.00000000000E+00  0.00000000000E+00  0.19412668576E+02  0.19412668576E+02  0.00000000000E+00 0.  1.
          1   -1    0    0  501    0  0.00000000000E+00 -0.00000000000E+00 -0.63867400214E+03  0.63867400214E+03  0.00000000000E+00 0. -1.
         25    2    1    2    0    0  0.19817600858E+02  0.40100872525E+01 -0.40194340629E+03  0.42144378223E+03  0.12509013399E+03 0.  0.
         23    2    1    2    0    0 -0.19817600858E+02 -0.40100872525E+01 -0.21731792728E+03  0.23664288849E+03  0.91454672105E+02 0.  0.
          5    1    3    3  502    0  0.48149476122E+02 -0.28625114131E+02 -0.87242440837E+02  0.10376167449E+03  0.41800000000E+01 0.  1.
         -5    1    3    3    0  502 -0.28331875264E+02  0.32635201384E+02 -0.31470096545E+03  0.31768210774E+03  0.41800000000E+01 0.  1.
        -11    1    4    4    0    0  0.46953579053E+01  0.40546820606E+02 -0.12138695818E+03  0.12806593873E+03  0.00000000000E+00 0.  1.
         11    1    4    4    0    0 -0.24512958763E+02 -0.44556907858E+02 -0.95930969099E+02  0.10857694975E+03  0.00000000000E+00 0. -1.
</event>
<event>
 8    1  0.6901948E-009  0.1631020E+03  0.7561462E-02  0.1185238E+00
         -1   -1    0    0    0  501 -0.00000000000E+00  0.00000000000E+00  0.82409268807E+03  0.82409268807E+03  0.00000000000E+00 0.  1.
          1   -1    0    0  501    0  0.00000000000E+00 -0.00000000000E+00 -0.54402204653E+02  0.54402204653E+02  0.00000000000E+00 0. -1.
         25    2    1    2    0    0  0.10647894420E+03 -0.11289837170E+03  0.59705450408E+03  0.62944979214E+03  0.12509657107E+03 0.  0.
         23    2    1    2    0    0 -0.10647894420E+03  0.11289837170E+03  0.17263597934E+03  0.24904510058E+03  0.90202399469E+02 0.  0.
          5    1    3    3  502    0  0.71637940047E+02 -0.82239062160E+02  0.55822254699E+03  0.56879270580E+03  0.41800000000E+01 0.  1.
         -5    1    3    3    0  502  0.34841004155E+02 -0.30659309544E+02  0.38831957086E+02  0.60657086341E+02  0.41800000000E+01 0.  1.
        -11    1    4    4    0    0 -0.47288810744E+02  0.98920491434E+02  0.14616083257E+03  0.18271421462E+03  0.00000000000E+00 0.  1.
         11    1    4    4    0    0 -0.59190133458E+02  0.13977880270E+02  0.26475146763E+02  0.66330885956E+02  0.00000000000E+00 0. -1.
</event>
<event>
 8    1  0.6901948E-009  0.1016894E+03  0.7561462E-02  0.1276783E+00
          1   -1    0    0  501    0  0.00000000000E+00  0.00000000000E+00  0.40494527202E+03  0.40494527202E+03  0.00000000000E+00 0. -1.
         -1   -1    0    0    0  501 -0.00000000000E+00 -0.00000000000E+00 -0.31667467492E+02  0.31667467492E+02  0.00000000000E+00 0.  1.
         25    2    1    2    0    0  0.14655200587E+01 -0.22957932657E+02  0.17664013897E+03  0.21766156684E+03  0.12508239110E+03 0.  0.
         23    2    1    2    0    0 -0.14655200587E+01  0.22957932657E+02  0.19663766556E+03  0.21895117267E+03  0.93509518643E+02 0.  0.
          5    1    3    3  502    0  0.57473513261E+02 -0.24186960162E+02  0.13150159873E+03  0.14559655434E+03  0.41800000000E+01 0.  1.
         -5    1    3    3    0  502 -0.56007993202E+02  0.12290275054E+01  0.45138540241E+02  0.72065012497E+02  0.41800000000E+01 0.  1.
        -11    1    4    4    0    0 -0.35828256426E+02  0.33203877326E+02  0.16158309761E+03  0.16880538753E+03  0.00000000000E+00 0. -1.
         11    1    4    4    0    0  0.34362736367E+02 -0.10245944670E+02  0.35054567952E+02  0.50145785138E+02  0.00000000000E+00 0.  1.
</event>
<event>
 8    1  0.6901948E-009  0.2212041E+03  0.7561462E-02  0.1132989E+00
         -2   -1    0    0    0  501 -0.00000000000E+00  0.00000000000E+00  0.10064253419E+03  0.10064253419E+03  0.00000000000E+00 0.  1.
          2   -1    0    0  501    0  0.00000000000E+00 -0.00000000000E+00 -0.10117135995E+04  0.10117135995E+04  0.00000000000E+00 0. -1.
         25    2    1    2    0    0  0.77143878448E+00 -0.20059042534E+03 -0.85159837283E+03  0.88379983902E+03  0.12508098572E+03 0.  0.
         23    2    1    2    0    0 -0.77143878448E+00  0.20059042534E+03 -0.59472692463E+02  0.22855629465E+03  0.91999265316E+02 0.  0.
          5    1    3    3  502    0 -0.51646133882E+02 -0.65063855234E+02 -0.42643913253E+03  0.43447489520E+03  0.41800000000E+01 0.  1.
         -5    1    3    3    0  502  0.52417572666E+02 -0.13552657011E+03 -0.42515924030E+03  0.44932494382E+03  0.41800000000E+01 0.  1.
        -11    1    4    4    0    0 -0.18555946756E+02  0.75957698178E+01  0.10332722894E+02  0.22556241743E+02  0.00000000000E+00 0.  1.
         11    1    4    4    0    0  0.17784507972E+02  0.19299465552E+03 -0.69805415357E+02  0.20600005291E+03  0.00000000000E+00 0. -1.
</event>
<event>
 8    1  0.6901948E-009  0.1139710E+03  0.7561462E-02  0.1253388E+00
          2   -1    0    0  501    0  0.00000000000E+00  0.00000000000E+00  0.63652837639E+02  0.63652837639E+02  0.00000000000E+00 0. -1.
         -2   -1    0    0    0  501 -0.00000000000E+00 -0.00000000000E+00 -0.29956730470E+03  0.29956730470E+03  0.00000000000E+00 0.  1.
         25    2    1    2    0    0  0.16935555421E+02  0.70355946698E+02 -0.11599653973E+03  0.18530789100E+03  0.12508814878E+03 0.  0.
         23    2    1    2    0    0 -0.16935555421E+02 -0.70355946698E+02 -0.11991792733E+03  0.17791225133E+03  0.10970728147E+03 0.  0.
          5    1    3    3  502    0  0.68318788703E+01  0.83475692403E+02 -0.17916022175E+02  0.85751513349E+02  0.41800000000E+01 0.  1.
         -5    1    3    3    0  502  0.10103676550E+02 -0.13119745704E+02 -0.98080517559E+02  0.99556377656E+02  0.41800000000E+01 0.  1.
        -11    1    4    4    0    0  0.32456539090E+02 -0.70499577876E+02 -0.50056774396E+02  0.92354199002E+02  0.00000000000E+00 0. -1.
         11    1    4    4    0    0 -0.49392094510E+02  0.14363117779E+00 -0.69861152931E+02  0.85558052332E+02  0.00000000000E+00 0.  1.
</event>
<event>
 8    1  0.6901948E-009  0.1035476E+03  0.7561462E-02  0.1273008E+00
         -1   -1    0    0    0  501 -0.00000000000E+00  0.00000000000E+00  0.13663522736E+02  0.13663522736E+02  0.00000000000E+00 0.  1.
          1   -1    0    0  501    0  0.00000000000E+00 -0.00000000000E+00 -0.14621575299E+04  0.14621575299E+04  0.00000000000E+00 0. -1.
         25    2    1    2    0    0  0.31892275595E+01  0.40906533429E+02 -0.11526007971E+04  0.11600948027E+04  0.12509131867E+03 0.  0.
         23    2    1    2    0    0 -0.31892275595E+01 -0.40906533429E+02 -0.29589321001E+03  0.31572624993E+03  0.10220938077E+03 0.  0.
          5    1    3    3  502    0 -0.40472377572E+02  0.41323523690E+02 -0.25878202157E+03  0.26520040356E+03  0.41800000000E+01 0.  1.
         -5    1    3    3    0  502  0.43661605131E+02 -0.41699026119E+00 -0.89381877556E+03  0.89489439912E+03  0.41800000000E+01 0.  1.
        -11    1    4    4    0    0  0.46530871829E+02 -0.26152094037E+02 -0.19643795573E+03  0.20356061630E+03  0.00000000000E+00 0. -1.
         11    1    4    4    0    0 -0.49720099389E+02 -0.14754439392E+02 -0.99455254274E+02  0.11216563363E+03  0.00000000000E+00 0.  1.
</event>
<event>
 8    1  0.6901948E-009  0.9769400E+02  0.7561462E-02  0.1285221E+00
          1   -1    0    0  501    0  0.00000000000E+00  0.00000000000E+00  0.10339837424E+03  0.10339837424E+03  0.00000000000E+00 0.  1.
         -1   -1    0    0    0  501 -0.00000000000E+00 -0.00000000000E+00 -0.12182634970E+03  0.12182634970E+03  0.00000000000E+00 0. -1.
         25    2    1    2    0    0 -0.94505228661E+01 -0.19990164127E+02  0.68303788323E+01  0.12721043673E+03  0.12508765764E+03 0.  0.
         23    2    1    2    0    0  0.94505228661E+01  0.19990164127E+02 -0.25258354295E+02  0.98014287199E+02  0.92086356151E+02 0.  0.
          5    1    3    3  502    0 -0.32033802717E+02  0.32748158469E+02 -0.33544784838E+02  0.56932691747E+02  0.41800000000E+01 0. -1.
         -5    1    3    3    0  502  0.22583279851E+02 -0.52738322596E+02  0.40375163671E+02  0.70277744988E+02  0.41800000000E+01 0. -1.
        -11    1    4    4    0    0  0.49465160018E+02  0.81235963297E+01 -0.18520288661E+01  0.50161986442E+02  0.00000000000E+00 0.  1.
         11    1    4    4    0    0 -0.40014637152E+02  0.11866567797E+02 -0.23406325429E+02  0.47852300757E+02  0.00000000000E+00 0. -1.
</event>
<event>
 8    1  0.6901948E-009  0.1142457E+03  0.7561462E-02  0.1252903E+00
          3   -1    0    0  501    0  0.00000000000E+00  0.00000000000E+00  0.25019228385E+02  0.25019228385E+02  0.00000000000E+00 0. -1.
         -3   -1    0    0    0  501 -0.00000000000E+00 -0.00000000000E+00 -0.65202268686E+03  0.65202268686E+03  0.00000000000E+00 0.  1.
         25    2    1    2    0    0 -0.47953735927E+02 -0.30174395133E+01 -0.48413256589E+03  0.50233446464E+03  0.12508759841E+03 0.  0.
         23    2    1    2    0    0  0.47953735927E+02  0.30174395133E+01 -0.14287089259E+03  0.17470745061E+03  0.88328566274E+02 0.  0.
          5    1    3    3  502    0 -0.74123003248E+02  0.36132742824E+02 -0.36371463692E+03  0.37296863705E+03  0.41800000000E+01 0.  1.
         -5    1    3    3    0  502  0.26169267321E+02 -0.39150182338E+02 -0.12041792897E+03  0.12936582759E+03  0.41800000000E+01 0.  1.
        -11    1    4    4    0    0 -0.45358157803E+01  0.36243772257E+02 -0.37238373136E+02  0.52162065584E+02  0.00000000000E+00 0.  1.
         11    1    4    4    0    0  0.52489551707E+02 -0.33226332743E+02 -0.10563251945E+03  0.12254538503E+03  0.00000000000E+00 0. -1.
</event>
<event>
 8    1  0.6901948E-009  0.1056760E+03  0.7561462E-02  0.1268793E+00
          1   -1    0    0  501    0  0.00000000000E+00  0.00000000000E+00  0.39284829091E+02  0.39284829091E+02  0.00000000000E+00 0. -1.
         -1   -1    0    0    0  501 -0.00000000000E+00 -0.00000000000E+00 -0.57809088202E+03  0.57809088202E+03  0.00000000000E+00 0.  1.
         25    2    1    2    0    0  0.28238282277E+02  0.68480170383E+02 -0.44107764525E+03  0.46441779355E+03  0.12508982172E+03 0.  0.
         23    2    1    2    0    0 -0.28238282277E+02 -0.68480170383E+02 -0.97728407677E+02  0.15295791757E+03  0.91424004274E+02 0.  0.
          5    1    3    3  502    0  0.54812349862E+02  0.65552051195E+00 -0.87101614754E+02  0.10299993737E+03  0.41800000000E+01 0.  1.
         -5    1    3    3    0  502 -0.26574067585E+02  0.67824649871E+02 -0.35397603050E+03  0.36141785618E+03  0.41800000000E+01 0.  1.
        -11    1    4    4    0    0  0.43004867724E+01 -0.39818283230E+02 -0.10180996449E+03  0.10940410749E+03  0.00000000000E+00 0.  1.
         11    1    4    4    0    0 -0.32538769049E+02 -0.28661887153E+02  0.40815568114E+01  0.43553810079E+02  0.00000000000E+00 0. -1.
</event>
<event>
 8    1  0.6901948E-009  0.1112713E+03  0.7561462E-02  0.1258234E+00
          2   -1    0    0  501    0  0.00000000000E+00  0.00000000000E+00  0.20041700588E+03  0.20041700588E+03  0.00000000000E+00 0. -1.
         -2   -1    0    0    0  501 -0.00000000000E+00 -0.00000000000E+00 -0.70301367118E+02  0.70301367118E+02  0.00000000000E+00 0.  1.
         25    2    1    2    0    0  0.23208290147E+02  0.40470985594E+02  0.11399058132E+03  0.17555464013E+03  0.12509617755E+03 0.  0.
         23    2    1    2    0    0 -0.23208290147E+02 -0.40470985594E+02  0.16125057446E+02  0.95163732866E+02  0.81360882302E+02 0.  0.
          5    1    3    3  502    0 -0.48857253630E+02  0.60579458364E+01  0.65451494362E+02  0.82006709812E+02  0.41800000000E+01 0.  1.
         -5    1    3    3    0  502  0.72065543776E+02  0.34413039757E+02  0.48539086956E+02  0.93547930323E+02  0.41800000000E+01 0.  1.
        -11    1    4    4    0    0  0.30330268427E+02 -0.16121287527E+02  0.68575324924E+00  0.34355368604E+02  0.00000000000E+00 0. -1.
         11    1    4    4    0    0 -0.53538558574E+02 -0.24349698067E+02  0.15439304197E+02  0.60808364262E+02  0.00000000000E+00 0.  1.
</event>
<event>
 8    1  0.6901948E-009  0.1408964E+03  0.7561462E-02  0.1212128E+00
          2   -1    0    0  501    0  0.00000000000E+00  0.00000000000E+00  0.51693647288E+03  0.51693647288E+03  0.00000000000E+00 0. -1.
         -2   -1    0    0    0  501 -0.00000000000E+00 -0.00000000000E+00 -0.50015791050E+02  0.50015791050E+02  0.00000000000E+00 0.  1.
         25    2    1    2    0    0 -0.23971554915E+02 -0.10937590176E+03  0.18140823672E+03  0.24716982323E+03  0.12508497046E+03 0.  0.
         23    2    1    2    0    0  0.23971554915E+02  0.10937590176E+03  0.28551244512E+03  0.31978244071E+03  0.90585483047E+02 0.  0.
          5    1    3    3  502    0 -0.50349372800E+02 -0.42944921927E+02  0.17914335906E+02  0.68685671661E+02  0.41800000000E+01 0. -1.
         -5    1    3    3    0  502  0.26377817885E+02 -0.66430979828E+02  0.16349390081E+03  0.17848415156E+03  0.41800000000E+01 0. -1.
        -11    1    4    4    0    0 -0.32370374843E+02  0.63324097920E+02  0.13408003372E+03  0.15177364062E+03  0.00000000000E+00 0.  1.
         11    1    4    4    0    0  0.56341929758E+02  0.46051803835E+02  0.15143241139E+03  0.16800880008E+03  0.00000000000E+00 0. -1.
</event>
<event>
 8    1  0.6901948E-009  0.1292110E+03  0.7561462E-02  0.1228631E+00
          2   -1    0    0  501    0  0.00000000000E+00  0.00000000000E+00  0.38914371510E+03  0.38914371510E+03  0.00000000000E+00 0.  1.
         -2   -1    0    0    0  501 -0.00000000000E+00 -0.00000000000E+00 -0.44126854458E+02  0.44126854458E+02  0.00000000000E+00 0. -1.
         25    2    1    2    0    0 -0.34750288920E+02 -0.55285920744E+02  0.17817126254E+03  0.22728198523E+03  0.12509191182E+03 0.  0.
         23    2    1    2    0    0  0.34750288920E+02  0.55285920744E+02  0.16684559810E+03  0.20598858432E+03  0.10163526777E+03 0.  0.
          5    1    3    3  502    0 -0.79921081984E+02 -0.28556549795E+02  0.13341779144E+03  0.15817912427E+03  0.41800000000E+01 0.  1.
         -5    1    3    3    0  502  0.45170793064E+02 -0.26729370950E+02  0.44753471101E+02  0.69102860961E+02  0.41800000000E+01 0.  1.
        -11    1    4    4    0    0  0.42547484780E+02  0.82317399421E+02  0.12900548654E+03  0.15883594765E+03  0.00000000000E+00 0. -1.
         11    1    4    4    0    0 -0.77971958601E+01 -0.27031478676E+02  0.37840111551E+02  0.47152636670E+02  0.00000000000E+00 0.  1.
</event>
<event>
 8    1  0.6901948E-009  0.1489558E+03  0.7561462E-02  0.1201762E+00
         -1   -1    0    0    0  501 -0.00000000000E+00  0.00000000000E+00  0.39477212628E+02  0.39477212628E+02  0.00000000000E+00 0.  1.
          1   -1    0    0  501    0  0.00000000000E+00 -0.00000000000E+00 -0.10733264197E+04  0.10733264197E+04  0.00000000000E+00 0. -1.
         25    2    1    2    0    0  0.20079767744E+02 -0.12350377894E+03 -0.86670572943E+03  0.88458077511E+03  0.12509174948E+03 0.  0.
         23    2    1    2    0    0 -0.20079767744E+02  0.12350377894E+03 -0.16714347767E+03  0.22822285724E+03  0.92153947045E+02 0.  0.
          5    1    3    3  502    0  0.43696605502E+02  0.52734566709E+00 -0.34580347841E+03  0.34857881391E+03  0.41800000000E+01 0. -1.
         -5    1    3    3    0  502 -0.23616837759E+02 -0.12403112461E+03 -0.52090225102E+03  0.53600196120E+03  0.41800000000E+01 0. -1.
        -11    1    4    4    0    0  0.45449570187E+01  0.49121109630E+02 -0.68498356173E+01  0.49804219637E+02  0.00000000000E+00 0.  1.
         11    1    4    4    0    0 -0.24624724762E+02  0.74382669308E+02 -0.16029364205E+03  0.17841863761E+03  0.00000000000E+00 0. -1.
</event>
<event>
 8    1  0.6901948E-009  0.1088169E+03  0.7561462E-02  0.1262777E+00
          1   -1    0    0  501    0  0.00000000000E+00  0.00000000000E+00  0.41616022177E+03  0.41616022177E+03  0.00000000000E+00 0. -1.
         -1   -1    0    0    0  501 -0.00000000000E+00 -0.00000000000E+00 -0.34233150604E+02  0.34233150604E+02  0.00000000000E+00 0.  1.
         25    2    1    2    0    0 -0.24383845797E+02 -0.16916643020E+02  0.29242183660E+03  0.31943428687E+03  0.12508792251E+03 0.  0.
         23    2    1    2    0    0  0.24383845797E+02  0.16916643020E+02  0.89505234559E+02  0.13095908550E+03  0.90875465969E+02 0.  0.
          5    1    3    3  502    0  0.31499194915E+02 -0.48968706487E+02  0.92802656960E+02  0.10963548255E+03  0.41800000000E+01 0.  1.
         -5    1    3    3    0  502 -0.55883040712E+02  0.32052063468E+02  0.19961917964E+03  0.20979880432E+03  0.41800000000E+01 0.  1.
        -11    1    4    4    0    0 -0.26320712196E+02  0.32345278496E+02  0.30624961747E+02  0.51738624001E+02  0.00000000000E+00 0.  1.
         11    1    4    4    0    0  0.50704557993E+02 -0.15428635476E+02  0.58880272812E+02  0.79220461500E+02  0.00000000000E+00 0. -1.
</event>
<event>
 8    1  0.6901948E-009  0.1123554E+03  0.7561462E-02  0.1256269E+00
          1   -1    0    0  501    0  0.00000000000E+00  0.00000000000E+00  0.34042534838E+03  0.34042534838E+03  0.00000000000E+00 0. -1.
         -1   -1    0    0    0  501 -0.00000000000E+00 -0.00000000000E+00 -0.99367537686E+02  0.99367537686E+02  0.00000000000E+00 0.  1.
         25    2    1    2    0    0 -0.75751631241E+02 -0.28396250471E+02  0.27470537147E+03  0.31250095419E+03  0.12509655702E+03 0.  0.
         23    2    1    2    0    0  0.75751631241E+02  0.28396250471E+02 -0.33647560773E+02  0.12729193188E+03  0.92338620843E+02 0.  0.
          5    1    3    3  502    0 -0.68891646538E+02 -0.62141354481E+02  0.10898006429E+03  0.14318426489E+03  0.41800000000E+01 0.  1.
         -5    1    3    3    0  502 -0.68599847033E+01  0.33745104010E+02  0.16572530719E+03  0.16931668930E+03  0.41800000000E+01 0.  1.
        -11    1    4    4    0    0  0.66103808774E+02 -0.11046452098E+01 -0.57915279055E+02  0.87892623829E+02  0.00000000000E+00 0.  1.
         11    1    4    4    0    0  0.96478224675E+01  0.29500895681E+02  0.24267718282E+02  0.39399308051E+02  0.00000000000E+00 0. -1.
</event>
<event>
 8    1  0.6901948E-009  0.1138445E+03  0.7561462E-02  0.1253612E+00
          2   -1    0    0  501    0  0.00000000000E+00  0.00000000000E+00  0.15422193390E+04  0.15422193390E+04  0.00000000000E+00 0.  1.
         -2   -1    0    0    0  501 -0.00000000000E+00 -0.00000000000E+00 -0.10215965346E+02  0.10215965346E+02  0.00000000000E+00 0. -1.
         25    2    1    2    0    0  0.55392804993E+02 -0.27840153353E+02  0.97360339522E+03  0.98356216765E+03  0.12509008544E+03 0.  0.
         23    2    1    2    0    0 -0.55392804993E+02  0.27840153353E+02  0.55839997841E+03  0.56887313666E+03  0.89233809453E+02 0.  0.
          5    1    3    3  502    0  0.48303908606E+02 -0.65069146532E+02  0.85810427511E+03  0.86193252681E+03  0.41800000000E+01 0. -1.
         -5    1    3    3    0  502  0.70888963873E+01  0.37228993179E+02  0.11549912011E+03  0.12162964084E+03  0.41800000000E+01 0. -1.
        -11    1    4    4    0    0  0.55734485467E+01  0.44790751227E+02  0.25135034118E+03  0.25537084551E+03  0.00000000000E+00 0. -1.
         11    1    4    4    0    0 -0.60966253540E+02 -0.16950597874E+02  0.30704963722E+03  0.31350229115E+03  0.00000000000E+00 0.  1.
</event>
<event>
 8    1  0.6901948E-009  0.1909506E+03  0.7561462E-02  0.1157607E+00
          1   -1    0    0  501    0  0.00000000000E+00  0.00000000000E+00  0.48600852066E+03  0.48600852066E+03  0.00000000000E+00 0. -1.
         -1   -1    0    0    0  501 -0.00000000000E+00 -0.00000000000E+00 -0.94982699396E+02  0.94982699396E+02  0.00000000000E+00 0.  1.
         25    2    1    2    0    0  0.16024293907E+03 -0.82058290542E+02  0.25704494663E+03  0.33783244214E+03  0.12508913543E+03 0.  0.
         23    2    1    2    0    0 -0.16024293907E+03  0.82058290542E+02  0.13398087464E+03  0.24315877792E+03  0.93615991914E+02 0.  0.
          5    1    3    3  502    0  0.90562684944E+02  0.42278318538E+01  0.51796783735E+02  0.10449810368E+03  0.41800000000E+01 0. -1.
         -5    1    3    3    0  502  0.69680254130E+02 -0.86286122396E+02  0.20524816289E+03  0.23333433846E+03  0.41800000000E+01 0. -1.
        -11    1    4    4    0    0 -0.48778269228E+02  0.21536198132E+02  0.97588441290E+02  0.11120535622E+03  0.00000000000E+00 0. -1.
         11    1    4    4    0    0 -0.11146466985E+03  0.60522092410E+02  0.36392433348E+02  0.13195342170E+03  0.00000000000E+00 0.  1.
</event>
<event>
 8    1  0.6901948E-009  0.2043648E+03  0.7561462E-02  0.1146108E+00
         -2   -1    0    0    0  501 -0.00000000000E+00  0.00000000000E+00  0.64876529742E+02  0.64876529742E+02  0.00000000000E+00 0.  1.
          2   -1    0    0  501    0  0.00000000000E+00 -0.00000000000E+00 -0.66054585430E+03  0.66054585430E+03  0.00000000000E+00 0. -1.
         25    2    1    2    0    0  0.95231024227E+01 -0.17477810206E+03 -0.34281190017E+03  0.40472944543E+03  0.12509136925E+03 0.  0.
         23    2    1    2    0    0 -0.95231024227E+01  0.17477810206E+03 -0.25285742438E+03  0.32069293860E+03  0.90934093519E+02 0.  0.
          5    1    3    3  502    0 -0.46492668587E+02 -0.24388725479E+02 -0.10968106170E+03  0.12167080939E+03  0.41800000000E+01 0.  1.
         -5    1    3    3    0  502  0.56015771009E+02 -0.15038937658E+03 -0.23313083847E+03  0.28305863604E+03  0.41800000000E+01 0.  1.
        -11    1    4    4    0    0  0.29801654214E+02  0.20149091791E+02 -0.64398861122E+02  0.73765424202E+02  0.00000000000E+00 0.  1.
         11    1    4    4    0    0 -0.39324756637E+02  0.15462901027E+03 -0.18845856326E+03  0.24692751440E+03  0.00000000000E+00 0. -1.
</event>
<event>
 8    1  0.6901948E-009  0.1383498E+03  0.7561462E-02  0.1215567E+00
         -3   -1    0    0    0  501 -0.00000000000E+00  0.00000000000E+00  0.11060696387E+03  0.11060696387E+03  0.00000000000E+00 0.  1.
          3   -1    0    0  501    0  0.00000000000E+00 -0.00000000000E+00 -0.18658967258E+03  0.18658967258E+03  0.00000000000E+00 0. -1.
         25    2    1    2    0    0  0.81500059986E+02 -0.45783971841E+02 -0.42217483634E+02  0.16176706285E+03  0.12509130603E+03 0.  0.
         23    2    1    2    0    0 -0.81500059986E+02  0.45783971841E+02 -0.33765225078E+02  0.13542957360E+03  0.91992647121E+02 0.  0.
          5    1    3    3  502    0  0.11423429452E+02  0.37714603538E+02  0.99339516959E+01  0.40853908709E+02  0.41800000000E+01 0. -1.
         -5    1    3    3    0  502  0.70076630534E+02 -0.83498575379E+02 -0.52151435330E+02  0.12091315414E+03  0.41800000000E+01 0. -1.
        -11    1    4    4    0    0  0.12117593098E+02  0.30898941771E+02  0.39179170648E+01  0.33420513748E+02  0.00000000000E+00 0.  1.
         11    1    4    4    0    0 -0.93617653084E+02  0.14885030070E+02 -0.37683142143E+02  0.10200905985E+03  0.00000000000E+00 0. -1.
</event>
<event>
 8    1  0.6901948E-009  0.1193436E+03  0.7561462E-02  0.1244184E+00
          1   -1    0    0  501    0  0.00000000000E+00  0.00000000000E+00  0.28194572563E+03  0.28194572563E+03  0.00000000000E+00 0. -1.
         -1   -1    0    0    0  501 -0.00000000000E+00 -0.00000000000E+00 -0.82756025374E+02  0.82756025374E+02  0.00000000000E+00 0.  1.
         25    2    1    2    0    0  0.60529365267E+02  0.73566131260E+02  0.16755605617E+03  0.22977774184E+03  0.12508796488E+03 0.  0.
         23    2    1    2    0    0 -0.60529365267E+02 -0.73566131260E+02  0.31633644083E+02  0.13492400916E+03  0.90155538281E+02 0.  0.
          5    1    3    3  502    0  0.25638776828E+02  0.87918682153E+02  0.16848120588E+03  0.19180831755E+03  0.41800000000E+01 0. -1.
         -5    1    3    3    0  502  0.34890588439E+02 -0.14352550893E+02 -0.92514970343E+00  0.37969424288E+02  0.41800000000E+01 0. -1.
        -11    1    4    4    0    0 -0.15736536947E+02 -0.60325371487E+02  0.54601130782E+02  0.82873834971E+02  0.00000000000E+00 0. -1.
         11    1    4    4    0    0 -0.44792828320E+02 -0.13240759774E+02 -0.22967486699E+02  0.52050174193E+02  0.00000000000E+00 0.  1.
</event>
<event>
 8    1  0.6901948E-009  0.9820594E+02  0.7561462E-02  0.1284114E+00
          2   -1    0    0  501    0  0.00000000000E+00  0.00000000000E+00  0.11040749654E+04  0.11040749654E+04  0.00000000000E+00 0. -1.
         -2   -1    0    0    0  501 -0.00000000000E+00 -0.00000000000E+00 -0.26793241668E+02  0.26793241668E+02  0.00000000000E+00 0.  1.
         25    2    1    2    0    0 -0.61181355766E+02 -0.45393940138E+02  0.92509767680E+03  0.93661914431E+03  0.12508373910E+03 0.  0.
         23    2    1    2    0    0  0.61181355766E+02  0.45393940138E+02  0.15218404691E+03  0.19424906273E+03  0.93642651304E+02 0.  0.
          5    1    3    3  502    0 -0.20676953701E+02 -0.27309962255E+02  0.83870098743E+03  0.83941062012E+03  0.41800000000E+01 0. -1.
         -5    1    3    3    0  502 -0.40504402064E+02 -0.18083977883E+02  0.86396689370E+02  0.97208524198E+02  0.41800000000E+01 0. -1.
        -11    1    4    4    0    0  0.13821996418E+02  0.64733583877E+02  0.62698466972E+02  0.91173363583E+02  0.00000000000E+00 0.  1.
         11    1    4    4    0    0  0.47359359348E+02 -0.19339643739E+02  0.89485579942E+02  0.10307569915E+03  0.00000000000E+00 0. -1.
</event>
<event>
 8    1  0.6901948E-009  0.1066995E+03  0.7561462E-02  0.1266807E+00
         -2   -1    0    0    0  501 -0.00000000000E+00  0.00000000000E+00  0.25361285005E+02  0.25361285005E+02  0.00000000000E+00 0.  1.
          2   -1    0    0  501    0  0.00000000000E+00 -0.00000000000E+00 -0.53616149037E+03  0.53616149037E+03  0.00000000000E+00 0. -1.
         25    2    1    2    0    0 -0.24978886142E+02 -0.25543558535E+02 -0.34587356744E+03  0.36952359577E+03  0.12507096005E+03 0.  0.
         23    2    1    2    0    0  0.24978886142E+02  0.25543558535E+02 -0.16492663793E+03  0.19199917960E+03  0.91577677050E+02 0.  0.
          5    1    3    3  502    0  0.23188217232E+02  0.32132644242E+02 -0.21406858118E+03  0.21774533311E+03  0.41800000000E+01 0.  1.
         -5    1    3    3    0  502 -0.48167103375E+02 -0.57676202777E+02 -0.13180498626E+03  0.15177826266E+03  0.41800000000E+01 0.  1.
        -11    1    4    4    0    0 -0.20633046941E+02 -0.23530480425E+02 -0.51470840729E+02  0.60238306586E+02  0.00000000000E+00 0. -1.
         11    1    4    4    0    0  0.45611933084E+02  0.49074038960E+02 -0.11345579720E+03  0.13176087302E+03  0.00000000000E+00 0.  1.
</event>
<event>
 8    1  0.6901948E-009  0.7931536E+02  0.7561462E-02  0.1331006E+00
          1   -1    0    0  501    0  0.00000000000E+00  0.00000000000E+00  0.69041518978E+03  0.69041518978E+03  0.00000000000E+00 0. -1.
         -1   -1    0    0    0  501 -0.00000000000E+00 -0.00000000000E+00 -0.26182709663E+02  0.26182709663E+02  0.00000000000E+00 0.  1.
         25    2    1    2    0    0 -0.41318373173E+02  0.12302154811E+02  0.54357830279E+03  0.55944941196E+03  0.12509085619E+03 0.  0.
         23    2    1    2    0    0  0.41318373173E+02 -0.12302154811E+02  0.12065417733E+03  0.15714848749E+03  0.90992668046E+02 0.  0.
          5    1    3    3  502    0 -0.26052479112E+02 -0.13712163426E+02  0.52022562474E+03  0.52107478171E+03  0.41800000000E+01 0. -1.
         -5    1    3    3    0  502 -0.15265894061E+02  0.26014318236E+02  0.23352678046E+02  0.38374630249E+02  0.41800000000E+01 0. -1.
        -11    1    4    4    0    0 -0.18330437975E+02  0.22782942060E+02  0.52063333552E+02  0.59713131770E+02  0.00000000000E+00 0. -1.
         11    1    4    4    0    0  0.59648811148E+02 -0.35085096871E+02  0.68590843777E+02  0.97435355718E+02  0.00000000000E+00 0.  1.
</event>
<event>
 8    1  0.6901948E-009  0.1143194E+03  0.7561462E-02  0.1252774E+00
         -1   -1    0    0    0  501 -0.00000000000E+00  0.00000000000E+00  0.61157238999E+02  0.61157238999E+02  0.00000000000E+00 0.  1.
          1   -1    0    0  501    0  0.00000000000E+00 -0.00000000000E+00 -0.51368209964E+03  0.51368209964E+03  0.00000000000E+00 0. -1.
         25    2    1    2    0    0  0.45740834945E+02 -0.71447646142E+01 -0.45678055164E+03  0.47585773769E+03  0.12509533370E+03 0.  0.
         23    2    1    2    0    0 -0.45740834945E+02  0.71447646142E+01  0.42556910013E+01  0.98981600953E+02  0.87384064786E+02 0.  0.
          5    1    3    3  502    0 -0.43506127873E+02 -0.22484768180E+01 -0.13981882327E+03  0.14650806992E+03  0.41800000000E+01 0. -1.
         -5    1    3    3    0  502  0.89246962818E+02 -0.48962877962E+01 -0.31696172837E+03  0.32934966777E+03  0.41800000000E+01 0. -1.
        -11    1    4    4    0    0  0.24671228316E+02  0.31346174331E+01  0.12747099948E+02  0.27946088996E+02  0.00000000000E+00 0.  1.
         11    1    4    4    0    0 -0.70412063261E+02  0.40101471811E+01 -0.84914089464E+01  0.71035511957E+02  0.00000000000E+00 0. -1.
</event>
<event>
 8    1  0.6901948E-009  0.1847158E+03  0.7561462E-02  0.1163316E+00
          1   -1    0    0  501    0  0.00000000000E+00  0.00000000000E+00  0.99938010179E+02  0.99938010179E+02  0.00000000000E+00 0. -1.
         -1   -1    0    0    0  501 -0.00000000000E+00 -0.00000000000E+00 -0.40949887367E+03  0.40949887367E+03  0.00000000000E+00 0.  1.
         25    2    1    2    0    0 -0.95309413948E+02  0.13326788126E+03 -0.22269179973E+03  0.30345229971E+03  0.12508975967E+03 0.  0.
         23    2    1    2    0    0  0.95309413948E+02 -0.13326788126E+03 -0.86869063764E+02  0.20598458413E+03  0.89661597688E+02 0.  0.
          5    1    3    3  502    0 -0.17670042127E+02 -0.23847385309E+02 -0.23352042882E+02  0.37996295630E+02  0.41800000000E+01 0.  1.
         -5    1    3    3    0  502 -0.77639371821E+02  0.15711526657E+03 -0.19933975684E+03  0.26545600408E+03  0.41800000000E+01 0.  1.
        -11    1    4    4    0    0  0.32705600028E+02 -0.37698229631E+02  0.15833727653E+02  0.52359523698E+02  0.00000000000E+00 0. -1.
         11    1    4    4    0    0  0.62603813921E+02 -0.95569651626E+02 -0.10270279142E+03  0.15362506044E+03  0.00000000000E+00 0.  1.
</event>
<event>
 8    1  0.6901948E-009  0.1058046E+03  0.7561462E-02  0.1268542E+00
          1   -1    0    0  501    0  0.00000000000E+00  0.00000000000E+00  0.70991135222E+02  0.70991135222E+02  0.00000000000E+00 0. -1.
         -1   -1    0    0    0  501 -0.00000000000E+00 -0.00000000000E+00 -0.32307690422E+03  0.32307690422E+03  0.00000000000E+00 0.  1.
         25    2    1    2    0    0  0.29903119544E+02 -0.82833635967E+02 -0.20957933824E+03  0.25947228160E+03  0.12508700210E+03 0.  0.
         23    2    1    2    0    0 -0.29903119544E+02  0.82833635967E+02 -0.42506430759E+02  0.13459575785E+03  0.92485747919E+02 0.  0.
          5    1    3    3  502    0  0.48029702009E+02 -0.38911132998E+02 -0.20185832461E+03  0.21115204039E+03  0.41800000000E+01 0. -1.
         -5    1    3    3    0  502 -0.18126582464E+02 -0.43922502970E+02 -0.77210136301E+01  0.48320241208E+02  0.41800000000E+01 0. -1.
        -11    1    4    4    0    0  0.13888383852E+02  0.10550559832E+02 -0.46829188185E+02  0.49971735860E+02  0.00000000000E+00 0.  1.
         11    1    4    4    0    0 -0.43791503396E+02  0.72283076136E+02  0.43227574263E+01  0.84624021986E+02  0.00000000000E+00 0. -1.
</event>
<event>
 8    1  0.6901948E-009  0.1530130E+03  0.7561462E-02  0.1196819E+00
         -2   -1    0    0    0  501 -0.00000000000E+00  0.00000000000E+00  0.49052690526E+02  0.49052690526E+02  0.00000000000E+00 0.  1.
          2   -1    0    0  501    0  0.00000000000E+00 -0.00000000000E+00 -0.62735648840E+03  0.62735648840E+03  0.00000000000E+00 0. -1.
         25    2    1    2    0    0  0.13468853085E+03 -0.25985357181E+02 -0.30342068563E+03  0.35570733314E+03  0.12508938905E+03 0.  0.
         23    2    1    2    0    0 -0.13468853085E+03  0.25985357181E+02 -0.27488311225E+03  0.32070184579E+03  0.92047321328E+02 0.  0.
          5    1    3    3  502    0  0.51720222874E+02 -0.57781647373E+02 -0.22172850220E+03  0.23493552587E+03  0.41800000000E+01 0. -1.
         -5    1    3    3    0  502  0.82968307973E+02  0.31796290192E+02 -0.81692183423E+02  0.12077180727E+03  0.41800000000E+01 0. -1.
        -11    1    4    4    0    0 -0.55777040655E+02  0.23326931523E+02 -0.38977503021E+02  0.71933787195E+02  0.00000000000E+00 0.  1.
         11    1    4    4    0    0 -0.78911490191E+02  0.26584256576E+01 -0.23590560923E+03  0.24876805860E+03  0.00000000000E+00 0. -1.
</event>
<event>
 8    1  0.6901948E-009  0.1091436E+03  0.7561462E-02  0.1262164E+00
         -3   -1    0    0    0  501 -0.00000000000E+00  0.00000000000E+00  0.27227469080E+03  0.27227469080E+03  0.00000000000E+00 0.  1.
          3   -1    0    0  501    0  0.00000000000E+00 -0.00000000000E+00 -0.91866347842E+02  0.91866347842E+02  0.00000000000E+00 0. -1.
         25    2    1    2    0    0 -0.73918561463E+02  0.56079458299E+02  0.17425193830E+03  0.23371384397E+03  0.12509821538E+03 0.  0.
         23    2    1    2    0    0  0.73918561463E+02 -0.56079458299E+02  0.61564046644E+01  0.13042719467E+03  0.91457599031E+02 0.  0.
          5    1    3    3  502    0 -0.33764224128E+00 -0.43401227349E+01  0.12735795831E+03  0.12750087299E+03  0.41800000000E+01 0. -1.
         -5    1    3    3    0  502 -0.73580919222E+02  0.60419581034E+02  0.46893979986E+02  0.10621297098E+03  0.41800000000E+01 0. -1.
        -11    1    4    4    0    0  0.17780077001E+02  0.17134274870E+02  0.26214441163E+02  0.36012656650E+02  0.00000000000E+00 0.  1.
         11    1    4    4    0    0  0.56138484462E+02 -0.73213733169E+02 -0.20058036499E+02  0.94414538025E+02  0.00000000000E+00 0. -1.
</event>
<event>
 8    1  0.6901948E-009  0.1058886E+03  0.7561462E-02  0.1268379E+00
          2   -1    0    0  501    0  0.00000000000E+00  0.00000000000E+00  0.25124689564E+04  0.25124689564E+04  0.00000000000E+00 0. -1.
         -2   -1    0    0    0  501 -0.00000000000E+00 -0.00000000000E+00 -0.90617361085E+01  0.90617361085E+01  0.00000000000E+00 0.  1.
         25    2    1    2    0    0  0.30905518172E+02 -0.31476970107E+02  0.22644324977E+04  0.22683146083E+04  0.12510265859E+03 0.  0.
         23    2    1    2    0    0 -0.30905518172E+02  0.31476970107E+02  0.23897472269E+03  0.25321608424E+03  0.71158390461E+02 0.  0.
          5    1    3    3  502    0  0.38150051412E+02  0.40513924234E+02  0.12810975613E+04  0.12823124574E+04  0.41800000000E+01 0.  1.
         -5    1    3    3    0  502 -0.72445332396E+01 -0.71990894341E+02  0.98333493639E+03  0.98600215094E+03  0.41800000000E+01 0.  1.
        -11    1    4    4    0    0  0.11535886359E+02 -0.16057690320E+02  0.64843646436E+02  0.67791036101E+02  0.00000000000E+00 0.  1.
         11    1    4    4    0    0 -0.42441404531E+02  0.47534660426E+02  0.17413107625E+03  0.18542504814E+03  0.00000000000E+00 0. -1.
</event>
<event>
 8    1  0.6901948E-009  0.1169310E+03  0.7561462E-02  0.1248247E+00
         -1   -1    0    0    0  501 -0.00000000000E+00  0.00000000000E+00  0.33622858444E+02  0.33622858444E+02  0.00000000000E+00 0.  1.
          1   -1    0    0  501    0  0.00000000000E+00 -0.00000000000E+00 -0.50947221579E+03  0.50947221579E+03  0.00000000000E+00 0. -1.
         25    2    1    2    0    0  0.46513653546E+02  0.62668520081E+01 -0.37777046083E+03  0.40070029453E+03  0.12508961412E+03 0.  0.
         23    2    1    2    0    0 -0.46513653546E+02 -0.62668520081E+01 -0.98078896521E+02  0.14239477971E+03  0.91945690195E+02 0.  0.
          5    1    3    3  502    0  0.60930806085E+02  0.53631238432E+02 -0.27116930851E+03  0.28308857120E+03  0.41800000000E+01 0. -1.
         -5    1    3    3    0  502 -0.14417152539E+02 -0.47364386424E+02 -0.10660115232E+03  0.11761172333E+03  0.41800000000E+01 0. -1.
        -11    1    4    4    0    0  0.13702248170E+02  0.29734078076E+02 -0.36665926981E+02  0.49155439224E+02  0.00000000000E+00 0.  1.
         11    1    4    4    0    0 -0.60215901716E+02 -0.36000930084E+02 -0.61412969540E+02  0.93239340485E+02  0.00000000000E+00 0. -1.
</event>
<event>
 8    1  0.6901948E-009  0.9365579E+02  0.7561462E-02  0.1294233E+00
          2   -1    0    0  501    0  0.00000000000E+00  0.00000000000E+00  0.15594408643E+03  0.15594408643E+03  0.00000000000E+00 0. -1.
         -2   -1    0    0    0  501 -0.00000000000E+00 -0.00000000000E+00 -0.18148029470E+03  0.18148029470E+03  0.00000000000E+00 0.  1.
         25    2    1    2    0    0 -0.46665903032E+02 -0.43498581380E+02 -0.12432984597E+03  0.18754972785E+03  0.12508859551E+03 0.  0.
         23    2    1    2    0    0  0.46665903032E+02  0.43498581380E+02  0.98793637701E+02  0.14987465328E+03  0.92910687002E+02 0.  0.
          5    1    3    3  502    0  0.14109780772E+02 -0.53639814732E+02 -0.84768093770E+01  0.56264059000E+02  0.41800000000E+01 0. -1.
         -5    1    3    3    0  502 -0.60775683804E+02  0.10141233352E+02 -0.11585303660E+03  0.13128566885E+03  0.41800000000E+01 0. -1.
        -11    1    4    4    0    0  0.29765392811E+02  0.43885152453E+02  0.11488704008E+03  0.12653425305E+03  0.00000000000E+00 0. -1.
         11    1    4    4    0    0  0.16900510220E+02 -0.38657107321E+00 -0.16093402384E+02  0.23340400236E+02  0.00000000000E+00 0.  1.
</event>
<event>
 7    1  0.6901948E-009  0.3377856E+03  0.7561462E-02  0.1067743E+00
         -2   -1    0    0    0  501 -0.00000000000E+00  0.00000000000E+00  0.13368759380E+03  0.13368759380E+03  0.00000000000E+00 0.  1.
          2   -1    0    0  501    0  0.00000000000E+00 -0.00000000000E+00 -0.16083783041E+04  0.16083783041E+04  0.00000000000E+00 0. -1.
         23    2    1    2    0    0 -0.13365744543E+03  0.30544345106E+03 -0.16196108680E+03  0.38187492058E+03  0.91853398504E+02 0.  0.
          5    1    1    2  502    0  0.54683223399E+02 -0.70283979073E+02 -0.57475068456E+03  0.58162351606E+03  0.41800000000E+01 0.  1.
         -5    1    1    2    0  502  0.78974222028E+02 -0.23515947199E+03 -0.73797893897E+03  0.77856746129E+03  0.41800000000E+01 0.  1.
        -11    1    3    3    0    0 -0.13891701578E+03  0.28283984181E+03 -0.16906812853E+03  0.35760361502E+03  0.00000000000E+00 0.  1.
         11    1    3    3    0    0  0.52595703573E+01  0.22603609255E+02  0.71070417298E+01  0.24271305565E+02  0.00000000000E+00 0. -1.
</event>
<event>
 8    1  0.6901948E-009  0.7013465E+02  0.7561462E-02  0.1359636E+00
          2   -1    0    0  501    0  0.00000000000E+00  0.00000000000E+00  0.17170149699E+04  0.17170149699E+04  0.00000000000E+00 0. -1.
         -2   -1    0    0    0  501 -0.00000000000E+00 -0.00000000000E+00 -0.22609159593E+02  0.22609159593E+02  0.00000000000E+00 0.  1.
         25    2    1    2    0    0 -0.82011547651E+01 -0.58963508550E+02  0.15601208591E+04  0.15662592713E+04  0.12508819230E+03 0.  0.
         23    2    1    2    0    0  0.82011547651E+01  0.58963508550E+02  0.13428495127E+03  0.17336485819E+03  0.92081331650E+02 0.  0.
          5    1    3    3  502    0 -0.14330965289E+02 -0.64801707150E+02  0.35934023919E+03  0.36544153803E+03  0.41800000000E+01 0.  1.
         -5    1    3    3    0  502  0.61298105235E+01  0.58381985996E+01  0.12007806199E+04  0.12008177333E+04  0.41800000000E+01 0.  1.
        -11    1    4    4    0    0  0.10195689106E+02  0.70922793452E+01 -0.12530503483E+02  0.17642732787E+02  0.00000000000E+00 0.  1.
         11    1    4    4    0    0 -0.19945343406E+01  0.51871229205E+02  0.14681545475E+03  0.15572212540E+03  0.00000000000E+00 0. -1.
</event>
<event>
 8    1  0.6901948E-009  0.1087379E+03  0.7561462E-02  0.1262925E+00
          2   -1    0    0  501    0  0.00000000000E+00  0.00000000000E+00  0.17346250174E+04  0.17346250174E+04  0.00000000000E+00 0. -1.
         -2   -1    0    0    0  501 -0.00000000000E+00 -0.00000000000E+00 -0.15036406995E+02  0.15036406995E+02  0.00000000000E+00 0.  1.
         25    2    1    2    0    0 -0.34033983087E+02  0.35872163221E+02  0.15194526500E+04  0.15253945106E+04  0.12508770237E+03 0.  0.
         23    2    1    2    0    0  0.34033983087E+02 -0.35872163221E+02  0.20013596044E+03  0.22426691383E+03  0.88295650392E+02 0.  0.
          5    1    3    3  502    0  0.41954322602E+02  0.38710812330E+02  0.55682279228E+03  0.55975689954E+03  0.41800000000E+01 0.  1.
         -5    1    3    3    0  502 -0.75988305689E+02 -0.28386491088E+01  0.96262985773E+03  0.96563761107E+03  0.41800000000E+01 0.  1.
        -11    1    4    4    0    0  0.45048975745E+02  0.15466243283E+01  0.42765747908E+02  0.62134623654E+02  0.00000000000E+00 0.  1.
         11    1    4    4    0    0 -0.11014992659E+02 -0.37418787549E+02  0.15737021253E+03  0.16213229017E+03  0.00000000000E+00 0. -1.
</event>
<event>
 8    1  0.6901948E-009  0.1257386E+03  0.7561462E-02  0.1233919E+00
         -4   -1    0    0    0  501 -0.00000000000E+00  0.00000000000E+00  0.47090427608E+03  0.47090427608E+03  0.00000000000E+00 0.  1.
          4   -1    0    0  501    0  0.00000000000E+00 -0.00000000000E+00 -0.76791522149E+02  0.76791522149E+02  0.00000000000E+00 0. -1.
         25    2    1    2    0    0  0.23916445604E+02 -0.11067334621E+03  0.36175925314E+03  0.39916932991E+03  0.12508321540E+03 0.  0.
         23    2    1    2    0    0 -0.23916445604E+02  0.11067334621E+03  0.32353500795E+02  0.14852646833E+03  0.90513959412E+02 0.  0.
          5    1    3    3  502    0  0.37913276790E+02 -0.33467170977E+02  0.28444114559E+03  0.28893200895E+03  0.41800000000E+01 0. -1.
         -5    1    3    3    0  502 -0.13996831186E+02 -0.77206175231E+02  0.77318107549E+02  0.11023732096E+03  0.41800000000E+01 0. -1.
        -11    1    4    4    0    0  0.13041191778E+02  0.16775970657E+02 -0.24718628793E+02  0.32596264876E+02  0.00000000000E+00 0. -1.
         11    1    4    4    0    0 -0.36957637382E+02  0.93897375551E+02  0.57072129587E+02  0.11593020345E+03  0.00000000000E+00 0.  1.
</event>
<event>
 8    1  0.6901948E-009  0.8493224E+02  0.7561462E-02  0.1315610E+00
          2   -1    0    0  501    0  0.00000000000E+00  0.00000000000E+00  0.29323617737E+03  0.29323617737E+03  0.00000000000E+00 0.  1.
         -2   -1    0    0    0  501 -0.00000000000E+00 -0.00000000000E+00 -0.53951130841E+02  0.53951130841E+02  0.00000000000E+00 0. -1.
         25    2    1    2    0    0  0.10355759604E+01 -0.18661298444E+02  0.21551959087E+03  0.24989066450E+03  0.12508930282E+03 0.  0.
         23    2    1    2    0    0 -0.10355759604E+01  0.18661298444E+02  0.23765455656E+02  0.97296643708E+02  0.92479854655E+02 0.  0.
          5    1    3    3  502    0  0.61232870172E+02 -0.17746646407E+02  0.13411999417E+03  0.14855993095E+03  0.41800000000E+01 0.  1.
         -5    1    3    3    0  502 -0.60197294212E+02 -0.91465203699E+00  0.81399596701E+02  0.10133073355E+03  0.41800000000E+01 0.  1.
        -11    1    4    4    0    0 -0.18887146472E+02  0.20265442314E+02 -0.29874227638E+02  0.40741648604E+02  0.00000000000E+00 0. -1.
         11    1    4    4    0    0  0.17851570512E+02 -0.16041438700E+01  0.53639683294E+02  0.56554995104E+02  0.00000000000E+00 0.  1.
</event>
<event>
 8    1  0.6901948E-009  0.1048292E+03  0.7561462E-02  0.1270456E+00
          2   -1    0    0  501    0  0.00000000000E+00  0.00000000000E+00  0.21973168381E+03  0.21973168381E+03  0.00000000000E+00 0. -1.
         -2   -1    0    0    0  501 -0.00000000000E+00 -0.00000000000E+00 -0.58850660071E+02  0.58850660071E+02  0.00000000000E+00 0.  1.
         25    2    1    2    0    0 -0.28709271679E+02 -0.11091138394E+02  0.13123787607E+03  0.18390926583E+03  0.12510796263E+03 0.  0.
         23    2    1    2    0    0  0.28709271679E+02  0.11091138394E+02  0.29643147669E+02  0.94673078048E+02  0.84481003025E+02 0.  0.
          5    1    3    3  502    0 -0.76350912754E+02 -0.18308581366E+02  0.65736807966E+02  0.10248642033E+03  0.41800000000E+01 0.  1.
         -5    1    3    3    0  502  0.47641641076E+02  0.72174429724E+01  0.65501068105E+02  0.81422845507E+02  0.41800000000E+01 0.  1.
        -11    1    4    4    0    0 -0.25940724355E+02  0.10574377439E+02 -0.69984711739E+01  0.28874162101E+02  0.00000000000E+00 0.  1.
         11    1    4    4    0    0  0.54649996033E+02  0.51676095479E+00  0.36641618843E+02  0.65798915947E+02  0.00000000000E+00 0. -1.
</event>
<event>
 8    1  0.6901948E-009  0.1329094E+03  0.7561462E-02  0.1223202E+00
          1   -1    0    0  501    0  0.00000000000E+00  0.00000000000E+00  0.98779237991E+02  0.98779237991E+02  0.00000000000E+00 0. -1.
         -1   -1    0    0    0  501 -0.00000000000E+00 -0.00000000000E+00 -0.19596731553E+03  0.19596731553E+03  0.00000000000E+00 0.  1.
         25    2    1    2    0    0  0.83415615010E+02  0.16570853445E+02 -0.49165594706E+02  0.15904613703E+03  0.12508261266E+03 0.  0.
         23    2    1    2    0    0 -0.83415615010E+02 -0.16570853445E+02 -0.48022482830E+02  0.13570041649E+03  0.94210860128E+02 0.  0.
          5    1    3    3  502    0 -0.26528889529E+02  0.18554369031E+02 -0.35390185403E+02  0.48145448514E+02  0.41800000000E+01 0. -1.
         -5    1    3    3    0  502  0.10994450454E+03 -0.19835155868E+01 -0.13775409303E+02  0.11090068852E+03  0.41800000000E+01 0. -1.
        -11    1    4    4    0    0 -0.29664997136E+02 -0.51215432345E+02 -0.39570866543E+02  0.71196109756E+02  0.00000000000E+00 0.  1.
         11    1    4    4    0    0 -0.53750617874E+02  0.34644578900E+02 -0.84516162873E+01  0.64504306731E+02  0.00000000000E+00 0. -1.
</event>
<event>
 8    1  0.6901948E-009  0.9104690E+02  0.7561462E-02  0.1300336E+00
          1   -1    0    0  501    0  0.00000000000E+00  0.00000000000E+00  0.16432062821E+03  0.16432062821E+03  0.00000000000E+00 0. -1.
         -1   -1    0    0    0  501 -0.00000000000E+00 -0.00000000000E+00 -0.83681589431E+02  0.83681589431E+02  0.00000000000E+00 0.  1.
         25    2    1    2    0    0  0.17144220028E+02  0.39281086795E+02  0.72550017043E+02  0.15082654821E+03  0.12509282399E+03 0.  0.
         23    2    1    2    0    0 -0.17144220028E+02 -0.39281086795E+02  0.80890217344E+01  0.97175669426E+02  0.86837494181E+02 0.  0.
          5    1    3    3  502    0 -0.31421310535E+02  0.82659956491E+00  0.82098615856E+02  0.88009301486E+02  0.41800000000E+01 0. -1.
         -5    1    3    3    0  502  0.48565530563E+02  0.38454487230E+02 -0.95485988135E+01  0.62817246727E+02  0.41800000000E+01 0. -1.
        -11    1    4    4    0    0 -0.40312292501E+02 -0.48759300950E+02  0.23831095025E+02  0.67605261969E+02  0.00000000000E+00 0. -1.
         11    1    4    4    0    0  0.23168072473E+02  0.94782141548E+01 -0.15742073290E+02  0.29570407457E+02  0.00000000000E+00 0.  1.
</event>
<event>
 8    1  0.6901948E-009  0.1173295E+03  0.7561462E-02  0.1247569E+00
          1   -1    0    0  501    0  0.00000000000E+00  0.00000000000E+00  0.23698153364E+03  0.23698153364E+03  0.00000000000E+00 0. -1.
         -1   -1    0    0    0  501 -0.00000000000E+00 -0.00000000000E+00 -0.85332033598E+02  0.85332033598E+02  0.00000000000E+00 0.  1.
         25    2    1    2    0    0 -0.87761264084E+00  0.74436590138E+02  0.14571936076E+03  0.20596619773E+03  0.12508543620E+03 0.  0.
         23    2    1    2    0    0  0.87761264084E+00 -0.74436590138E+02  0.59301392819E+01  0.11634736951E+03  0.89218650996E+02 0.  0.
          5    1    3    3  502    0  0.39770312288E+02 -0.17187455336E+02  0.30267768295E+02  0.53016002848E+02  0.41800000000E+01 0. -1.
         -5    1    3    3    0  502 -0.40647924929E+02  0.91624045474E+02  0.11545159247E+03  0.15295019488E+03  0.41800000000E+01 0. -1.
        -11    1    4    4    0    0  0.19386472165E+02 -0.68773466946E+02  0.36445055914E+02  0.80211390459E+02  0.00000000000E+00 0. -1.
         11    1    4    4    0    0 -0.18508859524E+02 -0.56631231922E+01 -0.30514916632E+02  0.36135979055E+02  0.00000000000E+00 0.  1.
</event>
<event>
 8    1  0.6901948E-009  0.1164543E+03  0.7561462E-02  0.1249064E+00
         -1   -1    0    0    0  501 -0.00000000000E+00  0.00000000000E+00  0.31649434816E+02  0.31649434816E+02  0.00000000000E+00 0.  1.
          1   -1    0    0  501    0  0.00000000000E+00 -0.00000000000E+00 -0.53669651560E+03  0.53669651560E+03  0.00000000000E+00 0. -1.
         25    2    1    2    0    0 -0.65684408848E+02 -0.11554622720E+02 -0.30677406784E+03  0.33794199123E+03  0.12508600988E+03 0.  0.
         23    2    1    2    0    0  0.65684408848E+02  0.11554622720E+02 -0.19827301295E+03  0.23040395919E+03  0.96570419244E+02 0.  0.
          5    1    3    3  502    0  0.32008956160E+01 -0.50778775344E+02 -0.19002380949E+03  0.19676191280E+03  0.41800000000E+01 0.  1.
         -5    1    3    3    0  502 -0.68885304464E+02  0.39224152625E+02 -0.11675025835E+03  0.14118007843E+03  0.41800000000E+01 0.  1.
        -11    1    4    4    0    0 -0.48449992157E+01 -0.23305207263E+02 -0.90299207379E+01  0.25458715041E+02  0.00000000000E+00 0.  1.
         11    1    4    4    0    0  0.70529408063E+02  0.34859829983E+02 -0.18924309221E+03  0.20494524415E+03  0.00000000000E+00 0. -1.
</event>
<event>
 8    1  0.6901948E-009  0.9559777E+02  0.7561462E-02  0.1289835E+00
         -2   -1    0    0    0  501 -0.00000000000E+00  0.00000000000E+00  0.10655190221E+03  0.10655190221E+03  0.00000000000E+00 0. -1.
          2   -1    0    0  501    0  0.00000000000E+00 -0.00000000000E+00 -0.18591554590E+03  0.18591554590E+03  0.00000000000E+00 0.  1.
         25    2    1    2    0    0  0.68002178097E+02  0.40591392603E+02 -0.89050747308E+02  0.17277063781E+03  0.12509076830E+03 0.  0.
         23    2    1    2    0    0 -0.68002178097E+02 -0.40591392603E+02  0.96871036150E+01  0.11969681031E+03  0.89227400735E+02 0.  0.
          5    1    3    3  502    0  0.53436185746E+02  0.69202922674E+01 -0.11538716128E+03  0.12741658361E+03  0.41800000000E+01 0. -1.
         -5    1    3    3    0  502  0.14565992351E+02  0.33671100336E+02  0.26336413969E+02  0.45354054193E+02  0.41800000000E+01 0. -1.
        -11    1    4    4    0    0 -0.42323009861E+02  0.10003044184E+02 -0.27871373451E+02  0.51653765736E+02  0.00000000000E+00 0.  1.
         11    1    4    4    0    0 -0.25679168236E+02 -0.50594436787E+02  0.37558477065E+02  0.68043044571E+02  0.00000000000E+00 0. -1.
</event>
<event>
 8    1  0.6901948E-009  0.1267531E+03  0.7561462E-02  0.1232355E+00
         -1   -1    0    0    0  501 -0.00000000000E+00  0.00000000000E+00  0.14634297984E+04  0.14634297984E+04  0.00000000000E+00 0.  1.
          1   -1    0    0  501    0  0.00000000000E+00 -0.00000000000E+00 -0.13041535192E+02  0.13041535192E+02  0.00000000000E+00 0. -1.
         25    2    1    2    0    0 -0.35198680756E+02 -0.55477078978E+02  0.10786157391E+04  0.10878310767E+04  0.12509150758E+03 0.  0.
         23    2    1    2    0    0  0.35198680756E+02  0.55477078978E+02  0.37177252411E+03  0.38864025695E+03  0.92248502516E+02 0.  0.
          5    1    3    3  502    0 -0.42208976745E+02 -0.93158877219E+02  0.81775303394E+03  0.82413449814E+03  0.41800000000E+01 0. -1.
         -5    1    3    3    0  502  0.70102959882E+01  0.37681798241E+02  0.26086270519E+03  0.26369657853E+03  0.41800000000E+01 0. -1.
        -11    1    4    4    0    0  0.30823653637E+02 -0.20157255604E+02  0.10263691113E+03  0.10904470690E+03  0.00000000000E+00 0. -1.
         11    1    4    4    0    0  0.43750271190E+01  0.75634334581E+02  0.26913561298E+03  0.27959555005E+03  0.00000000000E+00 0.  1.
</event>
<event>
 8    1  0.6901948E-009  0.1145561E+03  0.7561462E-02  0.1252358E+00
          2   -1    0    0  501    0  0.00000000000E+00  0.00000000000E+00  0.68284088951E+03  0.68284088951E+03  0.00000000000E+00 0. -1.
         -2   -1    0    0    0  501 -0.00000000000E+00 -0.00000000000E+00 -0.50706469166E+02  0.50706469166E+02  0.00000000000E+00 0.  1.
         25    2    1    2    0    0 -0.10207998477E+03 -0.46567577421E+02  0.53202898163E+03  0.55793254074E+03  0.12508005503E+03 0.  0.
         23    2    1    2    0    0  0.10207998477E+03  0.46567577421E+02  0.10010543872E+03  0.17561481794E+03  0.90722670045E+02 0.  0.
          5    1    3    3  502    0 -0.58784790680E+02 -0.36784942253E+02  0.49535736400E+03  0.50020513198E+03  0.41800000000E+01 0. -1.
         -5    1    3    3    0  502 -0.43295194094E+02 -0.97826351677E+01  0.36671617629E+02  0.57727408759E+02  0.41800000000E+01 0. -1.
        -11    1    4    4    0    0  0.86174123499E+02  0.28000116679E+02  0.21265483441E+02  0.93070977651E+02  0.00000000000E+00 0.  1.
         11    1    4    4    0    0  0.15905861275E+02  0.18567460742E+02  0.78839955276E+02  0.82543840286E+02  0.00000000000E+00 0. -1.
</event>
<event>
 8    1  0.6901948E-009  0.1548787E+03  0.7561462E-02  0.1194603E+00
          2   -1    0    0  501    0  0.00000000000E+00  0.00000000000E+00  0.57804108542E+03  0.57804108542E+03  0.00000000000E+00 0. -1.
         -2   -1    0    0    0  501 -0.00000000000E+00 -0.00000000000E+00 -0.44607693772E+02  0.44607693772E+02  0.00000000000E+00 0.  1.
         25    2    1    2    0    0  0.59296359451E+01 -0.11559253028E+03  0.32470352147E+03  0.36671290608E+03  0.12509670257E+03 0.  0.
         23    2    1    2    0    0 -0.59296359451E+01  0.11559253028E+03  0.20872987018E+03  0.25593587311E+03  0.92402482662E+02 0.  0.
          5    1    3    3  502    0 -0.32612954543E+02  0.13441106289E+02  0.74712594773E+02  0.82726733044E+02  0.41800000000E+01 0. -1.
         -5    1    3    3    0  502  0.38542590489E+02 -0.12903363656E+03  0.24999092670E+03  0.28398617304E+03  0.41800000000E+01 0. -1.
        -11    1    4    4    0    0 -0.40661376749E+02  0.80189657932E+02  0.17247348701E+03  0.19450149747E+03  0.00000000000E+00 0.  1.
         11    1    4    4    0    0  0.34731740804E+02  0.35402872343E+02  0.36256383172E+02  0.61434375639E+02  0.00000000000E+00 0. -1.
</event>
<event>
 8    1  0.6901948E-009  0.1331726E+03  0.7561462E-02  0.1222823E+00
          2   -1    0    0  501    0  0.00000000000E+00  0.00000000000E+00  0.10590298690E+03  0.10590298690E+03  0.00000000000E+00 0. -1.
         -2   -1    0    0    0  501 -0.00000000000E+00 -0.00000000000E+00 -0.24206228496E+03  0.24206228496E+03  0.00000000000E+00 0.  1.
         25    2    1    2    0    0 -0.15375981091E+02 -0.81363745123E+02  0.17981059214E+02  0.15108598744E+03  0.12508867772E+03 0.  0.
         23    2    1    2    0    0  0.15375981091E+02  0.81363745123E+02 -0.15414035728E+03  0.19687928442E+03  0.90253659635E+02 0.  0.
          5    1    3    3  502    0  0.49645492599E+01 -0.10924730472E+03  0.31343895369E+02  0.11383994253E+03  0.41800000000E+01 0.  1.
         -5    1    3    3    0  502 -0.20340530351E+02  0.27883559600E+02 -0.13362836155E+02  0.37246044905E+02  0.41800000000E+01 0.  1.
        -11    1    4    4    0    0  0.13251808749E+02  0.10126309698E+03 -0.12311857725E+03  0.15996252470E+03  0.00000000000E+00 0. -1.
         11    1    4    4    0    0  0.21241723422E+01 -0.19899351852E+02 -0.31021780031E+02  0.36916759724E+02  0.00000000000E+00 0.  1.
</event>
<event>
 8    1  0.6901948E-009  0.1097382E+03  0.7561462E-02  0.1261055E+00
          1   -1    0    0  501    0  0.00000000000E+00  0.00000000000E+00  0.18055215760E+02  0.18055215760E+02  0.00000000000E+00 0. -1.
         -1   -1    0    0    0  501 -0.00000000000E+00 -0.00000000000E+00 -0.70934914335E+03  0.70934914335E+03  0.00000000000E+00 0.  1.
         25    2    1    2    0    0 -0.31769741163E+02 -0.10279125736E+01 -0.34622886553E+03  0.36950279935E+03  0.12509004096E+03 0.  0.
         23    2    1    2    0    0  0.31769741163E+02  0.10279125736E+01 -0.34506506206E+03  0.35790155976E+03  0.89516793738E+02 0.  0.
          5    1    3    3  502    0 -0.70716123752E+02  0.29821073169E+02 -0.24295934409E+03  0.25482696452E+03  0.41800000000E+01 0.  1.
         -5    1    3    3    0  502  0.38946382588E+02 -0.30848985743E+02 -0.10326952143E+03  0.11467583484E+03  0.41800000000E+01 0.  1.
        -11    1    4    4    0    0 -0.30455098598E+02  0.20422933170E+01 -0.79909334430E+02  0.85540550160E+02  0.00000000000E+00 0. -1.
         11    1    4    4    0    0  0.62224839761E+02 -0.10143807434E+01 -0.26515572763E+03  0.27236100960E+03  0.00000000000E+00 0.  1.
</event>
<event>
 8    1  0.6901948E-009  0.2088290E+03  0.7561462E-02  0.1142497E+00
         -2   -1    0    0    0  501 -0.00000000000E+00  0.00000000000E+00  0.15161704236E+03  0.15161704236E+03  0.00000000000E+00 0.  1.
          2   -1    0    0  501    0  0.00000000000E+00 -0.00000000000E+00 -0.34307360633E+03  0.34307360633E+03  0.00000000000E+00 0. -1.
         25    2    1    2    0    0 -0.13496712599E+03 -0.14966566369E+03 -0.93480603717E+02  0.25495383430E+03  0.12508756281E+03 0.  0.
         23    2    1    2    0    0  0.13496712599E+03  0.14966566369E+03 -0.97975960253E+02  0.23973681438E+03  0.85196921291E+02 0.  0.
          5    1    3    3  502    0 -0.33254821080E+01 -0.46120323849E+01 -0.54790184343E+02  0.55242794773E+02  0.41800000000E+01 0.  1.
         -5    1    3    3    0  502 -0.13164164388E+03 -0.14505363130E+03 -0.38690419373E+02  0.19971103953E+03  0.41800000000E+01 0.  1.
        -11    1    4    4    0    0  0.74060991142E+02  0.13183102913E+03 -0.89493904365E+02  0.17570887732E+03  0.00000000000E+00 0.  1.
         11    1    4    4    0    0  0.60906134851E+02  0.17834634552E+02 -0.84820558876E+01  0.64027937060E+02  0.00000000000E+00 0. -1.
</event>
<event>
 8    1  0.6901948E-009  0.1152670E+03  0.7561462E-02  0.1251116E+00
          4   -1    0    0  501    0  0.00000000000E+00  0.00000000000E+00  0.78497997041E+02  0.78497997041E+02  0.00000000000E+00 0. -1.
         -4   -1    0    0    0  501 -0.00000000000E+00 -0.00000000000E+00 -0.23768674294E+03  0.23768674294E+03  0.00000000000E+00 0.  1.
         25    2    1    2    0    0 -0.81522304636E+02  0.13616079907E+02 -0.10494479560E+03  0.18300551271E+03  0.12508526602E+03 0.  0.
         23    2    1    2    0    0  0.81522304636E+02 -0.13616079907E+02 -0.54243950299E+02  0.13317922727E+03  0.89235736374E+02 0.  0.
          5    1    3    3  502    0 -0.35035043022E+02 -0.30687010224E+02  0.13097697927E+02  0.48560981528E+02  0.41800000000E+01 0. -1.
         -5    1    3    3    0  502 -0.46487261614E+02  0.44303090131E+02 -0.11804249352E+03  0.13444453118E+03  0.41800000000E+01 0. -1.
        -11    1    4    4    0    0  0.95439275754E+02  0.57034831418E+01 -0.32636628741E+02  0.10102640552E+03  0.00000000000E+00 0.  1.
         11    1    4    4    0    0 -0.13916971118E+02 -0.19319563049E+02 -0.21607321557E+02  0.32152821748E+02  0.00000000000E+00 0. -1.
</event>
<event>
 8    1  0.6901948E-009  0.1469449E+03  0.7561462E-02  0.1204278E+00
         -2   -1    0    0    0  501 -0.00000000000E+00  0.00000000000E+00  0.37872151562E+02  0.37872151562E+02  0.00000000000E+00 0.  1.
          2   -1    0    0  501    0  0.00000000000E+00 -0.00000000000E+00 -0.83548838699E+03  0.83548838699E+03  0.00000000000E+00 0. -1.
         25    2    1    2    0    0 -0.95945894726E+02  0.69842476882E+02 -0.60755043040E+03  0.63154351184E+03  0.12508435383E+03 0.  0.
         23    2    1    2    0    0  0.95945894726E+02 -0.69842476882E+02 -0.19006580503E+03  0.24181702672E+03  0.90922372804E+02 0.  0.
          5    1    3    3  502    0 -0.83685675926E+02  0.10399658662E+03 -0.51527865309E+03  0.53230456049E+03  0.41800000000E+01 0.  1.
         -5    1    3    3    0  502 -0.12260218800E+02 -0.34154109742E+02 -0.92271777312E+02  0.99238951353E+02  0.41800000000E+01 0.  1.
        -11    1    4    4    0    0  0.45438478163E+02 -0.54639593434E+02 -0.37418437523E+02  0.80313634801E+02  0.00000000000E+00 0.  1.
         11    1    4    4    0    0  0.50507416563E+02 -0.15202883448E+02 -0.15264736751E+03  0.16150339192E+03  0.00000000000E+00 0. -1.
</event>
<event>
 8    1  0.6901948E-009  0.1167741E+03  0.7561462E-02  0.1248516E+00
         -4   -1    0    0    0  501 -0.00000000000E+00  0.00000000000E+00  0.14858128769E+03  0.14858128769E+03  0.00000000000E+00 0. -1.
          4   -1    0    0  501    0  0.00000000000E+00 -0.00000000000E+00 -0.12027596612E+03  0.12027596612E+03  0.00000000000E+00 0.  1.
         25    2    1    2    0    0 -0.39937902519E+02 -0.45328710999E+02 -0.35323391312E+02  0.14334104003E+03  0.12509669734E+03 0.  0.
         23    2    1    2    0    0  0.39937902519E+02  0.45328710999E+02  0.63628712880E+02  0.12551621378E+03  0.89755104153E+02 0.  0.
          5    1    3    3  502    0 -0.82945868562E+02 -0.11352677797E+02 -0.18310541919E+02  0.85800050991E+02  0.41800000000E+01 0.  1.
         -5    1    3    3    0  502  0.43007966042E+02 -0.33976033201E+02 -0.17012849393E+02  0.57540989040E+02  0.41800000000E+01 0.  1.
        -11    1    4    4    0    0  0.58594783468E+02  0.48209703313E+02  0.20747873347E+02  0.78663831534E+02  0.00000000000E+00 0.  1.
         11    1    4    4    0    0 -0.18656880948E+02 -0.28809923147E+01  0.42880839533E+02  0.46852382250E+02  0.00000000000E+00 0. -1.
</event>
<event>
 8    1  0.6901948E-009  0.1354804E+03  0.7561462E-02  0.1219543E+00
         -1   -1    0    0    0  501 -0.00000000000E+00  0.00000000000E+00  0.31411549588E+03  0.31411549588E+03  0.00000000000E+00 0.  1.
          1   -1    0    0  501    0  0.00000000000E+00 -0.00000000000E+00 -0.70346694325E+02  0.70346694325E+02  0.00000000000E+00 0. -1.
         25    2    1    2    0    0  0.96439281372E+02  0.14801506099E+02  0.94804308413E+02  0.18481142120E+03  0.12509110654E+03 0.  0.
         23    2    1    2    0    0 -0.96439281372E+02 -0.14801506099E+02  0.14896449314E+03  0.19965076901E+03  0.90279509162E+02 0.  0.
          5    1    3    3  502    0  0.11628210267E+03  0.85137929280E+00  0.10633699037E+03  0.15763020069E+03  0.41800000000E+01 0. -1.
         -5    1    3    3    0  502 -0.19842821303E+02  0.13950126806E+02 -0.11532681953E+02  0.27181220506E+02  0.41800000000E+01 0. -1.
        -11    1    4    4    0    0  0.15494708778E+02  0.50695318649E+01  0.35340701342E+02  0.38919806330E+02  0.00000000000E+00 0.  1.
         11    1    4    4    0    0 -0.11193399015E+03 -0.19871037964E+02  0.11362379180E+03  0.16073096268E+03  0.00000000000E+00 0. -1.
</event>
<event>
 8    1  0.6901948E-009  0.1994702E+03  0.7561462E-02  0.1150187E+00
          1   -1    0    0  501    0  0.00000000000E+00  0.00000000000E+00  0.32358217938E+03  0.32358217938E+03  0.00000000000E+00 0. -1.
         -1   -1    0    0    0  501 -0.00000000000E+00 -0.00000000000E+00 -0.18788650692E+03  0.18788650692E+03  0.00000000000E+00 0.  1.
         25    2    1    2    0    0  0.97322175215E+02  0.15801566789E+03 -0.49602689918E+02  0.22923056087E+03  0.12508263710E+03 0.  0.
         23    2    1    2    0    0 -0.97322175215E+02 -0.15801566789E+03  0.18529836238E+03  0.28223812543E+03  0.10431835534E+03 0.  0.
          5    1    3    3  502    0  0.72594632808E+02  0.16269936557E+03 -0.74893763874E+02  0.19330704213E+03  0.41800000000E+01 0.  1.
         -5    1    3    3    0  502  0.24727542407E+02 -0.46836976752E+01  0.25291073956E+02  0.35923518748E+02  0.41800000000E+01 0.  1.
        -11    1    4    4    0    0 -0.53970033444E+02 -0.33859885262E+02  0.12230792845E+02  0.64875639754E+02  0.00000000000E+00 0.  1.
         11    1    4    4    0    0 -0.43352141770E+02 -0.12415578263E+03  0.17306756953E+03  0.21736248568E+03  0.00000000000E+00 0. -1.
</event>
<event>
 8    1  0.6901948E-009  0.9113100E+02  0.7561462E-02  0.1300136E+00
         -1   -1    0    0    0  501 -0.00000000000E+00  0.00000000000E+00  0.37506764875E+02  0.37506764875E+02  0.00000000000E+00 0. -1.
          1   -1    0    0  501    0  0.00000000000E+00 -0.00000000000E+00 -0.42375891722E+03  0.42375891722E+03  0.00000000000E+00 0.  1.
         25    2    1    2    0    0 -0.19662781407E+01 -0.64896150864E+02 -0.20036074769E+03  0.24497053727E+03  0.12510299065E+03 0.  0.
         23    2    1    2    0    0  0.19662781407E+01  0.64896150864E+02 -0.18589140466E+03  0.21629514483E+03  0.89513120288E+02 0.  0.
          5    1    3    3  502    0 -0.49499344554E+01 -0.71148514935E+02 -0.21592041208E+03  0.22743286874E+03  0.41800000000E+01 0. -1.
         -5    1    3    3    0  502  0.29836563147E+01  0.62523640709E+01  0.15559664393E+02  0.17537668531E+02  0.41800000000E+01 0. -1.
        -11    1    4    4    0    0  0.12774810043E+02 -0.16359601610E+02 -0.78479706699E+02  0.81178178719E+02  0.00000000000E+00 0.  1.
         11    1    4    4    0    0 -0.10808531903E+02  0.81255752475E+02 -0.10741169796E+03  0.13511696611E+03  0.00000000000E+00 0. -1.
</event>
<event>
 8    1  0.6901948E-009  0.1160816E+03  0.7561462E-02  0.1249705E+00
          3   -1    0    0  501    0  0.00000000000E+00  0.00000000000E+00  0.75803965898E+02  0.75803965898E+02  0.00000000000E+00 0. -1.
         -3   -1    0    0    0  501 -0.00000000000E+00 -0.00000000000E+00 -0.28129314008E+03  0.28129314008E+03  0.00000000000E+00 0.  1.
         25    2    1    2    0    0  0.66411785565E+02  0.47532863614E+02 -0.12076940060E+03  0.19210053446E+03  0.12508984304E+03 0.  0.
         23    2    1    2    0    0 -0.66411785565E+02 -0.47532863614E+02 -0.84719773579E+02  0.16499657152E+03  0.11565695048E+03 0.  0.
          5    1    3    3  502    0  0.34613099934E+02 -0.17215798658E+02  0.12212228409E+02  0.40756120193E+02  0.41800000000E+01 0.  1.
         -5    1    3    3    0  502  0.31798685631E+02  0.64748662273E+02 -0.13298162901E+03  0.15134441426E+03  0.41800000000E+01 0.  1.
        -11    1    4    4    0    0  0.11202526885E+02 -0.41712889644E+02 -0.75016617381E+02  0.86561854499E+02  0.00000000000E+00 0.  1.
         11    1    4    4    0    0 -0.77614312451E+02 -0.58199739704E+01 -0.97031561986E+01  0.78434717023E+02  0.00000000000E+00 0. -1.
</event>
<event>
 8    1  0.6901948E-009  0.1100061E+03  0.7561462E-02  0.1260559E+00
          1   -1    0    0  501    0  0.00000000000E+00  0.00000000000E+00  0.99278980132E+02  0.99278980132E+02  0.00000000000E+00 0. -1.
         -1   -1    0    0    0  501 -0.00000000000E+00 -0.00000000000E+00 -0.20214724345E+03  0.20214724345E+03  0.00000000000E+00 0.  1.
         25    2    1    2    0    0  0.63796676975E+02  0.36314734323E+02 -0.53549362795E+00  0.14503935993E+03  0.12508938106E+03 0.  0.
         23    2    1    2    0    0 -0.63796676975E+02 -0.36314734323E+02 -0.10233276969E+03  0.15638686365E+03  0.92715044346E+02 0.  0.
          5    1    3    3  502    0  0.81791449192E+01 -0.22324152714E+02 -0.46193122813E+02  0.52120468161E+02  0.41800000000E+01 0. -1.
         -5    1    3    3    0  502  0.55617532056E+02  0.58638887037E+02  0.45657629185E+02  0.92918891770E+02  0.41800000000E+01 0. -1.
        -11    1    4    4    0    0 -0.85486288675E+00 -0.50431777707E+02 -0.63499205425E+02  0.81094044682E+02  0.00000000000E+00 0.  1.
         11    1    4    4    0    0 -0.62941814088E+02  0.14117043384E+02 -0.38833564261E+02  0.75292818966E+02  0.00000000000E+00 0. -1.
</event>
<event>
 8    1  0.6901948E-009  0.1569172E+03  0.7561462E-02  0.1192222E+00
         -1   -1    0    0    0  501 -0.00000000000E+00  0.00000000000E+00  0.71315724752E+02  0.71315724752E+02  0.00000000000E+00 0.  1.
          1   -1    0    0  501    0  0.00000000000E+00 -0.00000000000E+00 -0.37677959375E+03  0.37677959375E+03  0.00000000000E+00 0. -1.
         25    2    1    2    0    0 -0.11029724472E+03  0.49696840052E+02 -0.21385837258E+03  0.27571377157E+03  0.12508965667E+03 0.  0.
         23    2    1    2    0    0  0.11029724472E+03 -0.49696840052E+02 -0.91605496418E+02  0.17238154693E+03  0.81783694238E+02 0.  0.
          5    1    3    3  502    0 -0.32844187465E+02  0.83115277586E+02 -0.10548661753E+03  0.13831770999E+03  0.41800000000E+01 0. -1.
         -5    1    3    3    0  502 -0.77453057258E+02 -0.33418437534E+02 -0.10837175505E+03  0.13739606158E+03  0.41800000000E+01 0. -1.
        -11    1    4    4    0    0  0.66602279642E+01  0.15912258587E+02 -0.31210251088E+02  0.35660039019E+02  0.00000000000E+00 0. -1.
         11    1    4    4    0    0  0.10363701676E+03 -0.65609098638E+02 -0.60395245330E+02  0.13672150791E+03  0.00000000000E+00 0.  1.
</event>
<event>
 8    1  0.6901948E-009  0.9638220E+02  0.7561462E-02  0.1288093E+00
         -2   -1    0    0    0  501 -0.00000000000E+00  0.00000000000E+00  0.10952644948E+03  0.10952644948E+03  0.00000000000E+00 0.  1.
          2   -1    0    0  501    0  0.00000000000E+00 -0.00000000000E+00 -0.12831865919E+03  0.12831865919E+03  0.00000000000E+00 0. -1.
         25    2    1    2    0    0 -0.12522906176E+02 -0.41602602578E+02 -0.26175785968E+02  0.13498541651E+03  0.12509313002E+03 0.  0.
         23    2    1    2    0    0  0.12522906176E+02  0.41602602578E+02  0.73835762569E+01  0.10285969217E+03  0.92940837926E+02 0.  0.
          5    1    3    3  502    0 -0.60901295941E+02 -0.19251660805E+02  0.17049387213E+02  0.66240080732E+02  0.41800000000E+01 0. -1.
         -5    1    3    3    0  502  0.48378389764E+02 -0.22350941773E+02 -0.43225173181E+02  0.68745335776E+02  0.41800000000E+01 0. -1.
        -11    1    4    4    0    0 -0.22483253707E+02  0.21952432551E+01  0.36287622915E+02  0.42744676476E+02  0.00000000000E+00 0.  1.
         11    1    4    4    0    0  0.35006159883E+02  0.39407359323E+02 -0.28904046658E+02  0.60115015693E+02  0.00000000000E+00 0. -1.
</event>
<event>
 8    1  0.6901948E-009  0.1216614E+03  0.7561462E-02  0.1240381E+00
          3   -1    0    0  501    0  0.00000000000E+00  0.00000000000E+00  0.72289636763E+03  0.72289636763E+03  0.00000000000E+00 0. -1.
         -3   -1    0    0    0  501 -0.00000000000E+00 -0.00000000000E+00 -0.23089112805E+02  0.23089112805E+02  0.00000000000E+00 0.  1.
         25    2    1    2    0    0  0.62896904126E+02 -0.66296576810E+01  0.45383979142E+03  0.47499294728E+03  0.12509104997E+03 0.  0.
         23    2    1    2    0    0 -0.62896904126E+02  0.66296576810E+01  0.24596746341E+03  0.27099253316E+03  0.94535639105E+02 0.  0.
          5    1    3    3  502    0  0.56761740059E+02 -0.57297772830E+02  0.35020310653E+03  0.35939479425E+03  0.41800000000E+01 0.  1.
         -5    1    3    3    0  502  0.61351640667E+01  0.50668115149E+02  0.10363668488E+03  0.11559815303E+03  0.41800000000E+01 0.  1.
        -11    1    4    4    0    0 -0.71819165640E+02 -0.26872913445E+02  0.19312363857E+03  0.20779048535E+03  0.00000000000E+00 0. -1.
         11    1    4    4    0    0  0.89222615136E+01  0.33502571126E+02  0.52843824846E+02  0.63202047806E+02  0.00000000000E+00 0.  1.
</event>
<event>
 8    1  0.6901948E-009  0.1448626E+03  0.7561462E-02  0.1206932E+00
          1   -1    0    0  501    0  0.00000000000E+00  0.00000000000E+00  0.20381044040E+03  0.20381044040E+03  0.00000000000E+00 0. -1.
         -1   -1    0    0    0  501 -0.00000000000E+00 -0.00000000000E+00 -0.14898220627E+03  0.14898220627E+03  0.00000000000E+00 0.  1.
         25    2    1    2    0    0  0.11148001631E+03 -0.66565088227E+02 -0.85261540781E+01  0.18049416264E+03  0.12508693951E+03 0.  0.
         23    2    1    2    0    0 -0.11148001631E+03  0.66565088227E+02  0.63354388210E+02  0.17229848403E+03  0.93884418750E+02 0.  0.
          5    1    3    3  502    0  0.12426689438E+03 -0.61845544816E+02 -0.41194707218E+02  0.14485029774E+03  0.41800000000E+01 0. -1.
         -5    1    3    3    0  502 -0.12786878067E+02 -0.47195434104E+01  0.32668553140E+02  0.35643864899E+02  0.41800000000E+01 0. -1.
        -11    1    4    4    0    0 -0.10787646528E+03  0.48673816559E+02  0.13388531261E+02  0.11910384104E+03  0.00000000000E+00 0.  1.
         11    1    4    4    0    0 -0.36035510292E+01  0.17891271668E+02  0.49965856949E+02  0.53194642987E+02  0.00000000000E+00 0. -1.
</event>
<event>
 8    1  0.6901948E-009  0.9860640E+02  0.7561462E-02  0.1283254E+00
         -4   -1    0    0    0  501 -0.00000000000E+00  0.00000000000E+00  0.75719306870E+03  0.75719306870E+03  0.00000000000E+00 0.  1.
          4   -1    0    0  501    0  0.00000000000E+00 -0.00000000000E+00 -0.19450906623E+02  0.19450906623E+02  0.00000000000E+00 0. -1.
         25    2    1    2    0    0 -0.48457260292E+02  0.34626587876E+01  0.50210917914E+03  0.51973304067E+03  0.12509480288E+03 0.  0.
         23    2    1    2    0    0  0.48457260292E+02 -0.34626587876E+01  0.23563298293E+03  0.25691093465E+03  0.90112316670E+02 0.  0.
          5    1    3    3  502    0 -0.66696757135E+02  0.48918886085E+02  0.35856244805E+03  0.36800273964E+03  0.41800000000E+01 0.  1.
         -5    1    3    3    0  502  0.18239496843E+02 -0.45456227297E+02  0.14354673109E+03  0.15173030103E+03  0.41800000000E+01 0.  1.
        -11    1    4    4    0    0  0.40100683379E+02 -0.21396195525E+02  0.23247380747E+03  0.23687535362E+03  0.00000000000E+00 0.  1.
         11    1    4    4    0    0  0.83565769133E+01  0.17933536738E+02  0.31591754578E+01  0.20035581030E+02  0.00000000000E+00 0. -1.
</event>
<event>
 8    1  0.6901948E-009  0.9264721E+02  0.7561462E-02  0.1296565E+00
          1   -1    0    0  501    0  0.00000000000E+00  0.00000000000E+00  0.13229735112E+03  0.13229735112E+03  0.00000000000E+00 0. -1.
         -1   -1    0    0    0  501 -0.00000000000E+00 -0.00000000000E+00 -0.18454884064E+03  0.18454884064E+03  0.00000000000E+00 0.  1.
         25    2    1    2    0    0  0.71240614046E+02  0.41140794645E+02 -0.10479236507E+03  0.18274762706E+03  0.12508982911E+03 0.  0.
         23    2    1    2    0    0 -0.71240614046E+02 -0.41140794645E+02  0.52540875548E+02  0.13409856470E+03  0.91946133021E+02 0.  0.
          5    1    3    3  502    0  0.50330613251E+02  0.32072484139E+02 -0.13324093304E+03  0.14605626829E+03  0.41800000000E+01 0. -1.
         -5    1    3    3    0  502  0.20910000796E+02  0.90683105058E+01  0.28448567974E+02  0.36691358771E+02  0.41800000000E+01 0. -1.
        -11    1    4    4    0    0 -0.58762191988E+02  0.56287907572E+00 -0.82375649698E+01  0.59339443178E+02  0.00000000000E+00 0.  1.
         11    1    4    4    0    0 -0.12478422058E+02 -0.41703673720E+02  0.60778440518E+02  0.74759121521E+02  0.00000000000E+00 0. -1.
</event>
<event>
 8    1  0.6901948E-009  0.1346221E+03  0.7561462E-02  0.1220754E+00
         -2   -1    0    0    0  501 -0.00000000000E+00  0.00000000000E+00  0.37840999046E+03  0.37840999046E+03  0.00000000000E+00 0.  1.
          2   -1    0    0  501    0  0.00000000000E+00 -0.00000000000E+00 -0.71584032881E+02  0.71584032881E+02  0.00000000000E+00 0. -1.
         25    2    1    2    0    0  0.12258824254E+03 -0.18616574022E+02  0.16195169770E+03  0.23927068385E+03  0.12509058210E+03 0.  0.
         23    2    1    2    0    0 -0.12258824254E+03  0.18616574022E+02  0.14487425988E+03  0.21072333948E+03  0.89673410723E+02 0.  0.
          5    1    3    3  502    0  0.91049966637E+02 -0.16999372267E+02  0.18013150108E+03  0.20259295438E+03  0.41800000000E+01 0.  1.
         -5    1    3    3    0  502  0.31538275899E+02 -0.16172017556E+01 -0.18179803388E+02  0.36677729475E+02  0.41800000000E+01 0.  1.
        -11    1    4    4    0    0 -0.19251011356E+02  0.35095476157E+02  0.12400215093E+02  0.41905360270E+02  0.00000000000E+00 0. -1.
         11    1    4    4    0    0 -0.10333723118E+03 -0.16478902135E+02  0.13247404479E+03  0.16881797921E+03  0.00000000000E+00 0.  1.
</event>
<event>
 8    1  0.6901948E-009  0.1140104E+03  0.7561462E-02  0.1253318E+00
         -2   -1    0    0    0  501 -0.00000000000E+00  0.00000000000E+00  0.28355928323E+02  0.28355928323E+02  0.00000000000E+00 0.  1.
          2   -1    0    0  501    0  0.00000000000E+00 -0.00000000000E+00 -0.66303628763E+03  0.66303628763E+03  0.00000000000E+00 0. -1.
         25    2    1    2    0    0 -0.40458479800E+02  0.73083018601E+02 -0.32700083227E+03  0.35993718523E+03  0.12508883569E+03 0.  0.
         23    2    1    2    0    0  0.40458479800E+02 -0.73083018601E+02 -0.30767952704E+03  0.33145503072E+03  0.90651695159E+02 0.  0.
          5    1    3    3  502    0 -0.69139774270E+02  0.69196972286E+02 -0.31213821381E+03  0.32713340746E+03  0.41800000000E+01 0. -1.
         -5    1    3    3    0  502  0.28681294470E+02  0.38860463149E+01 -0.14862618461E+02  0.32803777770E+02  0.41800000000E+01 0. -1.
        -11    1    4    4    0    0  0.38355617341E+01 -0.62680134037E+02 -0.85759723578E+02  0.10629318381E+03  0.00000000000E+00 0.  1.
         11    1    4    4    0    0  0.36622918066E+02 -0.10402884563E+02 -0.22191980346E+03  0.22516184691E+03  0.00000000000E+00 0. -1.
</event>
<event>
 8    1  0.6901948E-009  0.9718813E+02  0.7561462E-02  0.1286323E+00
         -1   -1    0    0    0  501 -0.00000000000E+00  0.00000000000E+00  0.13782670343E+02  0.13782670343E+02  0.00000000000E+00 0.  1.
          1   -1    0    0  501    0  0.00000000000E+00 -0.00000000000E+00 -0.12377422942E+04  0.12377422942E+04  0.00000000000E+00 0. -1.
         25    2    1    2    0    0  0.30792296580E+02 -0.54538170889E+02 -0.85213570046E+03  0.86353868742E+03  0.12506492336E+03 0.  0.
         23    2    1    2    0    0 -0.30792296580E+02  0.54538170889E+02 -0.37182392341E+03  0.38798627714E+03  0.91420695771E+02 0.  0.
          5    1    3    3  502    0 -0.13472372253E+02 -0.31938198092E+02 -0.73986026652E+03  0.74068362995E+03  0.41800000000E+01 0. -1.
         -5    1    3    3    0  502  0.44264668833E+02 -0.22599972797E+02 -0.11227543394E+03  0.12285505747E+03  0.41800000000E+01 0. -1.
        -11    1    4    4    0    0  0.92355487064E+01 -0.21641801453E+02 -0.58376613735E+02  0.62940384184E+02  0.00000000000E+00 0. -1.
         11    1    4    4    0    0 -0.40027845286E+02  0.76179972342E+02 -0.31344730967E+03  0.32504589295E+03  0.00000000000E+00 0.  1.
</event>
<event>
 8    1  0.6901948E-009  0.2260867E+03  0.7561462E-02  0.1129425E+00
          2   -1    0    0  501    0  0.00000000000E+00  0.00000000000E+00  0.10286276824E+04  0.10286276824E+04  0.00000000000E+00 0.  1.
         -2   -1    0    0    0  501 -0.00000000000E+00 -0.00000000000E+00 -0.52887972343E+02  0.52887972343E+02  0.00000000000E+00 0. -1.
         25    2    1    2    0    0 -0.19249697253E+03  0.59093709278E+02  0.43574647196E+03  0.49605328649E+03  0.12508686702E+03 0.  0.
         23    2    1    2    0    0  0.19249697253E+03 -0.59093709278E+02  0.53999323807E+03  0.58546236823E+03  0.10308412361E+03 0.  0.
          5    1    3    3  502    0 -0.57199390258E+02  0.78889901637E+02  0.14527163480E+03  0.17497630441E+03  0.41800000000E+01 0. -1.
         -5    1    3    3    0  502 -0.13529758227E+03 -0.19796192359E+02  0.29047483716E+03  0.32107698208E+03  0.41800000000E+01 0. -1.
        -11    1    4    4    0    0  0.13169476001E+03  0.19084283751E+01  0.39969362820E+03  0.42083506072E+03  0.00000000000E+00 0.  1.
         11    1    4    4    0    0  0.60802212520E+02 -0.61002137653E+02  0.14029960988E+03  0.16462730751E+03  0.00000000000E+00 0. -1.
</event>
<event>
 8    1  0.6901948E-009  0.1262886E+03  0.7561462E-02  0.1233069E+00
          1   -1    0    0  501    0  0.00000000000E+00  0.00000000000E+00  0.34671415184E+02  0.34671415184E+02  0.00000000000E+00 0. -1.
         -1   -1    0    0    0  501 -0.00000000000E+00 -0.00000000000E+00 -0.46699673494E+03  0.46699673494E+03  0.00000000000E+00 0.  1.
         25    2    1    2    0    0 -0.63046830891E+02 -0.18491475653E+02 -0.25792425126E+03  0.29409040509E+03  0.12508960557E+03 0.  0.
         23    2    1    2    0    0  0.63046830891E+02  0.18491475653E+02 -0.17440106850E+03  0.20757774503E+03  0.91410885470E+02 0.  0.
          5    1    3    3  502    0 -0.92168729320E+02 -0.43868358153E+02 -0.19490971094E+03  0.22006084461E+03  0.41800000000E+01 0.  1.
         -5    1    3    3    0  502  0.29121898429E+02  0.25376882500E+02 -0.63014540320E+02  0.74029560482E+02  0.41800000000E+01 0.  1.
        -11    1    4    4    0    0  0.80851308908E+02  0.34230535080E+02 -0.14777033729E+03  0.17188582335E+03  0.00000000000E+00 0.  1.
         11    1    4    4    0    0 -0.17804478017E+02 -0.15739059427E+02 -0.26630731203E+02  0.35691921684E+02  0.00000000000E+00 0. -1.
</event>
<event>
 8    1  0.6901948E-009  0.1159516E+03  0.7561462E-02  0.1249929E+00
          1   -1    0    0  501    0  0.00000000000E+00  0.00000000000E+00  0.11521697579E+03  0.11521697579E+03  0.00000000000E+00 0. -1.
         -1   -1    0    0    0  501 -0.00000000000E+00 -0.00000000000E+00 -0.16843222300E+03  0.16843222300E+03  0.00000000000E+00 0.  1.
         25    2    1    2    0    0 -0.29436852061E+02  0.45369386869E+02 -0.10271340529E+03  0.17066344816E+03  0.12510419412E+03 0.  0.
         23    2    1    2    0    0  0.29436852061E+02 -0.45369386869E+02  0.49498158085E+02  0.11298575063E+03  0.85969777637E+02 0.  0.
          5    1    3    3  502    0 -0.10514537367E+02  0.88313739870E+02 -0.70866433598E+02  0.11379541272E+03  0.41800000000E+01 0.  1.
         -5    1    3    3    0  502 -0.18922314694E+02 -0.42944353001E+02 -0.31846971697E+02  0.56868035435E+02  0.41800000000E+01 0.  1.
        -11    1    4    4    0    0  0.25892399604E+02 -0.68043818236E+02  0.19789907321E+02  0.75445463675E+02  0.00000000000E+00 0.  1.
         11    1    4    4    0    0  0.35444524569E+01  0.22674431367E+02  0.29708250764E+02  0.37540286952E+02  0.00000000000E+00 0. -1.
</event>
<event>
 8    1  0.6901948E-009  0.7810485E+02  0.7561462E-02  0.1334517E+00
         -1   -1    0    0    0  501 -0.00000000000E+00  0.00000000000E+00  0.11461009825E+03  0.11461009825E+03  0.00000000000E+00 0.  1.
          1   -1    0    0  501    0  0.00000000000E+00 -0.00000000000E+00 -0.15044866385E+03  0.15044866385E+03  0.00000000000E+00 0. -1.
         25    2    1    2    0    0  0.28510092212E+02 -0.16920618976E+02 -0.88275666085E+02  0.15665357927E+03  0.12509443621E+03 0.  0.
         23    2    1    2    0    0 -0.28510092212E+02  0.16920618976E+02  0.52437100485E+02  0.10840518283E+03  0.88898264617E+02 0.  0.
          5    1    3    3  502    0  0.23538015331E+02 -0.34849840671E+02 -0.11574206571E+03  0.12321626408E+03  0.41800000000E+01 0. -1.
         -5    1    3    3    0  502  0.49720768813E+01  0.17929221695E+02  0.27466399620E+02  0.33437315191E+02  0.41800000000E+01 0. -1.
        -11    1    4    4    0    0  0.64397012336E+01 -0.33176159192E+02  0.18541070900E+02  0.38547355303E+02  0.00000000000E+00 0.  1.
         11    1    4    4    0    0 -0.34949793445E+02  0.50096778168E+02  0.33896029586E+02  0.69857827524E+02  0.00000000000E+00 0. -1.
</event>
<event>
 8    1  0.6901948E-009  0.1166471E+03  0.7561462E-02  0.1248733E+00
          2   -1    0    0  501    0  0.00000000000E+00  0.00000000000E+00  0.66182737063E+03  0.66182737063E+03  0.00000000000E+00 0. -1.
         -2   -1    0    0    0  501 -0.00000000000E+00 -0.00000000000E+00 -0.24854820828E+02  0.24854820828E+02  0.00000000000E+00 0.  1.
         25    2    1    2    0    0 -0.66869967212E+02  0.14247127575E+02  0.38190210774E+03  0.40764113053E+03  0.12508996058E+03 0.  0.
         23    2    1    2    0    0  0.66869967212E+02 -0.14247127575E+02  0.25507044206E+03  0.27904106093E+03  0.90157695818E+02 0.  0.
          5    1    3    3  502    0 -0.60082650272E+01  0.50503273790E+02  0.63692180297E+02  0.81614007028E+02  0.41800000000E+01 0.  1.
         -5    1    3    3    0  502 -0.60861702185E+02 -0.36256146214E+02  0.31820992745E+03  0.32602712350E+03  0.41800000000E+01 0.  1.
        -11    1    4    4    0    0  0.48061412024E+02  0.34424552703E+02  0.11013056092E+03  0.12499475830E+03  0.00000000000E+00 0.  1.
         11    1    4    4    0    0  0.18808555188E+02 -0.48671680279E+02  0.14493988114E+03  0.15404630263E+03  0.00000000000E+00 0. -1.
</event>
<event>
 8    1  0.6901948E-009  0.1494608E+03  0.7561462E-02  0.1201137E+00
         -1   -1    0    0    0  501 -0.00000000000E+00  0.00000000000E+00  0.88917088810E+03  0.88917088810E+03  0.00000000000E+00 0.  1.
          1   -1    0    0  501    0  0.00000000000E+00 -0.00000000000E+00 -0.33309733809E+02  0.33309733809E+02  0.00000000000E+00 0. -1.
         25    2    1    2    0    0  0.77510550224E+02 -0.82135051149E+02  0.64224016157E+03  0.66398303743E+03  0.12508795638E+03 0.  0.
         23    2    1    2    0    0 -0.77510550224E+02  0.82135051149E+02  0.21362099272E+03  0.25849758448E+03  0.91831479515E+02 0.  0.
          5    1    3    3  502    0 -0.19146035640E+02 -0.48809056967E+02  0.35886805229E+03  0.36270186942E+03  0.41800000000E+01 0. -1.
         -5    1    3    3    0  502  0.96656585864E+02 -0.33325994182E+02  0.28337210928E+03  0.30128116801E+03  0.41800000000E+01 0. -1.
        -11    1    4    4    0    0 -0.60746279908E+02  0.59025764270E+00  0.71839928695E+02  0.94082061423E+02  0.00000000000E+00 0. -1.
         11    1    4    4    0    0 -0.16764270316E+02  0.81544793506E+02  0.14178106402E+03  0.16441552306E+03  0.00000000000E+00 0.  1.
</event>
<event>
 8    1  0.6901948E-009  0.1436381E+03  0.7561462E-02  0.1208516E+00
          1   -1    0    0  501    0  0.00000000000E+00  0.00000000000E+00  0.93717312170E+03  0.93717312170E+03  0.00000000000E+00 0. -1.
         -1   -1    0    0    0  501 -0.00000000000E+00 -0.00000000000E+00 -0.29453476219E+02  0.29453476219E+02  0.00000000000E+00 0.  1.
         25    2    1    2    0    0  0.15478525713E+02  0.10964805211E+03  0.30871414222E+03  0.35101918602E+03  0.12509103590E+03 0.  0.
         23    2    1    2    0    0 -0.15478525713E+02 -0.10964805211E+03  0.59900550327E+03  0.61560741190E+03  0.88896639707E+02 0.  0.
          5    1    3    3  502    0  0.55929003123E+02  0.27376024282E+02  0.62794169668E+02  0.88532933082E+02  0.41800000000E+01 0. -1.
         -5    1    3    3    0  502 -0.40450477409E+02  0.82272027825E+02  0.24591997255E+03  0.26248625294E+03  0.41800000000E+01 0. -1.
        -11    1    4    4    0    0  0.50247802304E+00  0.11190641410E+02  0.13469001177E+02  0.17518474021E+02  0.00000000000E+00 0.  1.
         11    1    4    4    0    0 -0.15981003736E+02 -0.12083869352E+03  0.58553650209E+03  0.59808893788E+03  0.00000000000E+00 0. -1.
</event>
<event>
 8    1  0.6901948E-009  0.2000165E+03  0.7561462E-02  0.1149725E+00
         -2   -1    0    0    0  501 -0.00000000000E+00  0.00000000000E+00  0.49916652032E+03  0.49916652032E+03  0.00000000000E+00 0.  1.
          2   -1    0    0  501    0  0.00000000000E+00 -0.00000000000E+00 -0.16460760896E+03  0.16460760896E+03  0.00000000000E+00 0. -1.
         25    2    1    2    0    0  0.13804881455E+03  0.13984537174E+03  0.37676390601E+03  0.44295898887E+03  0.12508965484E+03 0.  0.
         23    2    1    2    0    0 -0.13804881455E+03 -0.13984537174E+03 -0.42204994657E+02  0.22081514041E+03  0.91454149522E+02 0.  0.
          5    1    3    3  502    0  0.70580517578E+02  0.62251512274E+02  0.30036448223E+03  0.31479065238E+03  0.41800000000E+01 0.  1.
         -5    1    3    3    0  502  0.67468296972E+02  0.77593859467E+02  0.76399423786E+02  0.12816833649E+03  0.41800000000E+01 0.  1.
        -11    1    4    4    0    0 -0.11100244202E+03 -0.78730677730E+02  0.93493398865E+01  0.13640920755E+03  0.00000000000E+00 0.  1.
         11    1    4    4    0    0 -0.27046372535E+02 -0.61114694010E+02 -0.51554334544E+02  0.84405932857E+02  0.00000000000E+00 0. -1.
</event>
<event>
 8    1  0.6901948E-009  0.2618473E+03  0.7561462E-02  0.1106038E+00
          2   -1    0    0  501    0  0.00000000000E+00  0.00000000000E+00  0.12837143911E+03  0.12837143911E+03  0.00000000000E+00 0. -1.
         -2   -1    0    0    0  501 -0.00000000000E+00 -0.00000000000E+00 -0.60347580940E+03  0.60347580940E+03  0.00000000000E+00 0.  1.
         25    2    1    2    0    0  0.24920531495E+03  0.57568900020E+02 -0.22998988977E+03  0.36600582968E+03  0.12508977062E+03 0.  0.
         23    2    1    2    0    0 -0.24920531495E+03 -0.57568900020E+02 -0.24511448052E+03  0.36584141882E+03  0.91331089529E+02 0.  0.
          5    1    3    3  502    0  0.21792369495E+02 -0.17606952466E+02  0.68468184785E+01  0.29142125293E+02  0.41800000000E+01 0.  1.
         -5    1    3    3    0  502  0.22741294546E+03  0.75175852486E+02 -0.23683670825E+03  0.33686370439E+03  0.41800000000E+01 0.  1.
        -11    1    4    4    0    0 -0.11251591656E+02 -0.15635377593E+01  0.80454633169E+01  0.13920217136E+02  0.00000000000E+00 0. -1.
         11    1    4    4    0    0 -0.23795372330E+03 -0.56005362260E+02 -0.25315994383E+03  0.35192120169E+03  0.00000000000E+00 0.  1.
</event>
<event>
 8    1  0.6901948E-009  0.1091599E+03  0.7561462E-02  0.1262134E+00
          2   -1    0    0  501    0  0.00000000000E+00  0.00000000000E+00  0.25963450574E+03  0.25963450574E+03  0.00000000000E+00 0. -1.
         -2   -1    0    0    0  501 -0.00000000000E+00 -0.00000000000E+00 -0.47727205641E+02  0.47727205641E+02  0.00000000000E+00 0.  1.
         25    2    1    2    0    0 -0.11021724565E+02  0.10787012343E+02  0.96490265922E+02  0.15873806233E+03  0.12509821328E+03 0.  0.
         23    2    1    2    0    0  0.11021724565E+02 -0.10787012343E+02  0.11541703418E+03  0.14862364906E+03  0.92358319778E+02 0.  0.
          5    1    3    3  502    0  0.52585334902E+02  0.26534935853E+02  0.57248411778E+02  0.82244594464E+02  0.41800000000E+01 0.  1.
         -5    1    3    3    0  502 -0.63607059468E+02 -0.15747923509E+02  0.39241854144E+02  0.76493467863E+02  0.41800000000E+01 0.  1.
        -11    1    4    4    0    0 -0.10260164908E+02 -0.48896223182E+02  0.63377959920E+02  0.80702400392E+02  0.00000000000E+00 0.  1.
         11    1    4    4    0    0  0.21281889474E+02  0.38109210838E+02  0.52039074258E+02  0.67921248663E+02  0.00000000000E+00 0. -1.
</event>
<event>
 8    1  0.6901948E-009  0.1942334E+03  0.7561462E-02  0.1154698E+00
         -2   -1    0    0    0  501 -0.00000000000E+00  0.00000000000E+00  0.52024582829E+03  0.52024582829E+03  0.00000000000E+00 0.  1.
          2   -1    0    0  501    0  0.00000000000E+00 -0.00000000000E+00 -0.78928123708E+02  0.78928123708E+02  0.00000000000E+00 0. -1.
         25    2    1    2    0    0 -0.15235696574E+02 -0.16611885272E+03  0.28469589870E+03  0.35288389570E+03  0.12509072480E+03 0.  0.
         23    2    1    2    0    0  0.15235696574E+02  0.16611885272E+03  0.15662180589E+03  0.24629005630E+03  0.91108737644E+02 0.  0.
          5    1    3    3  502    0  0.91598770883E+01 -0.17951120511E+03  0.23663340870E+03  0.29718852370E+03  0.41800000000E+01 0. -1.
         -5    1    3    3    0  502 -0.24395573663E+02  0.13392352392E+02  0.48062490000E+02  0.55695371997E+02  0.41800000000E+01 0. -1.
        -11    1    4    4    0    0 -0.26877234427E+02  0.46409057858E+02  0.14086617508E+02  0.55449248638E+02  0.00000000000E+00 0.  1.
         11    1    4    4    0    0  0.42112931002E+02  0.11970979486E+03  0.14253518838E+03  0.19084080766E+03  0.00000000000E+00 0. -1.
</event>
<event>
 8    1  0.6901948E-009  0.1082647E+03  0.7561462E-02  0.1263817E+00
         -2   -1    0    0    0  501 -0.00000000000E+00  0.00000000000E+00  0.68953795102E+02  0.68953795102E+02  0.00000000000E+00 0.  1.
          2   -1    0    0  501    0  0.00000000000E+00 -0.00000000000E+00 -0.18464517586E+03  0.18464517586E+03  0.00000000000E+00 0. -1.
         25    2    1    2    0    0  0.94253129594E+01  0.42881235079E+02 -0.86747083109E+02  0.15843031791E+03  0.12508985714E+03 0.  0.
         23    2    1    2    0    0 -0.94253129594E+01 -0.42881235079E+02 -0.28944297653E+02  0.95168653052E+02  0.79320005741E+02 0.  0.
          5    1    3    3  502    0  0.35814246254E+02  0.79218690970E+02 -0.51003797192E+02  0.10088171768E+03  0.41800000000E+01 0.  1.
         -5    1    3    3    0  502 -0.26388933295E+02 -0.36337455891E+02 -0.35743285917E+02  0.57548600237E+02  0.41800000000E+01 0.  1.
        -11    1    4    4    0    0  0.27080364260E+02 -0.39273047488E+02 -0.33372317024E+02  0.58218810800E+02  0.00000000000E+00 0. -1.
         11    1    4    4    0    0 -0.36505677219E+02 -0.36081875901E+01  0.44280193701E+01  0.36949842252E+02  0.00000000000E+00 0.  1.
</event>
<event>
 8    1  0.6901948E-009  0.1204638E+03  0.7561462E-02  0.1242334E+00
         -2   -1    0    0    0  501 -0.00000000000E+00  0.00000000000E+00  0.66644454277E+02  0.66644454277E+02  0.00000000000E+00 0. -1.
          2   -1    0    0  501    0  0.00000000000E+00 -0.00000000000E+00 -0.31394646533E+03  0.31394646533E+03  0.00000000000E+00 0.  1.
         25    2    1    2    0    0 -0.26815607298E+02 -0.49687288508E+02 -0.33726788822E+02  0.14132219233E+03  0.12508621957E+03 0.  0.
         23    2    1    2    0    0  0.26815607298E+02  0.49687288508E+02 -0.21357522223E+03  0.23926872728E+03  0.91908894399E+02 0.  0.
          5    1    3    3  502    0  0.49991243094E+02 -0.23095927596E+02 -0.70531130750E+01  0.55675533779E+02  0.41800000000E+01 0. -1.
         -5    1    3    3    0  502 -0.76806850392E+02 -0.26591360911E+02 -0.26673675747E+02  0.85646658546E+02  0.41800000000E+01 0. -1.
        -11    1    4    4    0    0  0.58156707243E+02  0.42842804530E+02 -0.11696749352E+03  0.13747400859E+03  0.00000000000E+00 0. -1.
         11    1    4    4    0    0 -0.31341099945E+02  0.68444839775E+01 -0.96607728716E+02  0.10179471870E+03  0.00000000000E+00 0.  1.
</event>
<event>
 8    1  0.6901948E-009  0.1044413E+03  0.7561462E-02  0.1271224E+00
         -2   -1    0    0    0  501 -0.00000000000E+00  0.00000000000E+00  0.24097323043E+02  0.24097323043E+02  0.00000000000E+00 0.  1.
          2   -1    0    0  501    0  0.00000000000E+00 -0.00000000000E+00 -0.53909913439E+03  0.53909913439E+03  0.00000000000E+00 0. -1.
         25    2    1    2    0    0 -0.17630746303E+02 -0.89486181982E+01 -0.22520322746E+03  0.25836976219E+03  0.12509004505E+03 0.  0.
         23    2    1    2    0    0  0.17630746303E+02  0.89486181982E+01 -0.28979858388E+03  0.30482669524E+03  0.92440109955E+02 0.  0.
          5    1    3    3  502    0 -0.65931641367E+02  0.21340126332E+02 -0.12720385863E+03  0.14491610116E+03  0.41800000000E+01 0.  1.
         -5    1    3    3    0  502  0.48300895064E+02 -0.30288744530E+02 -0.97999368827E+02  0.11345366102E+03  0.41800000000E+01 0.  1.
        -11    1    4    4    0    0  0.33741144195E+02 -0.26794575934E+02 -0.75135634826E+02  0.86612803509E+02  0.00000000000E+00 0.  1.
         11    1    4    4    0    0 -0.16110397892E+02  0.35743194132E+02 -0.21466294906E+03  0.21821389173E+03  0.00000000000E+00 0. -1.
</event>
<event>
 8    1  0.6901948E-009  0.5680217E+02  0.7561462E-02  0.1411764E+00
          1   -1    0    0  501    0  0.00000000000E+00  0.00000000000E+00  0.35339809893E+03  0.35339809893E+03  0.00000000000E+00 0. -1.
         -1   -1    0    0    0  501 -0.00000000000E+00 -0.00000000000E+00 -0.40992359702E+02  0.40992359702E+02  0.00000000000E+00 0.  1.
         25    2    1    2    0    0 -0.90636688718E+01  0.83320982461E+01  0.25922468410E+03  0.28808848524E+03  0.12508383000E+03 0.  0.
         23    2    1    2    0    0  0.90636688718E+01 -0.83320982461E+01  0.53181055129E+02  0.10630197339E+03  0.91215738594E+02 0.  0.
          5    1    3    3  502    0 -0.42483915905E+02  0.26401800111E+02  0.36383840498E+02  0.61993502959E+02  0.41800000000E+01 0.  1.
         -5    1    3    3    0  502  0.33420247033E+02 -0.18069701865E+02  0.22284084360E+03  0.22609498228E+03  0.41800000000E+01 0.  1.
        -11    1    4    4    0    0 -0.42500024676E+01 -0.10837941546E+02 -0.24671150544E+02  0.27279830775E+02  0.00000000000E+00 0.  1.
         11    1    4    4    0    0  0.13313671339E+02  0.25058433001E+01  0.77852205674E+02  0.79022142615E+02  0.00000000000E+00 0. -1.
</event>
<event>
 8    1  0.6901948E-009  0.1197003E+03  0.7561462E-02  0.1243592E+00
         -2   -1    0    0    0  501 -0.00000000000E+00  0.00000000000E+00  0.10375139863E+02  0.10375139863E+02  0.00000000000E+00 0.  1.
          2   -1    0    0  501    0  0.00000000000E+00 -0.00000000000E+00 -0.27108985719E+04  0.27108985719E+04  0.00000000000E+00 0. -1.
         25    2    1    2    0    0 -0.59715224453E+02  0.62015438655E+02 -0.21973747669E+04  0.22026153533E+04  0.12508679296E+03 0.  0.
         23    2    1    2    0    0  0.59715224453E+02 -0.62015438655E+02 -0.50314866516E+03  0.51865835848E+03  0.91848194859E+02 0.  0.
          5    1    3    3  502    0 -0.21596202955E+02  0.75618215834E+02 -0.65697097941E+03  0.66167427843E+03  0.41800000000E+01 0.  1.
         -5    1    3    3    0  502 -0.38119021498E+02 -0.13602777179E+02 -0.15404037875E+04  0.15409410748E+04  0.41800000000E+01 0.  1.
        -11    1    4    4    0    0  0.33541178136E+02 -0.80970410429E+02 -0.42757662123E+03  0.43646647640E+03  0.00000000000E+00 0. -1.
         11    1    4    4    0    0  0.26174046317E+02  0.18954971774E+02 -0.75572043934E+02  0.82191882080E+02  0.00000000000E+00 0.  1.
</event>
<event>
 8    1  0.6901948E-009  0.1135649E+03  0.7561462E-02  0.1254107E+00
         -1   -1    0    0    0  501 -0.00000000000E+00  0.00000000000E+00  0.41569173577E+02  0.41569173577E+02  0.00000000000E+00 0.  1.
          1   -1    0    0  501    0  0.00000000000E+00 -0.00000000000E+00 -0.51764279025E+03  0.51764279025E+03  0.00000000000E+00 0. -1.
         25    2    1    2    0    0  0.52503888112E+02 -0.80149505300E+02 -0.30464810771E+03  0.34298472705E+03  0.12508977574E+03 0.  0.
         23    2    1    2    0    0 -0.52503888112E+02  0.80149505300E+02 -0.17142550897E+03  0.21622723678E+03  0.90481552447E+02 0.  0.
          5    1    3    3  502    0  0.43766869596E+02 -0.68503505861E+02 -0.68598142934E+02  0.10644926868E+03  0.41800000000E+01 0.  1.
         -5    1    3    3    0  502  0.87370185159E+01 -0.11645999439E+02 -0.23604996477E+03  0.23653545837E+03  0.41800000000E+01 0.  1.
        -11    1    4    4    0    0 -0.23802797030E+02  0.95231735445E+02 -0.11545298482E+03  0.15154223268E+03  0.00000000000E+00 0.  1.
         11    1    4    4    0    0 -0.28701091083E+02 -0.15082230145E+02 -0.55972524146E+02  0.64685004095E+02  0.00000000000E+00 0. -1.
</event>
<event>
 8    1  0.6901948E-009  0.4272014E+02  0.7561462E-02  0.1489098E+00
         -1   -1    0    0    0  501 -0.00000000000E+00  0.00000000000E+00  0.43884766728E+02  0.43884766728E+02  0.00000000000E+00 0.  1.
          1   -1    0    0  501    0  0.00000000000E+00 -0.00000000000E+00 -0.31653054820E+03  0.31653054820E+03  0.00000000000E+00 0. -1.
         25    2    1    2    0    0  0.10606631622E+02 -0.26046295164E+02 -0.91992127458E+02  0.15782737987E+03  0.12512401926E+03 0.  0.
         23    2    1    2    0    0 -0.10606631622E+02  0.26046295164E+02 -0.18065365401E+03  0.20258793506E+03  0.87265219864E+02 0.  0.
          5    1    3    3  502    0  0.14344968442E+02 -0.21489370658E+01  0.29896681620E+02  0.33491491786E+02  0.41800000000E+01 0.  1.
         -5    1    3    3    0  502 -0.37383368201E+01 -0.23897358098E+02 -0.12188880908E+03  0.12433588808E+03  0.41800000000E+01 0.  1.
        -11    1    4    4    0    0  0.34004440089E+01  0.30814866617E+02 -0.18467145173E+03  0.18725561169E+03  0.00000000000E+00 0. -1.
         11    1    4    4    0    0 -0.14007075631E+02 -0.47685714530E+01  0.40177977204E+01  0.15332323371E+02  0.00000000000E+00 0.  1.
</event>
<event>
 8    1  0.6901948E-009  0.1130038E+03  0.7561462E-02  0.1255106E+00
          1   -1    0    0  501    0  0.00000000000E+00  0.00000000000E+00  0.36481459558E+03  0.36481459558E+03  0.00000000000E+00 0. -1.
         -1   -1    0    0    0  501 -0.00000000000E+00 -0.00000000000E+00 -0.49913297270E+02  0.49913297270E+02  0.00000000000E+00 0.  1.
         25    2    1    2    0    0  0.67643300440E+02 -0.22920327557E+00  0.99147736671E+02  0.17335873795E+03  0.12508920700E+03 0.  0.
         23    2    1    2    0    0 -0.67643300440E+02  0.22920327557E+00  0.21575356164E+03  0.24136915490E+03  0.84461831314E+02 0.  0.
          5    1    3    3  502    0  0.72326150436E+02  0.37077305350E+02  0.17315684064E+02  0.83205191686E+02  0.41800000000E+01 0.  1.
         -5    1    3    3    0  502 -0.46828499955E+01 -0.37306508625E+02  0.81832052607E+02  0.90153546262E+02  0.41800000000E+01 0.  1.
        -11    1    4    4    0    0 -0.72928054128E+02 -0.27966559320E+02  0.17381714246E+03  0.19055977680E+03  0.00000000000E+00 0. -1.
         11    1    4    4    0    0  0.52847536879E+01  0.28195762596E+02  0.41936419171E+02  0.50809378099E+02  0.00000000000E+00 0.  1.
</event>
<event>
 8    1  0.6901948E-009  0.1155696E+03  0.7561462E-02  0.1250590E+00
          1   -1    0    0  501    0  0.00000000000E+00  0.00000000000E+00  0.30858203977E+03  0.30858203977E+03  0.00000000000E+00 0. -1.
         -1   -1    0    0    0  501 -0.00000000000E+00 -0.00000000000E+00 -0.59893796457E+02  0.59893796457E+02  0.00000000000E+00 0.  1.
         25    2    1    2    0    0  0.36792671969E+02 -0.71973076409E+02  0.13553730527E+03  0.20137391755E+03  0.12508904473E+03 0.  0.
         23    2    1    2    0    0 -0.36792671969E+02  0.71973076409E+02  0.11315093805E+03  0.16710191868E+03  0.92661167744E+02 0.  0.
          5    1    3    3  502    0 -0.22129828317E+02  0.25644171251E+02  0.23296833936E+02  0.41322726095E+02  0.41800000000E+01 0.  1.
         -5    1    3    3    0  502  0.58922500286E+02 -0.97617247660E+02  0.11224047134E+03  0.16005119146E+03  0.41800000000E+01 0.  1.
        -11    1    4    4    0    0 -0.24885643472E+02  0.28494206373E+02 -0.72665150644E+01  0.38522944969E+02  0.00000000000E+00 0.  1.
         11    1    4    4    0    0 -0.11907028497E+02  0.43478870036E+02  0.12041745311E+03  0.12857897371E+03  0.00000000000E+00 0. -1.
</event>
<event>
 8    1  0.6901948E-009  0.9939400E+02  0.7561462E-02  0.1281575E+00
          1   -1    0    0  501    0  0.00000000000E+00  0.00000000000E+00  0.48426770724E+02  0.48426770724E+02  0.00000000000E+00 0. -1.
         -1   -1    0    0    0  501 -0.00000000000E+00 -0.00000000000E+00 -0.37469202351E+03  0.37469202351E+03  0.00000000000E+00 0.  1.
         25    2    1    2    0    0  0.75369530508E+02  0.13298247058E+02 -0.14390048095E+03  0.20545710563E+03  0.12509142389E+03 0.  0.
         23    2    1    2    0    0 -0.75369530508E+02 -0.13298247058E+02 -0.18236477184E+03  0.21766168861E+03  0.90897146144E+02 0.  0.
          5    1    3    3  502    0  0.70565031212E+02  0.17827000077E+02 -0.12670736819E+02  0.73994902076E+02  0.41800000000E+01 0.  1.
         -5    1    3    3    0  502  0.48044992961E+01 -0.45287530191E+01 -0.13122974414E+03  0.13146220355E+03  0.41800000000E+01 0.  1.
        -11    1    4    4    0    0 -0.17148516953E+02 -0.47532625371E+02 -0.90334062006E+02  0.10350683488E+03  0.00000000000E+00 0.  1.
         11    1    4    4    0    0 -0.58221013555E+02  0.34234378313E+02 -0.92030709829E+02  0.11415485373E+03  0.00000000000E+00 0. -1.
</event>
<event>
 8    1  0.6901948E-009  0.8943198E+02  0.7561462E-02  0.1304233E+00
         -2   -1    0    0    0  501 -0.00000000000E+00  0.00000000000E+00  0.15379111045E+03  0.15379111045E+03  0.00000000000E+00 0.  1.
          2   -1    0    0  501    0  0.00000000000E+00 -0.00000000000E+00 -0.10265232524E+03  0.10265232524E+03  0.00000000000E+00 0. -1.
         25    2    1    2    0    0 -0.39021458994E+02  0.44735095548E+01  0.88859536038E+02  0.15838595866E+03  0.12508960071E+03 0.  0.
         23    2    1    2    0    0  0.39021458994E+02 -0.44735095548E+01 -0.37720750832E+02  0.98057477026E+02  0.81545859537E+02 0.  0.
          5    1    3    3  502    0 -0.42262035391E+02 -0.41655853488E+02  0.15614148307E+01  0.59507984183E+02  0.41800000000E+01 0. -1.
         -5    1    3    3    0  502  0.32405763972E+01  0.46129363043E+02  0.87298121208E+02  0.98877974476E+02  0.41800000000E+01 0. -1.
        -11    1    4    4    0    0 -0.88058727762E+01  0.18046911313E+02 -0.40410659648E+02  0.45124891318E+02  0.00000000000E+00 0.  1.
         11    1    4    4    0    0  0.47827331770E+02 -0.22520420868E+02  0.26899088158E+01  0.52932585708E+02  0.00000000000E+00 0. -1.
</event>
<event>
 8    1  0.6901948E-009  0.1978090E+03  0.7561462E-02  0.1151601E+00
         -1   -1    0    0    0  501 -0.00000000000E+00  0.00000000000E+00  0.16505272817E+03  0.16505272817E+03  0.00000000000E+00 0.  1.
          1   -1    0    0  501    0  0.00000000000E+00 -0.00000000000E+00 -0.32748457171E+03  0.32748457171E+03  0.00000000000E+00 0. -1.
         25    2    1    2    0    0 -0.64606973056E+02 -0.17285478566E+03  0.11155067776E+02  0.22321751524E+03  0.12509510654E+03 0.  0.
         23    2    1    2    0    0  0.64606973056E+02  0.17285478566E+03 -0.17358691131E+03  0.26931978464E+03  0.91366803208E+02 0.  0.
          5    1    3    3  502    0 -0.79846616305E+02 -0.67823781417E+02 -0.30398163955E+02  0.10916532523E+03  0.41800000000E+01 0. -1.
         -5    1    3    3    0  502  0.15239643249E+02 -0.10503100424E+03  0.41553231731E+02  0.11405219001E+03  0.41800000000E+01 0. -1.
        -11    1    4    4    0    0  0.57537873541E+02  0.15641032209E+03 -0.18428509155E+03  0.24846688052E+03  0.00000000000E+00 0. -1.
         11    1    4    4    0    0  0.70690995149E+01  0.16444463564E+02  0.10698180237E+02  0.20852904120E+02  0.00000000000E+00 0.  1.
</event>
<event>
 8    1  0.6901948E-009  0.1640953E+03  0.7561462E-02  0.1184149E+00
         -2   -1    0    0    0  501 -0.00000000000E+00  0.00000000000E+00  0.15196528632E+03  0.15196528632E+03  0.00000000000E+00 0.  1.
          2   -1    0    0  501    0  0.00000000000E+00 -0.00000000000E+00 -0.22111993436E+03  0.22111993436E+03  0.00000000000E+00 0. -1.
         25    2    1    2    0    0  0.63932345607E+01 -0.13460259634E+03 -0.96499797229E+02  0.20765034853E+03  0.12509086293E+03 0.  0.
         23    2    1    2    0    0 -0.63932345607E+01  0.13460259634E+03  0.27345149187E+02  0.16543487215E+03  0.91990256821E+02 0.  0.
          5    1    3    3  502    0 -0.10475669005E+02 -0.15107621128E+03 -0.57814481942E+02  0.16215347045E+03  0.41800000000E+01 0. -1.
         -5    1    3    3    0  502  0.16868903566E+02  0.16473614937E+02 -0.38685315287E+02  0.45496878085E+02  0.41800000000E+01 0. -1.
        -11    1    4    4    0    0 -0.28163373941E+02  0.16469092154E+02 -0.17732273910E+02  0.37132737122E+02  0.00000000000E+00 0. -1.
         11    1    4    4    0    0  0.21770139381E+02  0.11813350419E+03  0.45077423097E+02  0.12830213503E+03  0.00000000000E+00 0.  1.
</event>
<event>
 8    1  0.6901948E-009  0.1243188E+03  0.7561462E-02  0.1236138E+00
         -1   -1    0    0    0  501 -0.00000000000E+00  0.00000000000E+00  0.22108329047E+02  0.22108329047E+02  0.00000000000E+00 0.  1.
          1   -1    0    0  501    0  0.00000000000E+00 -0.00000000000E+00 -0.96948969044E+03  0.96948969044E+03  0.00000000000E+00 0. -1.
         25    2    1    2    0    0  0.50322349226E+02  0.76134988952E+02 -0.45065832663E+03  0.47651829879E+03  0.12509151191E+03 0.  0.
         23    2    1    2    0    0 -0.50322349226E+02 -0.76134988952E+02 -0.49672303477E+03  0.51507972070E+03  0.10121496939E+03 0.  0.
          5    1    3    3  502    0 -0.13462048987E+02  0.58333931858E+02 -0.80217854877E+02  0.10018208927E+03  0.41800000000E+01 0.  1.
         -5    1    3    3    0  502  0.63784398213E+02  0.17801057095E+02 -0.37044047175E+03  0.37633620952E+03  0.41800000000E+01 0.  1.
        -11    1    4    4    0    0 -0.38231228710E+02  0.64796075359E+01 -0.67797702089E+02  0.78103396668E+02  0.00000000000E+00 0.  1.
         11    1    4    4    0    0 -0.12091120516E+02 -0.82614596488E+02 -0.42892533268E+03  0.43697632403E+03  0.00000000000E+00 0. -1.
</event>
<event>
 8    1  0.6901948E-009  0.1112171E+03  0.7561462E-02  0.1258333E+00
         -1   -1    0    0    0  501 -0.00000000000E+00  0.00000000000E+00  0.56263873174E+02  0.56263873174E+02  0.00000000000E+00 0.  1.
          1   -1    0    0  501    0  0.00000000000E+00 -0.00000000000E+00 -0.33053954229E+03  0.33053954229E+03  0.00000000000E+00 0. -1.
         25    2    1    2    0    0  0.19211382633E+02  0.74249279132E+02 -0.19574696868E+03  0.24463543136E+03  0.12509031079E+03 0.  0.
         23    2    1    2    0    0 -0.19211382633E+02 -0.74249279132E+02 -0.78528700437E+02  0.14216798411E+03  0.90349024563E+02 0.  0.
          5    1    3    3  502    0 -0.26780589320E+02  0.44617428535E+02 -0.12959355847E+02  0.53789703451E+02  0.41800000000E+01 0.  1.
         -5    1    3    3    0  502  0.45991971954E+02  0.29631850597E+02 -0.18278761284E+03  0.19084572791E+03  0.41800000000E+01 0.  1.
        -11    1    4    4    0    0 -0.15021439985E+02  0.17755999284E+02 -0.30320950344E+02  0.38213599668E+02  0.00000000000E+00 0. -1.
         11    1    4    4    0    0 -0.41899426479E+01 -0.92005278416E+02 -0.48207750093E+02  0.10395438444E+03  0.00000000000E+00 0.  1.
</event>
<event>
 8    1  0.6901948E-009  0.9540864E+02  0.7561462E-02  0.1290258E+00
          2   -1    0    0  501    0  0.00000000000E+00  0.00000000000E+00  0.80308097697E+03  0.80308097697E+03  0.00000000000E+00 0. -1.
         -2   -1    0    0    0  501 -0.00000000000E+00 -0.00000000000E+00 -0.19325105006E+02  0.19325105006E+02  0.00000000000E+00 0.  1.
         25    2    1    2    0    0 -0.54701283023E+02 -0.45089572857E+01  0.53420198756E+03  0.55138992282E+03  0.12508606003E+03 0.  0.
         23    2    1    2    0    0  0.54701283023E+02  0.45089572857E+01  0.24955388440E+03  0.27101615915E+03  0.90333029627E+02 0.  0.
          5    1    3    3  502    0 -0.37168252976E+02  0.36502135937E+02  0.47117558649E+03  0.47406517554E+03  0.41800000000E+01 0. -1.
         -5    1    3    3    0  502 -0.17533030047E+02 -0.41011093223E+02  0.63026401074E+02  0.77324747282E+02  0.41800000000E+01 0. -1.
        -11    1    4    4    0    0  0.13633925255E+02  0.38249917732E+02  0.49514534650E+02  0.64036155927E+02  0.00000000000E+00 0.  1.
         11    1    4    4    0    0  0.41067357768E+02 -0.33740960446E+02  0.20003934975E+03  0.20698000322E+03  0.00000000000E+00 0. -1.
</event>
<event>
 8    1  0.6901948E-009  0.1510455E+03  0.7561462E-02  0.1199194E+00
         -2   -1    0    0    0  501 -0.00000000000E+00  0.00000000000E+00  0.21655553150E+02  0.21655553150E+02  0.00000000000E+00 0.  1.
          2   -1    0    0  501    0  0.00000000000E+00 -0.00000000000E+00 -0.12090556743E+04  0.12090556743E+04  0.00000000000E+00 0. -1.
         25    2    1    2    0    0  0.10461268774E+03  0.21324699128E+02 -0.84902138873E+03  0.86480415774E+03  0.12510138083E+03 0.  0.
         23    2    1    2    0    0 -0.10461268774E+03 -0.21324699128E+02 -0.33837873242E+03  0.36590706972E+03  0.89382659864E+02 0.  0.
          5    1    3    3  502    0  0.88941211588E+02 -0.42155219293E+02 -0.47876966990E+03  0.48880003156E+03  0.41800000000E+01 0.  1.
         -5    1    3    3    0  502  0.15671476152E+02  0.63479918421E+02 -0.37025171883E+03  0.37600412618E+03  0.41800000000E+01 0.  1.
        -11    1    4    4    0    0 -0.12044911887E+03 -0.20651264456E+02 -0.31268171740E+03  0.33571464275E+03  0.00000000000E+00 0.  1.
         11    1    4    4    0    0  0.15836431130E+02 -0.67343467189E+00 -0.25697015025E+02  0.30192426971E+02  0.00000000000E+00 0. -1.
</event>
<event>
 8    1  0.6901948E-009  0.2074819E+03  0.7561462E-02  0.1143576E+00
          1   -1    0    0  501    0  0.00000000000E+00  0.00000000000E+00  0.36827470536E+03  0.36827470536E+03  0.00000000000E+00 0. -1.
         -1   -1    0    0    0  501 -0.00000000000E+00 -0.00000000000E+00 -0.13249623087E+03  0.13249623087E+03  0.00000000000E+00 0.  1.
         25    2    1    2    0    0  0.71826687151E+02 -0.17456517036E+03  0.82729431715E+02  0.24108648613E+03  0.12508582346E+03 0.  0.
         23    2    1    2    0    0 -0.71826687151E+02  0.17456517036E+03  0.15304904278E+03  0.25968445011E+03  0.91541970927E+02 0.  0.
          5    1    3    3  502    0 -0.22652416090E+02 -0.66479658125E+02  0.66050275838E+02  0.96502788755E+02  0.41800000000E+01 0.  1.
         -5    1    3    3    0  502  0.94479103241E+02 -0.10808551224E+03  0.16679155877E+02  0.14458369737E+03  0.41800000000E+01 0.  1.
        -11    1    4    4    0    0 -0.77846903697E+02  0.10269348407E+03  0.13218271094E+03  0.18460325338E+03  0.00000000000E+00 0. -1.
         11    1    4    4    0    0  0.60202165464E+01  0.71871686295E+02  0.20866331835E+02  0.75081196730E+02  0.00000000000E+00 0.  1.
</event>
<event>
 8    1  0.6901948E-009  0.2134512E+03  0.7561462E-02  0.1138862E+00
         -2   -1    0    0    0  501 -0.00000000000E+00  0.00000000000E+00  0.44283479009E+02  0.44283479009E+02  0.00000000000E+00 0.  1.
          2   -1    0    0  501    0  0.00000000000E+00 -0.00000000000E+00 -0.11805374023E+04  0.11805374023E+04  0.00000000000E+00 0. -1.
         25    2    1    2    0    0 -0.15827828996E+03  0.12172035436E+03 -0.65190530037E+03  0.69317827818E+03  0.12509093875E+03 0.  0.
         23    2    1    2    0    0  0.15827828996E+03 -0.12172035436E+03 -0.48434862295E+03  0.53164260315E+03  0.90456659201E+02 0.  0.
          5    1    3    3  502    0 -0.33666297546E+02 -0.15194894649E+02 -0.22193864492E+03  0.22503008448E+03  0.41800000000E+01 0. -1.
         -5    1    3    3    0  502 -0.12461199242E+03  0.13691524901E+03 -0.42996665545E+03  0.46814819370E+03  0.41800000000E+01 0. -1.
        -11    1    4    4    0    0  0.58515066696E+02 -0.19406394075E+02 -0.69658123933E+02  0.93020833104E+02  0.00000000000E+00 0.  1.
         11    1    4    4    0    0  0.99763223268E+02 -0.10231396029E+03 -0.41469049901E+03  0.43862177005E+03  0.00000000000E+00 0. -1.
</event>
<event>
 8    1  0.6901948E-009  0.1145624E+03  0.7561462E-02  0.1252347E+00
         -1   -1    0    0    0  501 -0.00000000000E+00  0.00000000000E+00  0.35943442738E+03  0.35943442738E+03  0.00000000000E+00 0.  1.
          1   -1    0    0  501    0  0.00000000000E+00 -0.00000000000E+00 -0.13302135935E+03  0.13302135935E+03  0.00000000000E+00 0. -1.
         25    2    1    2    0    0  0.74416447024E+02  0.39793912291E+02  0.30871710280E+03  0.34363162504E+03  0.12512026664E+03 0.  0.
         23    2    1    2    0    0 -0.74416447024E+02 -0.39793912291E+02 -0.82304034770E+02  0.14882416169E+03  0.90847751318E+02 0.  0.
          5    1    3    3  502    0 -0.99279456456E+01  0.13697045123E+02 -0.46520165159E+01  0.18035709232E+02  0.41800000000E+01 0. -1.
         -5    1    3    3    0  502  0.84344392669E+02  0.26096867168E+02  0.31336911932E+03  0.32559591581E+03  0.41800000000E+01 0. -1.
        -11    1    4    4    0    0 -0.91092885334E+02 -0.13375606356E+02 -0.68027846973E+02  0.11447536227E+03  0.00000000000E+00 0.  1.
         11    1    4    4    0    0  0.16676438310E+02 -0.26418305936E+02 -0.14276187797E+02  0.34348799414E+02  0.00000000000E+00 0. -1.
</event>
<event>
 8    1  0.6901948E-009  0.9396116E+02  0.7561462E-02  0.1293533E+00
         -1   -1    0    0    0  501 -0.00000000000E+00  0.00000000000E+00  0.12157984213E+03  0.12157984213E+03  0.00000000000E+00 0.  1.
          1   -1    0    0  501    0  0.00000000000E+00 -0.00000000000E+00 -0.17186415776E+03  0.17186415776E+03  0.00000000000E+00 0. -1.
         25    2    1    2    0    0  0.45217836431E+02 -0.39647540908E+02 -0.94015013234E+02  0.16765854305E+03  0.12511588273E+03 0.  0.
         23    2    1    2    0    0 -0.45217836431E+02  0.39647540908E+02  0.43730697608E+02  0.12578545685E+03  0.10145455637E+03 0.  0.
          5    1    3    3  502    0 -0.75517426370E+01 -0.67444707776E+02 -0.16869447684E+02  0.70056178093E+02  0.41800000000E+01 0.  1.
         -5    1    3    3    0  502  0.52769579068E+02  0.27797166868E+02 -0.77145565550E+02  0.97602364955E+02  0.41800000000E+01 0.  1.
        -11    1    4    4    0    0 -0.36258214109E+02  0.31757745995E+02  0.76774815443E+02  0.90650895237E+02  0.00000000000E+00 0.  1.
         11    1    4    4    0    0 -0.89596223219E+01  0.78897949130E+01 -0.33044117835E+02  0.35134561608E+02  0.00000000000E+00 0. -1.
</event>
<event>
 8    1  0.6901948E-009  0.1044981E+03  0.7561462E-02  0.1271112E+00
          2   -1    0    0  501    0  0.00000000000E+00  0.00000000000E+00  0.84597679584E+03  0.84597679584E+03  0.00000000000E+00 0.  1.
         -2   -1    0    0    0  501 -0.00000000000E+00 -0.00000000000E+00 -0.22798948905E+02  0.22798948905E+02  0.00000000000E+00 0. -1.
         25    2    1    2    0    0 -0.18401540745E+02  0.87326719222E+02  0.45589481229E+03  0.48109517008E+03  0.12509160727E+03 0.  0.
         23    2    1    2    0    0  0.18401540745E+02 -0.87326719222E+02  0.36728303465E+03  0.38768057467E+03  0.86225447767E+02 0.  0.
          5    1    3    3  502    0 -0.14163836886E+02  0.80653568964E+02  0.12148798861E+03  0.14656881059E+03  0.41800000000E+01 0. -1.
         -5    1    3    3    0  502 -0.42377038585E+01  0.66731502585E+01  0.33440682368E+03  0.33452635949E+03  0.41800000000E+01 0. -1.
        -11    1    4    4    0    0  0.48307407725E+02 -0.63707587179E+02  0.18633737664E+03  0.20276557952E+03  0.00000000000E+00 0. -1.
         11    1    4    4    0    0 -0.29905866980E+02 -0.23619132043E+02  0.18094565801E+03  0.18491499515E+03  0.00000000000E+00 0.  1.
</event>
<event>
 8    1  0.6901948E-009  0.1256676E+03  0.7561462E-02  0.1234030E+00
          2   -1    0    0  501    0  0.00000000000E+00  0.00000000000E+00  0.21988270397E+03  0.21988270397E+03  0.00000000000E+00 0. -1.
         -2   -1    0    0    0  501 -0.00000000000E+00 -0.00000000000E+00 -0.83640658602E+02  0.83640658602E+02  0.00000000000E+00 0.  1.
         25    2    1    2    0    0 -0.16859125440E+02 -0.79575933061E+02  0.81066500919E+02  0.16981090965E+03  0.12508960082E+03 0.  0.
         23    2    1    2    0    0  0.16859125440E+02  0.79575933061E+02  0.55175544448E+02  0.13371245292E+03  0.90653847834E+02 0.  0.
          5    1    3    3  502    0  0.27793433471E+02 -0.92375135125E+02  0.31054906188E+02  0.10142741312E+03  0.41800000000E+01 0.  1.
         -5    1    3    3    0  502 -0.44652558912E+02  0.12799202064E+02  0.50011594732E+02  0.68383496536E+02  0.41800000000E+01 0.  1.
        -11    1    4    4    0    0 -0.28146542888E+02  0.28275616985E+02 -0.80285386017E+01  0.40696385890E+02  0.00000000000E+00 0.  1.
         11    1    4    4    0    0  0.45005668328E+02  0.51300316076E+02  0.63204083050E+02  0.93016067028E+02  0.00000000000E+00 0. -1.
</event>
<event>
 8    1  0.6901948E-009  0.7066820E+02  0.7561462E-02  0.1357835E+00
          2   -1    0    0  501    0  0.00000000000E+00  0.00000000000E+00  0.49151228150E+03  0.49151228150E+03  0.00000000000E+00 0. -1.
         -2   -1    0    0    0  501 -0.00000000000E+00 -0.00000000000E+00 -0.25966002999E+02  0.25966002999E+02  0.00000000000E+00 0.  1.
         25    2    1    2    0    0  0.20284665765E+02 -0.23578292873E+02  0.30305954477E+03  0.32933338890E+03  0.12509192542E+03 0.  0.
         23    2    1    2    0    0 -0.20284665765E+02  0.23578292873E+02  0.16248673373E+03  0.18814489560E+03  0.89605577635E+02 0.  0.
          5    1    3    3  502    0 -0.49855910086E+01 -0.32964052274E+02  0.30000848991E+03  0.30188416864E+03  0.41800000000E+01 0. -1.
         -5    1    3    3    0  502  0.25270256773E+02  0.93857594010E+01  0.30510548659E+01  0.27449220257E+02  0.41800000000E+01 0. -1.
        -11    1    4    4    0    0 -0.46688637849E+02  0.26838386574E+02  0.14876057410E+03  0.15820820556E+03  0.00000000000E+00 0. -1.
         11    1    4    4    0    0  0.26403972084E+02 -0.32600937004E+01  0.13726159625E+02  0.29936690044E+02  0.00000000000E+00 0.  1.
</event>
<event>
 8    1  0.6901948E-009  0.1477369E+03  0.7561462E-02  0.1203282E+00
          1   -1    0    0  501    0  0.00000000000E+00  0.00000000000E+00  0.13890121713E+04  0.13890121713E+04  0.00000000000E+00 0. -1.
         -1   -1    0    0    0  501 -0.00000000000E+00 -0.00000000000E+00 -0.17523090267E+02  0.17523090267E+02  0.00000000000E+00 0.  1.
         25    2    1    2    0    0  0.85600736548E+02 -0.65768350948E+02  0.86836803219E+03  0.88394736025E+03  0.12508770636E+03 0.  0.
         23    2    1    2    0    0 -0.85600736548E+02  0.65768350948E+02  0.50312104883E+03  0.52258790130E+03  0.91183127430E+02 0.  0.
          5    1    3    3  502    0  0.70137460532E+01  0.34821127364E+02  0.24832009967E+03  0.25088253794E+03  0.41800000000E+01 0.  1.
         -5    1    3    3    0  502  0.78586990495E+02 -0.10058947831E+03  0.62004793252E+03  0.63306482231E+03  0.41800000000E+01 0.  1.
        -11    1    4    4    0    0 -0.26143357908E+02  0.67627410590E+02  0.36610916857E+03  0.37321959372E+03  0.00000000000E+00 0. -1.
         11    1    4    4    0    0 -0.59457378640E+02 -0.18590596417E+01  0.13701188026E+03  0.14936830758E+03  0.00000000000E+00 0.  1.
</event>
<event>
 8    1  0.6901948E-009  0.1661952E+03  0.7561462E-02  0.1181875E+00
          1   -1    0    0  501    0  0.00000000000E+00  0.00000000000E+00  0.18973997918E+02  0.18973997918E+02  0.00000000000E+00 0. -1.
         -1   -1    0    0    0  501 -0.00000000000E+00 -0.00000000000E+00 -0.15793973580E+04  0.15793973580E+04  0.00000000000E+00 0.  1.
         25    2    1    2    0    0 -0.12664911922E+03 -0.40699575395E+02 -0.85935906870E+03  0.87854569234E+03  0.12509224490E+03 0.  0.
         23    2    1    2    0    0  0.12664911922E+03  0.40699575395E+02 -0.70106429140E+03  0.71982566360E+03  0.94664620955E+02 0.  0.
          5    1    3    3  502    0 -0.54098868547E+01  0.29109729375E+02 -0.31739389120E+03  0.31879930645E+03  0.41800000000E+01 0.  1.
         -5    1    3    3    0  502 -0.12123923237E+03 -0.69809304770E+02 -0.54196517750E+03  0.55974638589E+03  0.41800000000E+01 0.  1.
        -11    1    4    4    0    0  0.51850669500E+02 -0.29745028877E+02 -0.29187588241E+03  0.29793420315E+03  0.00000000000E+00 0.  1.
         11    1    4    4    0    0  0.74798449720E+02  0.70444604272E+02 -0.40918840899E+03  0.42189146045E+03  0.00000000000E+00 0. -1.
</event>
<event>
 8    1  0.6901948E-009  0.1290278E+03  0.7561462E-02  0.1228906E+00
         -1   -1    0    0    0  501 -0.00000000000E+00  0.00000000000E+00  0.90445425580E+02  0.90445425580E+02  0.00000000000E+00 0.  1.
          1   -1    0    0  501    0  0.00000000000E+00 -0.00000000000E+00 -0.27362729920E+03  0.27362729920E+03  0.00000000000E+00 0. -1.
         25    2    1    2    0    0  0.79730480448E+02 -0.87735697622E+01 -0.10369250991E+02  0.14895798290E+03  0.12508810600E+03 0.  0.
         23    2    1    2    0    0 -0.79730480448E+02  0.87735697622E+01 -0.17281262263E+03  0.21511474188E+03  0.99881052239E+02 0.  0.
          5    1    3    3  502    0  0.86344304492E+01  0.41638921959E+02 -0.38257647124E+02  0.57353929024E+02  0.41800000000E+01 0. -1.
         -5    1    3    3    0  502  0.71096049999E+02 -0.50412491721E+02  0.27888396133E+02  0.91604053872E+02  0.41800000000E+01 0. -1.
        -11    1    4    4    0    0 -0.10695538128E+02  0.47653985923E+02 -0.68242587003E+02  0.83918696314E+02  0.00000000000E+00 0.  1.
         11    1    4    4    0    0 -0.69034942320E+02 -0.38880416161E+02 -0.10457003562E+03  0.13119604557E+03  0.00000000000E+00 0. -1.
</event>
<event>
 8    1  0.6901948E-009  0.9108806E+02  0.7561462E-02  0.1300238E+00
          2   -1    0    0  501    0  0.00000000000E+00  0.00000000000E+00  0.32966116809E+04  0.32966116809E+04  0.00000000000E+00 0. -1.
         -2   -1    0    0    0  501 -0.00000000000E+00 -0.00000000000E+00 -0.56034096331E+01  0.56034096331E+01  0.00000000000E+00 0.  1.
         25    2    1    2    0    0  0.17354709981E+02 -0.46234182853E+02  0.27751428975E+04  0.27783995998E+04  0.12508976326E+03 0.  0.
         23    2    1    2    0    0 -0.17354709981E+02  0.46234182853E+02  0.51586537379E+03  0.52381549078E+03  0.76333471573E+02 0.  0.
          5    1    3    3  502    0  0.12671633823E+02 -0.67647526284E+02  0.75708645849E+03  0.76021979463E+03  0.41800000000E+01 0. -1.
         -5    1    3    3    0  502  0.46830761582E+01  0.21413343431E+02  0.20180564390E+04  0.20181798052E+04  0.41800000000E+01 0. -1.
        -11    1    4    4    0    0 -0.25167080854E+01  0.66081855286E+02  0.37756446865E+03  0.38331197920E+03  0.00000000000E+00 0.  1.
         11    1    4    4    0    0 -0.14838001895E+02 -0.19847672433E+02  0.13830090514E+03  0.14050351157E+03  0.00000000000E+00 0. -1.
</event>
<event>
 8    1  0.6901948E-009  0.1401660E+03  0.7561462E-02  0.1213106E+00
         -1   -1    0    0    0  501 -0.00000000000E+00  0.00000000000E+00  0.16125771705E+03  0.16125771705E+03  0.00000000000E+00 0.  1.
          1   -1    0    0  501    0  0.00000000000E+00 -0.00000000000E+00 -0.27661592215E+03  0.27661592215E+03  0.00000000000E+00 0. -1.
         25    2    1    2    0    0 -0.47926423759E+02 -0.93899016825E+02 -0.21273602343E+03  0.26836196976E+03  0.12509022222E+03 0.  0.
         23    2    1    2    0    0  0.47926423759E+02  0.93899016825E+02  0.97377818327E+02  0.16951166945E+03  0.90209750700E+02 0.  0.
          5    1    3    3  502    0 -0.80743373140E+02 -0.76674729100E+02 -0.10036798562E+03  0.14996570050E+03  0.41800000000E+01 0. -1.
         -5    1    3    3    0  502  0.32816949381E+02 -0.17224287725E+02 -0.11236803781E+03  0.11839626926E+03  0.41800000000E+01 0. -1.
        -11    1    4    4    0    0 -0.21881264472E+02  0.28681064278E+02  0.53153344156E+02  0.64239171679E+02  0.00000000000E+00 0. -1.
         11    1    4    4    0    0  0.69807688230E+02  0.65217952547E+02  0.44224474170E+02  0.10527249777E+03  0.00000000000E+00 0.  1.
</event>
<event>
 8    1  0.6901948E-009  0.1924136E+03  0.7561462E-02  0.1156302E+00
          1   -1    0    0  501    0  0.00000000000E+00  0.00000000000E+00  0.25107159506E+03  0.25107159506E+03  0.00000000000E+00 0. -1.
         -1   -1    0    0    0  501 -0.00000000000E+00 -0.00000000000E+00 -0.14999853280E+03  0.14999853280E+03  0.00000000000E+00 0.  1.
         25    2    1    2    0    0  0.26888271724E+02 -0.15734863865E+03  0.70560803464E+02  0.21473243562E+03  0.12509843597E+03 0.  0.
         23    2    1    2    0    0 -0.26888271724E+02  0.15734863865E+03  0.30512258804E+02  0.18633769223E+03  0.91154617921E+02 0.  0.
          5    1    3    3  502    0  0.72438645714E+02 -0.61904985014E+02  0.46880220034E+02  0.10627705299E+03  0.41800000000E+01 0. -1.
         -5    1    3    3    0  502 -0.45550373990E+02 -0.95443653636E+02  0.23680583430E+02  0.10845538263E+03  0.41800000000E+01 0. -1.
        -11    1    4    4    0    0 -0.16774507064E+02 -0.75545606253E+01  0.39130963336E+00  0.18401320516E+02  0.00000000000E+00 0.  1.
         11    1    4    4    0    0 -0.10113764659E+02  0.16490319928E+03  0.30120949170E+02  0.16793637172E+03  0.00000000000E+00 0. -1.
</event>
<event>
 8    1  0.6901948E-009  0.1228617E+03  0.7561462E-02  0.1238449E+00
          1   -1    0    0  501    0  0.00000000000E+00  0.00000000000E+00  0.72345146783E+03  0.72345146783E+03  0.00000000000E+00 0. -1.
         -1   -1    0    0    0  501 -0.00000000000E+00 -0.00000000000E+00 -0.25260190901E+02  0.25260190901E+02  0.00000000000E+00 0.  1.
         25    2    1    2    0    0  0.39830320439E+02  0.67287509904E+02  0.49259594985E+03  0.51421004083E+03  0.12508850013E+03 0.  0.
         23    2    1    2    0    0 -0.39830320439E+02 -0.67287509904E+02  0.20559532708E+03  0.23450161790E+03  0.81286572487E+02 0.  0.
          5    1    3    3  502    0  0.15745096203E+02 -0.31362287730E+02  0.22879308544E+03  0.23150647829E+03  0.41800000000E+01 0.  1.
         -5    1    3    3    0  502  0.24085224236E+02  0.98649797635E+02  0.26380286442E+03  0.28270356254E+03  0.41800000000E+01 0.  1.
        -11    1    4    4    0    0 -0.42061472147E+02 -0.82909563950E+02  0.19330592075E+03  0.21450021499E+03  0.00000000000E+00 0. -1.
         11    1    4    4    0    0  0.22311517081E+01  0.15622054046E+02  0.12289406330E+02  0.20001402913E+02  0.00000000000E+00 0.  1.
</event>
<event>
 8    1  0.6901948E-009  0.1681703E+03  0.7561462E-02  0.1179769E+00
         -4   -1    0    0    0  501 -0.00000000000E+00  0.00000000000E+00  0.21988239137E+03  0.21988239137E+03  0.00000000000E+00 0.  1.
          4   -1    0    0  501    0  0.00000000000E+00 -0.00000000000E+00 -0.15277796143E+03  0.15277796143E+03  0.00000000000E+00 0. -1.
         25    2    1    2    0    0  0.76535735157E+02 -0.11551873602E+03  0.86159615418E+02  0.20560306643E+03  0.12508734736E+03 0.  0.
         23    2    1    2    0    0 -0.76535735157E+02  0.11551873602E+03 -0.19055185486E+02  0.16705728637E+03  0.91338599212E+02 0.  0.
          5    1    3    3  502    0  0.86422375985E+02 -0.12799046405E+03  0.10005829807E+03  0.18406390567E+03  0.41800000000E+01 0. -1.
         -5    1    3    3    0  502 -0.98866408274E+01  0.12471728030E+02 -0.13898682647E+02  0.21539160760E+02  0.41800000000E+01 0. -1.
        -11    1    4    4    0    0 -0.79048714557E+02  0.37777883349E+02 -0.31642960814E+01  0.87669153715E+02  0.00000000000E+00 0.  1.
         11    1    4    4    0    0  0.25129793994E+01  0.77740852674E+02 -0.15890889404E+02  0.79388132653E+02  0.00000000000E+00 0. -1.
</event>
<event>
 8    1  0.6901948E-009  0.2034761E+03  0.7561462E-02  0.1146839E+00
         -2   -1    0    0    0  501 -0.00000000000E+00  0.00000000000E+00  0.45033593597E+03  0.45033593597E+03  0.00000000000E+00 0.  1.
          2   -1    0    0  501    0  0.00000000000E+00 -0.00000000000E+00 -0.11029544804E+03  0.11029544804E+03  0.00000000000E+00 0. -1.
         25    2    1    2    0    0 -0.53890036734E+02 -0.18446544815E+03  0.14174682291E+03  0.26957818471E+03  0.12509435737E+03 0.  0.
         23    2    1    2    0    0  0.53890036734E+02  0.18446544815E+03  0.19829366502E+03  0.29105319930E+03  0.91977984410E+02 0.  0.
          5    1    3    3  502    0 -0.40123029007E+02 -0.80506422557E+02 -0.38131066805E+01  0.90128539943E+02  0.41800000000E+01 0. -1.
         -5    1    3    3    0  502 -0.13767007727E+02 -0.10395902560E+03  0.14555992959E+03  0.17944964477E+03  0.41800000000E+01 0. -1.
        -11    1    4    4    0    0  0.55148129639E+02  0.41588035543E+02  0.78819750526E+02  0.10480187964E+03  0.00000000000E+00 0.  1.
         11    1    4    4    0    0 -0.12580929048E+01  0.14287741261E+03  0.11947391449E+03  0.18625131966E+03  0.00000000000E+00 0. -1.
</event>
<event>
 8    1  0.6901948E-009  0.1053740E+03  0.7561462E-02  0.1269385E+00
          2   -1    0    0  501    0  0.00000000000E+00  0.00000000000E+00  0.34854873815E+03  0.34854873815E+03  0.00000000000E+00 0. -1.
         -2   -1    0    0    0  501 -0.00000000000E+00 -0.00000000000E+00 -0.50870545306E+02  0.50870545306E+02  0.00000000000E+00 0.  1.
         25    2    1    2    0    0 -0.73990481922E+01 -0.76959553485E+02  0.14039285480E+03  0.20332116282E+03  0.12510724513E+03 0.  0.
         23    2    1    2    0    0  0.73990481922E+01  0.76959553485E+02  0.15728533804E+03  0.19609812064E+03  0.87967474484E+02 0.  0.
          5    1    3    3  502    0  0.33054767261E+01  0.71299956565E+01 -0.19981238743E+02  0.21874307215E+02  0.41800000000E+01 0. -1.
         -5    1    3    3    0  502 -0.10704524918E+02 -0.84089549141E+02  0.16037409354E+03  0.18144685560E+03  0.41800000000E+01 0. -1.
        -11    1    4    4    0    0  0.15157932297E+02 -0.16953910199E+02  0.26909836866E+02  0.35232617029E+02  0.00000000000E+00 0.  1.
         11    1    4    4    0    0 -0.77588841045E+01  0.93913463684E+02  0.13037550118E+03  0.16086550361E+03  0.00000000000E+00 0. -1.
</event>
<event>
 8    1  0.6901948E-009  0.1593702E+03  0.7561462E-02  0.1189410E+00
         -2   -1    0    0    0  501 -0.00000000000E+00  0.00000000000E+00  0.82126162617E+02  0.82126162617E+02  0.00000000000E+00 0.  1.
          2   -1    0    0  501    0  0.00000000000E+00 -0.00000000000E+00 -0.32840132840E+03  0.32840132840E+03  0.00000000000E+00 0. -1.
         25    2    1    2    0    0 -0.87686777462E+02 -0.85266713823E+02 -0.12022306923E+03  0.21227086702E+03  0.12508377666E+03 0.  0.
         23    2    1    2    0    0  0.87686777462E+02  0.85266713823E+02 -0.12605209655E+03  0.19825662399E+03  0.91962897328E+02 0.  0.
          5    1    3    3  502    0 -0.28062111942E+02 -0.10028949217E+03 -0.41239226453E+02  0.11208751298E+03  0.41800000000E+01 0.  1.
         -5    1    3    3    0  502 -0.59624665520E+02  0.15022778349E+02 -0.78983842781E+02  0.10018335405E+03  0.41800000000E+01 0.  1.
        -11    1    4    4    0    0  0.85816674261E+02  0.20682563680E+02 -0.68580066351E+02  0.11178325242E+03  0.00000000000E+00 0.  1.
         11    1    4    4    0    0  0.18701032014E+01  0.64584150143E+02 -0.57472030198E+02  0.86473371571E+02  0.00000000000E+00 0. -1.
</event>
<event>
 8    1  0.6901948E-009  0.1376228E+03  0.7561462E-02  0.1216564E+00
          2   -1    0    0  501    0  0.00000000000E+00  0.00000000000E+00  0.14699458108E+04  0.14699458108E+04  0.00000000000E+00 0.  1.
         -2   -1    0    0    0  501 -0.00000000000E+00 -0.00000000000E+00 -0.16991162763E+02  0.16991162763E+02  0.00000000000E+00 0. -1.
         25    2    1    2    0    0  0.10325933755E+03 -0.28661910325E+02  0.97298216708E+03  0.98682630337E+03  0.12509140528E+03 0.  0.
         23    2    1    2    0    0 -0.10325933755E+03  0.28661910325E+02  0.47997248094E+03  0.50011067018E+03  0.90846596353E+02 0.  0.
          5    1    3    3  502    0 -0.85593297613E+01 -0.21830216585E+02  0.50661051974E+03  0.50717010124E+03  0.41800000000E+01 0. -1.
         -5    1    3    3    0  502  0.11181866731E+03 -0.68316937407E+01  0.46637164734E+03  0.47965620213E+03  0.41800000000E+01 0. -1.
        -11    1    4    4    0    0 -0.80401310365E+02 -0.22327613290E+02  0.31821068291E+03  0.32896949972E+03  0.00000000000E+00 0.  1.
         11    1    4    4    0    0 -0.22858027187E+02  0.50989523615E+02  0.16176179803E+03  0.17114117046E+03  0.00000000000E+00 0. -1.
</event>
<event>
 8    1  0.6901948E-009  0.1686599E+03  0.7561462E-02  0.1179253E+00
         -1   -1    0    0    0  501 -0.00000000000E+00  0.00000000000E+00  0.63187209305E+03  0.63187209305E+03  0.00000000000E+00 0.  1.
          1   -1    0    0  501    0  0.00000000000E+00 -0.00000000000E+00 -0.60299366174E+02  0.60299366174E+02  0.00000000000E+00 0. -1.
         25    2    1    2    0    0  0.10915460452E+03 -0.98159445733E+02  0.41942427332E+03  0.46164300377E+03  0.12509011714E+03 0.  0.
         23    2    1    2    0    0 -0.10915460452E+03  0.98159445733E+02  0.15214845355E+03  0.23052845545E+03  0.91892395647E+02 0.  0.
          5    1    3    3  502    0  0.11766862228E+03 -0.31238443529E+02  0.30938983088E+03  0.33250757115E+03  0.41800000000E+01 0. -1.
         -5    1    3    3    0  502 -0.85140177576E+01 -0.66921002204E+02  0.11003444245E+03  0.12913543262E+03  0.41800000000E+01 0. -1.
        -11    1    4    4    0    0 -0.73999294974E+02  0.77419653099E+02  0.45546672450E+02  0.11637954165E+03  0.00000000000E+00 0. -1.
         11    1    4    4    0    0 -0.35155309548E+02  0.20739792634E+02  0.10660178110E+03  0.11414891380E+03  0.00000000000E+00 0.  1.
</event>
<event>
 8    1  0.6901948E-009  0.1841125E+03  0.7561462E-02  0.1163881E+00
          1   -1    0    0  501    0  0.00000000000E+00  0.00000000000E+00  0.13383260759E+03  0.13383260759E+03  0.00000000000E+00 0. -1.
         -1   -1    0    0    0  501 -0.00000000000E+00 -0.00000000000E+00 -0.29042015501E+03  0.29042015501E+03  0.00000000000E+00 0.  1.
         25    2    1    2    0    0  0.29158908901E+02  0.16072358529E+03 -0.99478670281E+02  0.22852922728E+03  0.12508912441E+03 0.  0.
         23    2    1    2    0    0 -0.29158908901E+02 -0.16072358529E+03 -0.57108877148E+02  0.19572353532E+03  0.91454718799E+02 0.  0.
          5    1    3    3  502    0 -0.23680923040E+02  0.14662965757E+03 -0.56960145520E+02  0.15913193637E+03  0.41800000000E+01 0. -1.
         -5    1    3    3    0  502  0.52839831941E+02  0.14093927716E+02 -0.42518524762E+02  0.69397290912E+02  0.41800000000E+01 0. -1.
        -11    1    4    4    0    0 -0.32695265088E+02 -0.14897205890E+03 -0.78143196823E+02  0.17137098326E+03  0.00000000000E+00 0.  1.
         11    1    4    4    0    0  0.35363561876E+01 -0.11751526386E+02  0.21034319675E+02  0.24352552057E+02  0.00000000000E+00 0. -1.
</event>
<event>
 8    1  0.6901948E-009  0.1677698E+03  0.7561462E-02  0.1180194E+00
         -2   -1    0    0    0  501 -0.00000000000E+00  0.00000000000E+00  0.10930994359E+03  0.10930994359E+03  0.00000000000E+00 0.  1.
          2   -1    0    0  501    0  0.00000000000E+00 -0.00000000000E+00 -0.31494756351E+03  0.31494756351E+03  0.00000000000E+00 0. -1.
         25    2    1    2    0    0  0.34636047890E+02 -0.14318762060E+03 -0.74858413621E+02  0.20725344584E+03  0.12509139945E+03 0.  0.
         23    2    1    2    0    0 -0.34636047890E+02  0.14318762060E+03 -0.13077920629E+03  0.21700406126E+03  0.91023136060E+02 0.  0.
          5    1    3    3  502    0  0.71223979765E+02 -0.10879535864E+03 -0.18100585018E+02  0.13135596269E+03  0.41800000000E+01 0. -1.
         -5    1    3    3    0  502 -0.36587931875E+02 -0.34392261957E+02 -0.56757828603E+02  0.75897483154E+02  0.41800000000E+01 0. -1.
        -11    1    4    4    0    0 -0.28953903699E+02  0.29910429653E+02  0.28552089617E+01  0.41726664851E+02  0.00000000000E+00 0.  1.
         11    1    4    4    0    0 -0.56821441912E+01  0.11327719095E+03 -0.13363441525E+03  0.17527739641E+03  0.00000000000E+00 0. -1.
</event>
<event>
 8    1  0.6901948E-009  0.1112856E+03  0.7561462E-02  0.1258207E+00
         -2   -1    0    0    0  501 -0.00000000000E+00  0.00000000000E+00  0.41052335424E+02  0.41052335424E+02  0.00000000000E+00 0.  1.
          2   -1    0    0  501    0  0.00000000000E+00 -0.00000000000E+00 -0.44723390584E+03  0.44723390584E+03  0.00000000000E+00 0. -1.
         25    2    1    2    0    0  0.47162127503E+02  0.11149492034E+02 -0.10677805649E+03  0.17145989134E+03  0.12509341929E+03 0.  0.
         23    2    1    2    0    0 -0.47162127503E+02 -0.11149492034E+02 -0.29940351393E+03  0.31682634992E+03  0.91585448674E+02 0.  0.
          5    1    3    3  502    0 -0.26639518231E+02 -0.28872263194E+02 -0.68544307678E+02  0.79114259325E+02  0.41800000000E+01 0.  1.
         -5    1    3    3    0  502  0.73801645735E+02  0.40021755228E+02 -0.38233748811E+02  0.92345632018E+02  0.41800000000E+01 0.  1.
        -11    1    4    4    0    0 -0.43090042649E+01  0.35442593106E+02 -0.66560430648E+02  0.75531687734E+02  0.00000000000E+00 0.  1.
         11    1    4    4    0    0 -0.42853123239E+02 -0.46592085140E+02 -0.23284308328E+03  0.24129466219E+03  0.00000000000E+00 0. -1.
</event>
<event>
 8    1  0.6901948E-009  0.1743425E+03  0.7561462E-02  0.1173394E+00
         -1   -1    0    0    0  501 -0.00000000000E+00  0.00000000000E+00  0.24693620011E+02  0.24693620011E+02  0.00000000000E+00 0.  1.
          1   -1    0    0  501    0  0.00000000000E+00 -0.00000000000E+00 -0.17096513104E+04  0.17096513104E+04  0.00000000000E+00 0. -1.
         25    2    1    2    0    0  0.14381142792E+03 -0.53630050571E+00 -0.12971544815E+04  0.13110833743E+04  0.12509137033E+03 0.  0.
         23    2    1    2    0    0 -0.14381142792E+03  0.53630050571E+00 -0.38780320890E+03  0.42326155618E+03  0.89872140768E+02 0.  0.
          5    1    3    3  502    0  0.12759974843E+03  0.50010100192E+02 -0.96332691060E+03  0.97303592688E+03  0.41800000000E+01 0. -1.
         -5    1    3    3    0  502  0.16211679489E+02 -0.50546400698E+02 -0.33382757093E+03  0.33804744739E+03  0.41800000000E+01 0. -1.
        -11    1    4    4    0    0 -0.53434574146E+01 -0.17857703669E+02 -0.11579924771E+02  0.21944128490E+02  0.00000000000E+00 0.  1.
         11    1    4    4    0    0 -0.13846797050E+03  0.18394004174E+02 -0.37622328413E+03  0.40131742769E+03  0.00000000000E+00 0. -1.
</event>
<event>
 8    1  0.6901948E-009  0.2543006E+03  0.7561462E-02  0.1110617E+00
         -3   -1    0    0    0  501 -0.00000000000E+00  0.00000000000E+00  0.21150237181E+03  0.21150237181E+03  0.00000000000E+00 0.  1.
          3   -1    0    0  501    0  0.00000000000E+00 -0.00000000000E+00 -0.31164576707E+03  0.31164576707E+03  0.00000000000E+00 0. -1.
         25    2    1    2    0    0 -0.12738748205E+02 -0.23359154746E+03 -0.56487753017E+02  0.27122993446E+03  0.12509006498E+03 0.  0.
         23    2    1    2    0    0  0.12738748205E+02  0.23359154746E+03 -0.43655642240E+02  0.25191820442E+03  0.82641877211E+02 0.  0.
          5    1    3    3  502    0  0.29314136029E+01 -0.24217362449E+03 -0.65299750021E+02  0.25087484397E+03  0.41800000000E+01 0. -1.
         -5    1    3    3    0  502 -0.15670161808E+02  0.85820770379E+01  0.88119970039E+01  0.20355090483E+02  0.41800000000E+01 0. -1.
        -11    1    4    4    0    0  0.47427879229E+02  0.15558161637E+03 -0.31696124783E+02  0.16570964790E+03  0.00000000000E+00 0.  1.
         11    1    4    4    0    0 -0.34689131024E+02  0.78009931084E+02 -0.11959517457E+02  0.86208556517E+02  0.00000000000E+00 0. -1.
</event>
<event>
 8    1  0.6901948E-009  0.1018051E+03  0.7561462E-02  0.1276545E+00
         -1   -1    0    0    0  501 -0.00000000000E+00  0.00000000000E+00  0.60778573249E+02  0.60778573249E+02  0.00000000000E+00 0.  1.
          1   -1    0    0  501    0  0.00000000000E+00 -0.00000000000E+00 -0.21675193696E+03  0.21675193696E+03  0.00000000000E+00 0. -1.
         25    2    1    2    0    0  0.15162034146E+02 -0.44569594461E+02 -0.52434780959E+02  0.14357126753E+03  0.12508783544E+03 0.  0.
         23    2    1    2    0    0 -0.15162034146E+02  0.44569594461E+02 -0.10353858275E+03  0.13395924268E+03  0.70770788824E+02 0.  0.
          5    1    3    3  502    0  0.55218272507E+02 -0.55350491242E+02 -0.22502638910E+01  0.78327968102E+02  0.41800000000E+01 0.  1.
         -5    1    3    3    0  502 -0.40056238361E+02  0.10780896781E+02 -0.50184517068E+02  0.65243299428E+02  0.41800000000E+01 0.  1.
        -11    1    4    4    0    0 -0.29628709974E+02 -0.66784452884E+01 -0.26499396938E+02  0.40307320976E+02  0.00000000000E+00 0.  1.
         11    1    4    4    0    0  0.14466675827E+02  0.51248039749E+02 -0.77039185817E+02  0.93651921704E+02  0.00000000000E+00 0. -1.
</event>
<event>
 8    1  0.6901948E-009  0.1181234E+03  0.7561462E-02  0.1246225E+00
         -2   -1    0    0    0  501 -0.00000000000E+00  0.00000000000E+00  0.50184801170E+02  0.50184801170E+02  0.00000000000E+00 0.  1.
          2   -1    0    0  501    0  0.00000000000E+00 -0.00000000000E+00 -0.28426203703E+03  0.28426203703E+03  0.00000000000E+00 0. -1.
         25    2    1    2    0    0  0.33765647279E+02  0.32799667992E+02 -0.11477726280E+03  0.17617145966E+03  0.12508647403E+03 0.  0.
         23    2    1    2    0    0 -0.33765647279E+02 -0.32799667992E+02 -0.11929997306E+03  0.15827537854E+03  0.92750604976E+02 0.  0.
          5    1    3    3  502    0 -0.45568345691E+02 -0.33316053985E+01 -0.32473621086E+02  0.56210160914E+02  0.41800000000E+01 0.  1.
         -5    1    3    3    0  502  0.79333992970E+02  0.36131273390E+02 -0.82303641712E+02  0.11996129874E+03  0.41800000000E+01 0.  1.
        -11    1    4    4    0    0  0.24182432244E+02  0.14581792384E+02 -0.23760736601E+02  0.36905166335E+02  0.00000000000E+00 0.  1.
         11    1    4    4    0    0 -0.57948079523E+02 -0.47381460376E+02 -0.95539236460E+02  0.12137021221E+03  0.00000000000E+00 0. -1.
</event>
<event>
 8    1  0.6901948E-009  0.2175632E+03  0.7561462E-02  0.1135713E+00
         -2   -1    0    0    0  501 -0.00000000000E+00  0.00000000000E+00  0.36287784798E+02  0.36287784798E+02  0.00000000000E+00 0.  1.
          2   -1    0    0  501    0  0.00000000000E+00 -0.00000000000E+00 -0.15166830504E+04  0.15166830504E+04  0.00000000000E+00 0. -1.
         25    2    1    2    0    0 -0.28041601498E+02  0.19728536886E+03 -0.95934836878E+03  0.98777756605E+03  0.12508948448E+03 0.  0.
         23    2    1    2    0    0  0.28041601498E+02 -0.19728536886E+03 -0.52104689682E+03  0.56519326914E+03  0.90805917339E+02 0.  0.
          5    1    3    3  502    0 -0.67583230605E+02  0.58183869289E+02 -0.41828700447E+03  0.42770824895E+03  0.41800000000E+01 0.  1.
         -5    1    3    3    0  502  0.39541629107E+02  0.13910149957E+03 -0.54106136431E+03  0.56006931711E+03  0.41800000000E+01 0.  1.
        -11    1    4    4    0    0  0.11110715613E+02 -0.15810310325E+03 -0.29236296235E+03  0.33255998107E+03  0.00000000000E+00 0.  1.
         11    1    4    4    0    0  0.16930885886E+02 -0.39182265611E+02 -0.22868393447E+03  0.23263328807E+03  0.00000000000E+00 0. -1.
</event>
<event>
 8    1  0.6901948E-009  0.2181538E+03  0.7561462E-02  0.1135267E+00
          2   -1    0    0  501    0  0.00000000000E+00  0.00000000000E+00  0.52044352212E+03  0.52044352212E+03  0.00000000000E+00 0. -1.
         -2   -1    0    0    0  501 -0.00000000000E+00 -0.00000000000E+00 -0.97961891103E+02  0.97961891103E+02  0.00000000000E+00 0.  1.
         25    2    1    2    0    0  0.17605354725E+03  0.86116469254E+02  0.24275270546E+03  0.33613600660E+03  0.12509053182E+03 0.  0.
         23    2    1    2    0    0 -0.17605354725E+03 -0.86116469254E+02  0.17972892556E+03  0.28226940662E+03  0.94671185976E+02 0.  0.
          5    1    3    3  502    0  0.28055678558E+02  0.72312264890E+02  0.12178110935E+03  0.14444478442E+03  0.41800000000E+01 0.  1.
         -5    1    3    3    0  502  0.14799786869E+03  0.13804204364E+02  0.12097159611E+03  0.19169122218E+03  0.41800000000E+01 0.  1.
        -11    1    4    4    0    0 -0.85549777350E+02 -0.83268306611E+02  0.13828055099E+03  0.18268521033E+03  0.00000000000E+00 0.  1.
         11    1    4    4    0    0 -0.90503769902E+02 -0.28481626428E+01  0.41448374573E+02  0.99584196294E+02  0.00000000000E+00 0. -1.
</event>
<event>
 8    1  0.6901948E-009  0.1030356E+03  0.7561462E-02  0.1274039E+00
          4   -1    0    0  501    0  0.00000000000E+00  0.00000000000E+00  0.19119471474E+03  0.19119471474E+03  0.00000000000E+00 0. -1.
         -4   -1    0    0    0  501 -0.00000000000E+00 -0.00000000000E+00 -0.15479496740E+03  0.15479496740E+03  0.00000000000E+00 0.  1.
         25    2    1    2    0    0  0.57385182192E+02  0.15726202935E+02 -0.99486961198E+02  0.17054344595E+03  0.12508812459E+03 0.  0.
         23    2    1    2    0    0 -0.57385182192E+02 -0.15726202935E+02  0.13588670854E+03  0.17544623619E+03  0.93679302097E+02 0.  0.
          5    1    3    3  502    0  0.30093131911E+02  0.64858168383E+02 -0.22382415674E+02  0.75037480805E+02  0.41800000000E+01 0.  1.
         -5    1    3    3    0  502  0.27292050281E+02 -0.49131965448E+02 -0.77104545525E+02  0.95505965143E+02  0.41800000000E+01 0.  1.
        -11    1    4    4    0    0 -0.15087577813E+02 -0.29892481131E+02  0.12516836684E+03  0.12956973215E+03  0.00000000000E+00 0. -1.
         11    1    4    4    0    0 -0.42297604379E+02  0.14166278196E+02  0.10718341702E+02  0.45876504040E+02  0.00000000000E+00 0.  1.
</event>
<event>
 8    1  0.6901948E-009  0.1538640E+03  0.7561462E-02  0.1195804E+00
          1   -1    0    0  501    0  0.00000000000E+00  0.00000000000E+00  0.23028527639E+03  0.23028527639E+03  0.00000000000E+00 0. -1.
         -1   -1    0    0    0  501 -0.00000000000E+00 -0.00000000000E+00 -0.11048271836E+03  0.11048271836E+03  0.00000000000E+00 0.  1.
         25    2    1    2    0    0  0.77109886655E+02 -0.81740776461E+02  0.99541360617E+02  0.19540830576E+03  0.12509370220E+03 0.  0.
         23    2    1    2    0    0 -0.77109886655E+02  0.81740776461E+02  0.20261197415E+02  0.14535968899E+03  0.89952397999E+02 0.  0.
          5    1    3    3  502    0 -0.16180205129E+02  0.20091001194E+02  0.32880888589E+02  0.42000864294E+02  0.41800000000E+01 0. -1.
         -5    1    3    3    0  502  0.93290091785E+02 -0.10183177765E+03  0.66660472029E+02  0.15340744146E+03  0.41800000000E+01 0. -1.
        -11    1    4    4    0    0 -0.90834785416E+02  0.39569384754E+02  0.19638226455E+02  0.10100670468E+03  0.00000000000E+00 0.  1.
         11    1    4    4    0    0  0.13724898761E+02  0.42171391707E+02  0.62297096002E+00  0.44352984311E+02  0.00000000000E+00 0. -1.
</event>
<event>
 8    1  0.6901948E-009  0.1492327E+03  0.7561462E-02  0.1201419E+00
          2   -1    0    0  501    0  0.00000000000E+00  0.00000000000E+00  0.16382261010E+03  0.16382261010E+03  0.00000000000E+00 0. -1.
         -2   -1    0    0    0  501 -0.00000000000E+00 -0.00000000000E+00 -0.18380656877E+03  0.18380656877E+03  0.00000000000E+00 0.  1.
         25    2    1    2    0    0  0.67306446247E+02 -0.74042092011E+02  0.77528721478E+02  0.17796418749E+03  0.12509260681E+03 0.  0.
         23    2    1    2    0    0 -0.67306446247E+02  0.74042092011E+02 -0.97512680142E+02  0.16966499138E+03  0.96255376044E+02 0.  0.
          5    1    3    3  502    0  0.59258487057E+02  0.22008609642E+02  0.24935327887E+02  0.68082230894E+02  0.41800000000E+01 0. -1.
         -5    1    3    3    0  502  0.80479591895E+01 -0.96050701653E+02  0.52593393592E+02  0.10988195659E+03  0.41800000000E+01 0. -1.
        -11    1    4    4    0    0  0.17228208967E+02  0.46720541347E+02 -0.30617535757E+02  0.58455569998E+02  0.00000000000E+00 0.  1.
         11    1    4    4    0    0 -0.84534655214E+02  0.27321550664E+02 -0.66895144385E+02  0.11120942139E+03  0.00000000000E+00 0. -1.
</event>
<event>
 8    1  0.6901948E-009  0.3246348E+03  0.7561462E-02  0.1073536E+00
         -2   -1    0    0    0  501 -0.00000000000E+00  0.00000000000E+00  0.38043364551E+03  0.38043364551E+03  0.00000000000E+00 0.  1.
          2   -1    0    0  501    0  0.00000000000E+00 -0.00000000000E+00 -0.34841246261E+03  0.34841246261E+03  0.00000000000E+00 0. -1.
         25    2    1    2    0    0  0.16049633884E+03 -0.27983271310E+03 -0.11203155096E+03  0.36368244325E+03  0.12509368096E+03 0.  0.
         23    2    1    2    0    0 -0.16049633884E+03  0.27983271310E+03  0.14405273386E+03  0.36516366486E+03  0.92346574919E+02 0.  0.
          5    1    3    3  502    0  0.17846944980E+02 -0.47254955524E+02  0.27005397546E+02  0.57430899029E+02  0.41800000000E+01 0.  1.
         -5    1    3    3    0  502  0.14264939386E+03 -0.23257775758E+03 -0.13903694850E+03  0.30625154422E+03  0.41800000000E+01 0.  1.
        -11    1    4    4    0    0 -0.29186367014E+02  0.22636507509E+02 -0.94470981123E+01  0.38124836451E+02  0.00000000000E+00 0. -1.
         11    1    4    4    0    0 -0.13130997183E+03  0.25719620559E+03  0.15349983197E+03  0.32703882841E+03  0.00000000000E+00 0.  1.
</event>
<event>
 8    1  0.6901948E-009  0.1277271E+03  0.7561462E-02  0.1230868E+00
          2   -1    0    0  501    0  0.00000000000E+00  0.00000000000E+00  0.12978576904E+04  0.12978576904E+04  0.00000000000E+00 0. -1.
         -2   -1    0    0    0  501 -0.00000000000E+00 -0.00000000000E+00 -0.15645526097E+02  0.15645526097E+02  0.00000000000E+00 0.  1.
         25    2    1    2    0    0  0.78064557605E+02  0.30380776749E+02  0.82572573623E+03  0.83933759963E+03  0.12509015919E+03 0.  0.
         23    2    1    2    0    0 -0.78064557605E+02 -0.30380776749E+02  0.45648642804E+03  0.47416561684E+03  0.97139623504E+02 0.  0.
          5    1    3    3  502    0 -0.12227885608E+02  0.41814499111E+02  0.11955993407E+03  0.12731859156E+03  0.41800000000E+01 0. -1.
         -5    1    3    3    0  502  0.90292443213E+02 -0.11433722362E+02  0.70616580216E+03  0.71201900806E+03  0.41800000000E+01 0. -1.
        -11    1    4    4    0    0 -0.68972909206E+02  0.18055270957E+02  0.34472834638E+03  0.35202398755E+03  0.00000000000E+00 0.  1.
         11    1    4    4    0    0 -0.90916483993E+01 -0.48436047705E+02  0.11175808166E+03  0.12214162928E+03  0.00000000000E+00 0. -1.
</event>
<event>
 8    1  0.6901948E-009  0.1773592E+03  0.7561462E-02  0.1170384E+00
         -2   -1    0    0    0  501 -0.00000000000E+00  0.00000000000E+00  0.15555509538E+03  0.15555509538E+03  0.00000000000E+00 0.  1.
          2   -1    0    0  501    0  0.00000000000E+00 -0.00000000000E+00 -0.21451442455E+03  0.21451442455E+03  0.00000000000E+00 0. -1.
         25    2    1    2    0    0  0.14675015318E+03 -0.72946431481E+01 -0.37884079556E+02  0.19666276187E+03  0.12510882921E+03 0.  0.
         23    2    1    2    0    0 -0.14675015318E+03  0.72946431481E+01 -0.21075249623E+02  0.17340675806E+03  0.89648861221E+02 0.  0.
          5    1    3    3  502    0  0.85111141395E+02 -0.61311392894E+02  0.29079472693E+01  0.10501867379E+03  0.41800000000E+01 0.  1.
         -5    1    3    3    0  502  0.61639011782E+02  0.54016749746E+02 -0.40792026825E+02  0.91644088075E+02  0.41800000000E+01 0.  1.
        -11    1    4    4    0    0 -0.12747042745E+03 -0.25156279184E+02 -0.32570230799E+02  0.13394912538E+03  0.00000000000E+00 0.  1.
         11    1    4    4    0    0 -0.19279725730E+02  0.32450922332E+02  0.11494981177E+02  0.39457632680E+02  0.00000000000E+00 0. -1.
</event>
<event>
 8    1  0.6901948E-009  0.1857184E+03  0.7561462E-02  0.1162381E+00
         -2   -1    0    0    0  501 -0.00000000000E+00  0.00000000000E+00  0.45012289967E+02  0.45012289967E+02  0.00000000000E+00 0.  1.
          2   -1    0    0  501    0  0.00000000000E+00 -0.00000000000E+00 -0.87774325975E+03  0.87774325975E+03  0.00000000000E+00 0. -1.
         25    2    1    2    0    0  0.15955597479E+03 -0.35260668131E+02 -0.51663676766E+03  0.55611371193E+03  0.12508991603E+03 0.  0.
         23    2    1    2    0    0 -0.15955597479E+03  0.35260668131E+02 -0.31609420213E+03  0.36664183779E+03  0.88370067280E+02 0.  0.
          5    1    3    3  502    0  0.41729410229E+02 -0.68363056970E+02 -0.25334107165E+03  0.26573299047E+03  0.41800000000E+01 0. -1.
         -5    1    3    3    0  502  0.11782656456E+03  0.33102388839E+02 -0.26329569600E+03  0.29038072146E+03  0.41800000000E+01 0. -1.
        -11    1    4    4    0    0 -0.10471514647E+03  0.43364562739E+02 -0.27558691503E+03  0.29798304471E+03  0.00000000000E+00 0. -1.
         11    1    4    4    0    0 -0.54840828320E+02 -0.81038946073E+01 -0.40507287101E+02  0.68658793078E+02  0.00000000000E+00 0.  1.
</event>
<event>
 8    1  0.6901948E-009  0.1391480E+03  0.7561462E-02  0.1214480E+00
         -2   -1    0    0    0  501 -0.00000000000E+00  0.00000000000E+00  0.55067525431E+03  0.55067525431E+03  0.00000000000E+00 0.  1.
          2   -1    0    0  501    0  0.00000000000E+00 -0.00000000000E+00 -0.51951593448E+02  0.51951593448E+02  0.00000000000E+00 0. -1.
         25    2    1    2    0    0  0.56258468015E+02  0.86291655466E+02  0.12997039631E+03  0.20772707523E+03  0.12508784450E+03 0.  0.
         23    2    1    2    0    0 -0.56258468015E+02 -0.86291655466E+02  0.36875326456E+03  0.39489977253E+03  0.96724325750E+02 0.  0.
          5    1    3    3  502    0  0.38104911495E+02 -0.26147080438E+02  0.51687786441E+02  0.69460447470E+02  0.41800000000E+01 0. -1.
         -5    1    3    3    0  502  0.18153556521E+02  0.11243873590E+03  0.78282609865E+02  0.13826662776E+03  0.41800000000E+01 0. -1.
        -11    1    4    4    0    0 -0.42596181946E+01 -0.59081559017E+02  0.76186184850E+02  0.96504454431E+02  0.00000000000E+00 0. -1.
         11    1    4    4    0    0 -0.51998849821E+02 -0.27210096449E+02  0.29256707971E+03  0.29839531810E+03  0.00000000000E+00 0.  1.
</event>
<event>
 8    1  0.6901948E-009  0.1073665E+03  0.7561462E-02  0.1265526E+00
         -1   -1    0    0    0  501 -0.00000000000E+00  0.00000000000E+00  0.35262841143E+02  0.35262841143E+02  0.00000000000E+00 0.  1.
          1   -1    0    0  501    0  0.00000000000E+00 -0.00000000000E+00 -0.38793682818E+03  0.38793682818E+03  0.00000000000E+00 0. -1.
         25    2    1    2    0    0 -0.12519643830E+02  0.35371859965E+02 -0.24167533037E+03  0.27470317410E+03  0.12508780352E+03 0.  0.
         23    2    1    2    0    0  0.12519643830E+02 -0.35371859965E+02 -0.11099865666E+03  0.14849649522E+03  0.91228270587E+02 0.  0.
          5    1    3    3  502    0  0.47638663968E+02  0.40950999169E+02 -0.16752101441E+03  0.17896141848E+03  0.41800000000E+01 0. -1.
         -5    1    3    3    0  502 -0.60158307798E+02 -0.55791392038E+01 -0.74154315966E+02  0.95741755613E+02  0.41800000000E+01 0. -1.
        -11    1    4    4    0    0  0.44686989636E+02 -0.18086351884E+01 -0.26314034482E+02  0.51890525288E+02  0.00000000000E+00 0.  1.
         11    1    4    4    0    0 -0.32167345806E+02 -0.33563224777E+02 -0.84684622179E+02  0.96605969936E+02  0.00000000000E+00 0. -1.
</event>
<event>
 8    1  0.6901948E-009  0.1197760E+03  0.7561462E-02  0.1243467E+00
         -2   -1    0    0    0  501 -0.00000000000E+00  0.00000000000E+00  0.18827289673E+03  0.18827289673E+03  0.00000000000E+00 0.  1.
          2   -1    0    0  501    0  0.00000000000E+00 -0.00000000000E+00 -0.12482744657E+03  0.12482744657E+03  0.00000000000E+00 0. -1.
         25    2    1    2    0    0  0.21016667487E+02  0.61703269862E+02 -0.54802992830E+02  0.15132502615E+03  0.12508757609E+03 0.  0.
         23    2    1    2    0    0 -0.21016667487E+02 -0.61703269862E+02  0.11824844299E+03  0.16177531716E+03  0.89104237543E+02 0.  0.
          5    1    3    3  502    0  0.16315290030E+02 -0.34458801809E+02 -0.37067064369E+02  0.53338891738E+02  0.41800000000E+01 0.  1.
         -5    1    3    3    0  502  0.47013774573E+01  0.96162071671E+02 -0.17735928461E+02  0.97986134409E+02  0.41800000000E+01 0.  1.
        -11    1    4    4    0    0 -0.28133030254E+02  0.12142718383E+02  0.13665004578E+02  0.33550638609E+02  0.00000000000E+00 0.  1.
         11    1    4    4    0    0  0.71163627670E+01 -0.73845988244E+02  0.10458343841E+03  0.12822467855E+03  0.00000000000E+00 0. -1.
</event>
<event>
 8    1  0.6901948E-009  0.2105992E+03  0.7561462E-02  0.1141092E+00
          2   -1    0    0  501    0  0.00000000000E+00  0.00000000000E+00  0.80885672139E+03  0.80885672139E+03  0.00000000000E+00 0. -1.
         -2   -1    0    0    0  501 -0.00000000000E+00 -0.00000000000E+00 -0.72594855315E+02  0.72594855315E+02  0.00000000000E+00 0.  1.
         25    2    1    2    0    0 -0.51465060796E+02  0.19738543309E+03  0.51038021832E+03  0.56368867225E+03  0.12508912938E+03 0.  0.
         23    2    1    2    0    0  0.51465060796E+02 -0.19738543309E+03  0.22588164775E+03  0.31776290445E+03  0.91329529601E+02 0.  0.
          5    1    3    3  502    0 -0.62776425126E+01  0.11076324435E+03  0.13007108833E+03  0.17100837849E+03  0.41800000000E+01 0.  1.
         -5    1    3    3    0  502 -0.45187418283E+02  0.86622188740E+02  0.38030912999E+03  0.39268029376E+03  0.41800000000E+01 0.  1.
        -11    1    4    4    0    0  0.13088574869E+01 -0.12101088990E+03  0.17620521619E+03  0.21376067645E+03  0.00000000000E+00 0. -1.
         11    1    4    4    0    0  0.50156203309E+02 -0.76374543185E+02  0.49676431560E+02  0.10400222800E+03  0.00000000000E+00 0.  1.
</event>
<event>
 8    1  0.6901948E-009  0.1065309E+03  0.7561462E-02  0.1267132E+00
         -2   -1    0    0    0  501 -0.00000000000E+00  0.00000000000E+00  0.10927911647E+03  0.10927911647E+03  0.00000000000E+00 0.  1.
          2   -1    0    0  501    0  0.00000000000E+00 -0.00000000000E+00 -0.13409995476E+03  0.13409995476E+03  0.00000000000E+00 0. -1.
         25    2    1    2    0    0  0.17111237407E+02 -0.58535215387E+01  0.37130344153E+02  0.13173211827E+03  0.12509048872E+03 0.  0.
         23    2    1    2    0    0 -0.17111237407E+02  0.58535215387E+01 -0.61951182448E+02  0.11164695296E+03  0.91104527538E+02 0.  0.
          5    1    3    3  502    0 -0.20339321906E+02  0.49437207078E+02  0.36415448277E+02  0.64817302724E+02  0.41800000000E+01 0.  1.
         -5    1    3    3    0  502  0.37450559313E+02 -0.55290728617E+02  0.71489587627E+00  0.66914815549E+02  0.41800000000E+01 0.  1.
        -11    1    4    4    0    0  0.13863833921E+02  0.42407954515E+02 -0.25026071115E+02  0.51156082068E+02  0.00000000000E+00 0.  1.
         11    1    4    4    0    0 -0.30975071328E+02 -0.36554432976E+02 -0.36925111333E+02  0.60490870889E+02  0.00000000000E+00 0. -1.
</event>
<event>
 8    1  0.6901948E-009  0.9149326E+02  0.7561462E-02  0.1299275E+00
         -2   -1    0    0    0  501 -0.00000000000E+00  0.00000000000E+00  0.99490071577E+02  0.99490071577E+02  0.00000000000E+00 0. -1.
          2   -1    0    0  501    0  0.00000000000E+00 -0.00000000000E+00 -0.16729613764E+03  0.16729613764E+03  0.00000000000E+00 0.  1.
         25    2    1    2    0    0  0.39448439188E+02 -0.45240871055E+02 -0.23422285900E+01  0.13876841264E+03  0.12509304755E+03 0.  0.
         23    2    1    2    0    0 -0.39448439188E+02  0.45240871055E+02 -0.65463837469E+02  0.12801779657E+03  0.92196130364E+02 0.  0.
          5    1    3    3  502    0  0.36432530470E+02 -0.49536059279E+01  0.56337437033E+02  0.67403610434E+02  0.41800000000E+01 0.  1.
         -5    1    3    3    0  502  0.30159087179E+01 -0.40287265127E+02 -0.58679665623E+02  0.71364802210E+02  0.41800000000E+01 0.  1.
        -11    1    4    4    0    0 -0.19264377663E+02 -0.25410977197E+02 -0.38384771533E+01  0.32118031006E+02  0.00000000000E+00 0.  1.
         11    1    4    4    0    0 -0.20184061524E+02  0.70651848252E+02 -0.61625360316E+02  0.95899765563E+02  0.00000000000E+00 0. -1.
</event>
<event>
 8    1  0.6901948E-009  0.1195956E+03  0.7561462E-02  0.1243766E+00
         -1   -1    0    0    0  501 -0.00000000000E+00  0.00000000000E+00  0.96748891280E+02  0.96748891280E+02  0.00000000000E+00 0.  1.
          1   -1    0    0  501    0  0.00000000000E+00 -0.00000000000E+00 -0.22972871299E+03  0.22972871299E+03  0.00000000000E+00 0. -1.
         25    2    1    2    0    0 -0.45575189999E+02  0.88174996842E+02 -0.44923107362E+02  0.16588283068E+03  0.12508836848E+03 0.  0.
         23    2    1    2    0    0  0.45575189999E+02 -0.88174996842E+02 -0.88056714344E+02  0.16059477358E+03  0.90469709570E+02 0.  0.
          5    1    3    3  502    0 -0.41645569641E+02  0.45429403857E+02  0.37922689855E+02  0.72483011881E+02  0.41800000000E+01 0. -1.
         -5    1    3    3    0  502 -0.39296203587E+01  0.42745592985E+02 -0.82845797216E+02  0.93399818802E+02  0.41800000000E+01 0. -1.
        -11    1    4    4    0    0  0.58060059239E+02 -0.10093307680E+03 -0.75699579904E+02  0.13888442270E+03  0.00000000000E+00 0. -1.
         11    1    4    4    0    0 -0.12484869240E+02  0.12758079954E+02 -0.12357134440E+02  0.21710350887E+02  0.00000000000E+00 0.  1.
</event>
<event>
 8    1  0.6901948E-009  0.1120523E+03  0.7561462E-02  0.1256816E+00
          2   -1    0    0  501    0  0.00000000000E+00  0.00000000000E+00  0.85392965726E+02  0.85392965726E+02  0.00000000000E+00 0. -1.
         -2   -1    0    0    0  501 -0.00000000000E+00 -0.00000000000E+00 -0.17913410868E+03  0.17913410868E+03  0.00000000000E+00 0.  1.
         25    2    1    2    0    0 -0.34921006528E+02  0.32580513810E+02 -0.12539347917E+02  0.13445250957E+03  0.12505708899E+03 0.  0.
         23    2    1    2    0    0  0.34921006528E+02 -0.32580513810E+02 -0.81201795033E+02  0.13007456483E+03  0.89692219963E+02 0.  0.
          5    1    3    3  502    0 -0.78243559933E+02  0.23705884330E+02  0.13492685918E+02  0.82967153718E+02  0.41800000000E+01 0. -1.
         -5    1    3    3    0  502  0.43322553405E+02  0.88746294800E+01 -0.26032033835E+02  0.51485355855E+02  0.41800000000E+01 0. -1.
        -11    1    4    4    0    0  0.18579713476E+02  0.28817163473E+02 -0.12493363270E+02  0.36492722415E+02  0.00000000000E+00 0.  1.
         11    1    4    4    0    0  0.16341293052E+02 -0.61397677282E+02 -0.68708431762E+02  0.93581842414E+02  0.00000000000E+00 0. -1.
</event>
<event>
 8    1  0.6901948E-009  0.9356365E+02  0.7561462E-02  0.1294444E+00
          1   -1    0    0  501    0  0.00000000000E+00  0.00000000000E+00  0.24714992049E+02  0.24714992049E+02  0.00000000000E+00 0. -1.
         -1   -1    0    0    0  501 -0.00000000000E+00 -0.00000000000E+00 -0.59481280608E+03  0.59481280608E+03  0.00000000000E+00 0.  1.
         25    2    1    2    0    0 -0.41560737910E+02  0.17535598409E+02 -0.23329371950E+03  0.26853000503E+03  0.12509041489E+03 0.  0.
         23    2    1    2    0    0  0.41560737910E+02 -0.17535598409E+02 -0.33680409453E+03  0.35099779310E+03  0.87907113017E+02 0.  0.
          5    1    3    3  502    0 -0.61291522945E+02 -0.74019087068E+00 -0.39961022436E+02  0.73290888803E+02  0.41800000000E+01 0.  1.
         -5    1    3    3    0  502  0.19730785034E+02  0.18275789280E+02 -0.19333269706E+03  0.19523911622E+03  0.41800000000E+01 0.  1.
        -11    1    4    4    0    0  0.59348826139E+02 -0.38679447200E+02 -0.22884316550E+03  0.23955704372E+03  0.00000000000E+00 0.  1.
         11    1    4    4    0    0 -0.17788088229E+02  0.21143848791E+02 -0.10796092903E+03  0.11144074938E+03  0.00000000000E+00 0. -1.
</event>
<event>
 8    1  0.6901948E-009  0.8837427E+02  0.7561462E-02  0.1306837E+00
          1   -1    0    0  501    0  0.00000000000E+00  0.00000000000E+00  0.40523840947E+03  0.40523840947E+03  0.00000000000E+00 0. -1.
         -1   -1    0    0    0  501 -0.00000000000E+00 -0.00000000000E+00 -0.44244399026E+02  0.44244399026E+02  0.00000000000E+00 0.  1.
         25    2    1    2    0    0 -0.20872423232E+02  0.20118876197E+02  0.31756738375E+03  0.34254457379E+03  0.12508922647E+03 0.  0.
         23    2    1    2    0    0  0.20872423232E+02 -0.20118876197E+02  0.43426626696E+02  0.10693823471E+03  0.93324631828E+02 0.  0.
          5    1    3    3  502    0 -0.61593376932E+01  0.72975657233E+02  0.18478661536E+03  0.19881385668E+03  0.41800000000E+01 0.  1.
         -5    1    3    3    0  502 -0.14713085539E+02 -0.52856781037E+02  0.13278076839E+03  0.14373071711E+03  0.41800000000E+01 0.  1.
        -11    1    4    4    0    0 -0.91613310535E+01 -0.15467594046E+02 -0.25735840842E+02  0.31392832878E+02  0.00000000000E+00 0.  1.
         11    1    4    4    0    0  0.30033754286E+02 -0.46512821508E+01  0.69162467538E+02  0.75545401833E+02  0.00000000000E+00 0. -1.
</event>
<event>
 8    1  0.6901948E-009  0.7595468E+02  0.7561462E-02  0.1340940E+00
         -1   -1    0    0    0  501 -0.00000000000E+00  0.00000000000E+00  0.29558754886E+03  0.29558754886E+03  0.00000000000E+00 0.  1.
          1   -1    0    0  501    0  0.00000000000E+00 -0.00000000000E+00 -0.41894978903E+02  0.41894978903E+02  0.00000000000E+00 0. -1.
         25    2    1    2    0    0  0.47664912195E+01 -0.25565037452E+01  0.19832933600E+03  0.23454516561E+03  0.12509058334E+03 0.  0.
         23    2    1    2    0    0 -0.47664912195E+01  0.25565037452E+01  0.55363233956E+02  0.10293736216E+03  0.86612687890E+02 0.  0.
          5    1    3    3  502    0 -0.37357768661E+02  0.28025838761E+02  0.24223497972E+02  0.52775948798E+02  0.41800000000E+01 0.  1.
         -5    1    3    3    0  502  0.42124259880E+02 -0.30582342506E+02  0.17410583803E+03  0.18176921681E+03  0.41800000000E+01 0.  1.
        -11    1    4    4    0    0  0.23974403700E+02  0.19058923448E+01  0.67556824852E+02  0.71710034462E+02  0.00000000000E+00 0.  1.
         11    1    4    4    0    0 -0.28740894920E+02  0.65061140039E+00 -0.12193590896E+02  0.31227327694E+02  0.00000000000E+00 0. -1.
</event>
<event>
 8    1  0.6901948E-009  0.1181091E+03  0.7561462E-02  0.1246249E+00
          1   -1    0    0  501    0  0.00000000000E+00  0.00000000000E+00  0.64800239504E+02  0.64800239504E+02  0.00000000000E+00 0. -1.
         -1   -1    0    0    0  501 -0.00000000000E+00 -0.00000000000E+00 -0.28610583870E+03  0.28610583870E+03  0.00000000000E+00 0.  1.
         25    2    1    2    0    0 -0.67329567979E+02  0.45142096872E+02 -0.13658229156E+03  0.20217345139E+03  0.12509317507E+03 0.  0.
         23    2    1    2    0    0  0.67329567979E+02 -0.45142096872E+02 -0.84723307637E+02  0.14873262681E+03  0.91500140906E+02 0.  0.
          5    1    3    3  502    0 -0.75137776479E+02 -0.20003332137E+02 -0.46647692580E+02  0.90770580993E+02  0.41800000000E+01 0.  1.
         -5    1    3    3    0  502  0.78082085003E+01  0.65145429009E+02 -0.89934598976E+02  0.11140287040E+03  0.41800000000E+01 0.  1.
        -11    1    4    4    0    0  0.49547477945E+02 -0.53533470450E+02 -0.10003921658E+03  0.12380884412E+03  0.00000000000E+00 0.  1.
         11    1    4    4    0    0  0.17782090033E+02  0.83913735780E+01  0.15315908944E+02  0.24923782683E+02  0.00000000000E+00 0. -1.
</event>
<event>
 8    1  0.6901948E-009  0.1100351E+03  0.7561462E-02  0.1260505E+00
         -2   -1    0    0    0  501 -0.00000000000E+00  0.00000000000E+00  0.11212970318E+03  0.11212970318E+03  0.00000000000E+00 0.  1.
          2   -1    0    0  501    0  0.00000000000E+00 -0.00000000000E+00 -0.16259466978E+03  0.16259466978E+03  0.00000000000E+00 0. -1.
         25    2    1    2    0    0 -0.33231347721E+02 -0.72627237720E+02 -0.24980971174E+02  0.15049964168E+03  0.12508818927E+03 0.  0.
         23    2    1    2    0    0  0.33231347721E+02  0.72627237720E+02 -0.25483995418E+02  0.12422473128E+03  0.91669578974E+02 0.  0.
          5    1    3    3  502    0 -0.18084449447E+02 -0.92770540552E+02 -0.56291531132E+02  0.11008918831E+03  0.41800000000E+01 0. -1.
         -5    1    3    3    0  502 -0.15146898274E+02  0.20143302832E+02  0.31310559958E+02  0.40410453366E+02  0.41800000000E+01 0. -1.
        -11    1    4    4    0    0  0.37115872058E+02  0.81868704034E+02  0.70655094036E+01  0.90166479813E+02  0.00000000000E+00 0.  1.
         11    1    4    4    0    0 -0.38845243362E+01 -0.92414663143E+01 -0.32549504821E+02  0.34058251468E+02  0.00000000000E+00 0. -1.
</event>
<event>
 8    1  0.6901948E-009  0.1863507E+03  0.7561462E-02  0.1161795E+00
         -1   -1    0    0    0  501 -0.00000000000E+00  0.00000000000E+00  0.13541322150E+03  0.13541322150E+03  0.00000000000E+00 0.  1.
          1   -1    0    0  501    0  0.00000000000E+00 -0.00000000000E+00 -0.28216569671E+03  0.28216569671E+03  0.00000000000E+00 0. -1.
         25    2    1    2    0    0 -0.74910721085E+02 -0.13922641677E+03 -0.11709320414E+03  0.23313874160E+03  0.12508894083E+03 0.  0.
         23    2    1    2    0    0  0.74910721085E+02  0.13922641677E+03 -0.29659271078E+02  0.18444017661E+03  0.90237991600E+02 0.  0.
          5    1    3    3  502    0 -0.79093171207E+02 -0.34032226382E+02 -0.89415833502E+02  0.12420380769E+03  0.41800000000E+01 0.  1.
         -5    1    3    3    0  502  0.41824501221E+01 -0.10519419039E+03 -0.27677370636E+02  0.10893493391E+03  0.41800000000E+01 0.  1.
        -11    1    4    4    0    0  0.90916068860E+02  0.84514746160E+02 -0.11737329277E+02  0.12468455716E+03  0.00000000000E+00 0.  1.
         11    1    4    4    0    0 -0.16005347776E+02  0.54711670608E+02 -0.17921941801E+02  0.59755619451E+02  0.00000000000E+00 0. -1.
</event>
<event>
 8    1  0.6901948E-009  0.8172920E+02  0.7561462E-02  0.1324215E+00
          1   -1    0    0  501    0  0.00000000000E+00  0.00000000000E+00  0.10774718207E+03  0.10774718207E+03  0.00000000000E+00 0. -1.
         -1   -1    0    0    0  501 -0.00000000000E+00 -0.00000000000E+00 -0.14234923455E+03  0.14234923455E+03  0.00000000000E+00 0.  1.
         25    2    1    2    0    0  0.40813570442E+02 -0.44335239645E+02 -0.16696520747E+02  0.13984868940E+03  0.12509005203E+03 0.  0.
         23    2    1    2    0    0 -0.40813570442E+02  0.44335239645E+02 -0.17905531737E+02  0.11024772722E+03  0.90568163739E+02 0.  0.
          5    1    3    3  502    0  0.33043636612E+01 -0.11025036001E+02  0.52707547040E+02  0.54111257174E+02  0.41800000000E+01 0. -1.
         -5    1    3    3    0  502  0.37509206781E+02 -0.33310203643E+02 -0.69404067786E+02  0.85737432230E+02  0.41800000000E+01 0. -1.
        -11    1    4    4    0    0  0.17341711447E+02  0.38747883629E+02  0.12677358604E+02  0.44304050185E+02  0.00000000000E+00 0. -1.
         11    1    4    4    0    0 -0.58155281889E+02  0.55873560155E+01 -0.30582890341E+02  0.65943677032E+02  0.00000000000E+00 0.  1.
</event>
<event>
 7    1  0.6901948E-009  0.1074454E+03  0.7561462E-02  0.1265375E+00
          1   -1    0    0  501    0  0.00000000000E+00  0.00000000000E+00  0.88198193498E+03  0.88198193498E+03  0.00000000000E+00 0. -1.
         -1   -1    0    0    0  501 -0.00000000000E+00 -0.00000000000E+00 -0.15145930225E+02  0.15145930225E+02  0.00000000000E+00 0.  1.
         25    2    1    2    0    0  0.40414575056E+02 -0.54095934610E+02  0.67205686175E+03  0.68692651347E+03  0.12509157233E+03 0.  0.
          5    1    3    3  502    0  0.50262837981E+02 -0.88834570751E+02  0.41903134732E+03  0.43130346194E+03  0.41800000000E+01 0. -1.
         -5    1    3    3    0  502 -0.98482629250E+01  0.34738636141E+02  0.25302551443E+03  0.25562305153E+03  0.41800000000E+01 0. -1.
        -11    1    1    2    0    0 -0.32346874873E+02  0.13588545751E+02  0.11684590087E+03  0.12199972721E+03  0.00000000000E+00 0. -1.
         11    1    1    2    0    0 -0.80677001833E+01  0.40507388859E+02  0.77933242133E+02  0.88201624519E+02  0.00000000000E+00 0.  1.
</event>
<event>
 8    1  0.6901948E-009  0.1115106E+03  0.7561462E-02  0.1257798E+00
          1   -1    0    0  501    0  0.00000000000E+00  0.00000000000E+00  0.15394745172E+03  0.15394745172E+03  0.00000000000E+00 0. -1.
         -1   -1    0    0    0  501 -0.00000000000E+00 -0.00000000000E+00 -0.90087136719E+02  0.90087136719E+02  0.00000000000E+00 0.  1.
         25    2    1    2    0    0  0.17295708435E+02 -0.44204436657E+02  0.40201110679E+02  0.13970184735E+03  0.12508918060E+03 0.  0.
         23    2    1    2    0    0 -0.17295708435E+02  0.44204436657E+02  0.23659204319E+02  0.10433274109E+03  0.89846475518E+02 0.  0.
          5    1    3    3  502    0 -0.35523252287E+02 -0.65646380628E+02  0.34262451986E+02  0.82235860539E+02  0.41800000000E+01 0.  1.
         -5    1    3    3    0  502  0.52818960723E+02  0.21441943971E+02  0.59386586930E+01  0.57465986811E+02  0.41800000000E+01 0.  1.
        -11    1    4    4    0    0  0.18345413023E+02  0.51547637883E+02 -0.89837008705E+01  0.55447452887E+02  0.00000000000E+00 0. -1.
         11    1    4    4    0    0 -0.35641121458E+02 -0.73432012261E+01  0.32642905190E+02  0.48885288199E+02  0.00000000000E+00 0.  1.
</event>
<event>
 8    1  0.6901948E-009  0.1276354E+03  0.7561462E-02  0.1231007E+00
          2   -1    0    0  501    0  0.00000000000E+00  0.00000000000E+00  0.85162161527E+02  0.85162161527E+02  0.00000000000E+00 0. -1.
         -2   -1    0    0    0  501 -0.00000000000E+00 -0.00000000000E+00 -0.29314479759E+03  0.29314479759E+03  0.00000000000E+00 0.  1.
         25    2    1    2    0    0  0.45982609825E+02  0.90844213917E+02 -0.17446459308E+03  0.23759588885E+03  0.12508733168E+03 0.  0.
         23    2    1    2    0    0 -0.45982609825E+02 -0.90844213917E+02 -0.33518042976E+02  0.14071107027E+03  0.91154124880E+02 0.  0.
          5    1    3    3  502    0  0.31261873667E+02 -0.20805440136E+02 -0.11564254251E+02  0.39514243771E+02  0.41800000000E+01 0. -1.
         -5    1    3    3    0  502  0.14720736158E+02  0.11164965405E+03 -0.16290033883E+03  0.19808164507E+03  0.41800000000E+01 0. -1.
        -11    1    4    4    0    0 -0.33461183156E+02 -0.38669554107E+02 -0.61673680939E+02  0.80116341115E+02  0.00000000000E+00 0.  1.
         11    1    4    4    0    0 -0.12521426669E+02 -0.52174659810E+02  0.28155637963E+02  0.60594729154E+02  0.00000000000E+00 0. -1.
</event>
<event>
 8    1  0.6901948E-009  0.7517912E+02  0.7561462E-02  0.1343317E+00
         -2   -1    0    0    0  501 -0.00000000000E+00  0.00000000000E+00  0.38190982937E+02  0.38190982937E+02  0.00000000000E+00 0.  1.
          2   -1    0    0  501    0  0.00000000000E+00 -0.00000000000E+00 -0.40167398668E+03  0.40167398668E+03  0.00000000000E+00 0. -1.
         25    2    1    2    0    0  0.58786810120E+02  0.30851141761E+01 -0.22495164383E+03  0.26404282730E+03  0.12509982258E+03 0.  0.
         23    2    1    2    0    0 -0.58786810120E+02 -0.30851141761E+01 -0.13853135992E+03  0.17582214233E+03  0.90868482314E+02 0.  0.
          5    1    3    3  502    0  0.33550972633E+02  0.14676548156E+02  0.48709074836E+00  0.36861612659E+02  0.41800000000E+01 0.  1.
         -5    1    3    3    0  502  0.25235837487E+02 -0.11591433980E+02 -0.22543873458E+03  0.22718121464E+03  0.41800000000E+01 0.  1.
        -11    1    4    4    0    0 -0.56304199070E+02  0.21822525709E+02 -0.13816937515E+03  0.15078846670E+03  0.00000000000E+00 0. -1.
         11    1    4    4    0    0 -0.24826110500E+01 -0.24907639885E+02 -0.36198476801E+00  0.25033675624E+02  0.00000000000E+00 0.  1.
</event>
<event>
 8    1  0.6901948E-009  0.1005553E+03  0.7561462E-02  0.1279133E+00
         -3   -1    0    0    0  501 -0.00000000000E+00  0.00000000000E+00  0.54243809126E+03  0.54243809126E+03  0.00000000000E+00 0.  1.
          3   -1    0    0  501    0  0.00000000000E+00 -0.00000000000E+00 -0.22617302360E+02  0.22617302360E+02  0.00000000000E+00 0. -1.
         25    2    1    2    0    0 -0.19566672730E+02  0.15729828292E+02  0.29246643728E+03  0.31908458774E+03  0.12509226602E+03 0.  0.
         23    2    1    2    0    0  0.19566672730E+02 -0.15729828292E+02  0.22735435162E+03  0.24597080588E+03  0.90450837283E+02 0.  0.
          5    1    3    3  502    0  0.31448373929E+02  0.41111124087E+02  0.22385878647E+03  0.22980285774E+03  0.41800000000E+01 0. -1.
         -5    1    3    3    0  502 -0.51015046659E+02 -0.25381295795E+02  0.68607650811E+02  0.89281729999E+02  0.41800000000E+01 0. -1.
        -11    1    4    4    0    0 -0.27954621296E+02  0.18465547380E+02  0.10717732165E+03  0.11229165405E+03  0.00000000000E+00 0. -1.
         11    1    4    4    0    0  0.47521294026E+02 -0.34195375672E+02  0.12017702997E+03  0.13367915183E+03  0.00000000000E+00 0.  1.
</event>
<event>
 8    1  0.6901948E-009  0.1487989E+03  0.7561462E-02  0.1201957E+00
          4   -1    0    0  501    0  0.00000000000E+00  0.00000000000E+00  0.97626505585E+02  0.97626505585E+02  0.00000000000E+00 0. -1.
         -4   -1    0    0    0  501 -0.00000000000E+00 -0.00000000000E+00 -0.28776955270E+03  0.28776955270E+03  0.00000000000E+00 0.  1.
         25    2    1    2    0    0  0.10460194433E+03 -0.70398344385E+02 -0.12252398850E+03  0.21577111679E+03  0.12509018120E+03 0.  0.
         23    2    1    2    0    0 -0.10460194433E+03  0.70398344385E+02 -0.67619058623E+02  0.16962494150E+03  0.91119646839E+02 0.  0.
          5    1    3    3  502    0  0.48554716276E+02 -0.72626070772E+02 -0.75636894377E+01  0.87788316002E+02  0.41800000000E+01 0.  1.
         -5    1    3    3    0  502  0.56047228056E+02  0.22277263870E+01 -0.11496029906E+03  0.12798280079E+03  0.41800000000E+01 0.  1.
        -11    1    4    4    0    0 -0.12000916888E+03  0.68968459146E+02 -0.67847752223E+02  0.15414981821E+03  0.00000000000E+00 0.  1.
         11    1    4    4    0    0  0.15407224549E+02  0.14298852394E+01  0.22869360028E+00  0.15475123291E+02  0.00000000000E+00 0. -1.
</event>
<event>
 8    1  0.6901948E-009  0.1001372E+03  0.7561462E-02  0.1280008E+00
         -2   -1    0    0    0  501 -0.00000000000E+00  0.00000000000E+00  0.64168433663E+02  0.64168433663E+02  0.00000000000E+00 0.  1.
          2   -1    0    0  501    0  0.00000000000E+00 -0.00000000000E+00 -0.19215824848E+03  0.19215824848E+03  0.00000000000E+00 0. -1.
         25    2    1    2    0    0  0.74816740206E+01  0.11385321345E+02 -0.63181965560E+02  0.14080633639E+03  0.12509541402E+03 0.  0.
         23    2    1    2    0    0 -0.74816740206E+01 -0.11385321345E+02 -0.64807849253E+02  0.11552034574E+03  0.94653536477E+02 0.  0.
          5    1    3    3  502    0  0.53175338061E+02 -0.29239644851E+02 -0.48477790199E+02  0.77782658424E+02  0.41800000000E+01 0. -1.
         -5    1    3    3    0  502 -0.45693664040E+02  0.40624966197E+02 -0.14704175361E+02  0.63023677971E+02  0.41800000000E+01 0. -1.
        -11    1    4    4    0    0 -0.28399047573E+02  0.23916646158E+02  0.19282166885E+01  0.37178352386E+02  0.00000000000E+00 0.  1.
         11    1    4    4    0    0  0.20917373553E+02 -0.35301967504E+02 -0.66736065941E+02  0.78341993358E+02  0.00000000000E+00 0. -1.
</event>
<event>
 8    1  0.6901948E-009  0.1302649E+03  0.7561462E-02  0.1227063E+00
         -2   -1    0    0    0  501 -0.00000000000E+00  0.00000000000E+00  0.32501636141E+02  0.32501636141E+02  0.00000000000E+00 0.  1.
          2   -1    0    0  501    0  0.00000000000E+00 -0.00000000000E+00 -0.63997371404E+03  0.63997371404E+03  0.00000000000E+00 0. -1.
         25    2    1    2    0    0  0.13607789699E+02  0.80257504195E+02 -0.44743059317E+03  0.47166855477E+03  0.12510256167E+03 0.  0.
         23    2    1    2    0    0 -0.13607789699E+02 -0.80257504195E+02 -0.16004148473E+03  0.20080679541E+03  0.89909139290E+02 0.  0.
          5    1    3    3  502    0  0.41204274462E+02 -0.14732405186E+02 -0.20765689736E+03  0.21225855793E+03  0.41800000000E+01 0. -1.
         -5    1    3    3    0  502 -0.27596484763E+02  0.94989909381E+02 -0.23977369581E+03  0.25940999684E+03  0.41800000000E+01 0. -1.
        -11    1    4    4    0    0 -0.47127264407E+02 -0.26092232912E+02 -0.49142631996E+02  0.72916266692E+02  0.00000000000E+00 0.  1.
         11    1    4    4    0    0  0.33519474708E+02 -0.54165271283E+02 -0.11089885274E+03  0.12789052872E+03  0.00000000000E+00 0. -1.
</event>
<event>
 8    1  0.6901948E-009  0.1128872E+03  0.7561462E-02  0.1255315E+00
          1   -1    0    0  501    0  0.00000000000E+00  0.00000000000E+00  0.47304555798E+03  0.47304555798E+03  0.00000000000E+00 0. -1.
         -1   -1    0    0    0  501 -0.00000000000E+00 -0.00000000000E+00 -0.32482206412E+02  0.32482206412E+02  0.00000000000E+00 0.  1.
         25    2    1    2    0    0  0.39826941302E+02  0.37355913884E+02  0.20124340335E+03  0.24315881328E+03  0.12508257884E+03 0.  0.
         23    2    1    2    0    0 -0.39826941302E+02 -0.37355913884E+02  0.23931994822E+03  0.26236895111E+03  0.92637893635E+02 0.  0.
          5    1    3    3  502    0  0.73848669816E+02  0.44857203279E+02  0.18554225208E+03  0.20471735253E+03  0.41800000000E+01 0.  1.
         -5    1    3    3    0  502 -0.34021728515E+02 -0.75012893952E+01  0.15701151279E+02  0.38441460758E+02  0.41800000000E+01 0.  1.
        -11    1    4    4    0    0 -0.61845019797E+02 -0.12113183226E+01  0.17268450489E+03  0.18342903804E+03  0.00000000000E+00 0. -1.
         11    1    4    4    0    0  0.22018078496E+02 -0.36144595561E+02  0.66635443326E+02  0.78939913075E+02  0.00000000000E+00 0.  1.
</event>
<event>
 8    1  0.6901948E-009  0.1207718E+03  0.7561462E-02  0.1241829E+00
          2   -1    0    0  501    0  0.00000000000E+00  0.00000000000E+00  0.27176743431E+03  0.27176743431E+03  0.00000000000E+00 0. -1.
         -2   -1    0    0    0  501 -0.00000000000E+00 -0.00000000000E+00 -0.65980791085E+02  0.65980791085E+02  0.00000000000E+00 0.  1.
         25    2    1    2    0    0 -0.28906959547E+02 -0.71661982287E+02  0.12803063042E+03  0.19496064459E+03  0.12508700412E+03 0.  0.
         23    2    1    2    0    0  0.28906959547E+02  0.71661982287E+02  0.77756012801E+02  0.14278758080E+03  0.91494500859E+02 0.  0.
          5    1    3    3  502    0  0.27789945812E+02 -0.69189314843E+02  0.11411606371E+03  0.13637958342E+03  0.41800000000E+01 0. -1.
         -5    1    3    3    0  502 -0.56696905359E+02 -0.24726674442E+01  0.13914566707E+02  0.58581061174E+02  0.41800000000E+01 0. -1.
        -11    1    4    4    0    0 -0.13032507779E+02  0.66429319835E+02  0.74097282719E+02  0.10036487483E+03  0.00000000000E+00 0. -1.
         11    1    4    4    0    0  0.41939467326E+02  0.52326624519E+01  0.36587300814E+01  0.42422705969E+02  0.00000000000E+00 0.  1.
</event>
<event>
 8    1  0.6901948E-009  0.1484781E+03  0.7561462E-02  0.1202356E+00
         -1   -1    0    0    0  501 -0.00000000000E+00  0.00000000000E+00  0.99732959875E+02  0.99732959875E+02  0.00000000000E+00 0.  1.
          1   -1    0    0  501    0  0.00000000000E+00 -0.00000000000E+00 -0.26968604964E+03  0.26968604964E+03  0.00000000000E+00 0. -1.
         25    2    1    2    0    0 -0.12159242322E+03 -0.15633882639E+02 -0.90951788745E+02  0.19735512640E+03  0.12509069658E+03 0.  0.
         23    2    1    2    0    0  0.12159242322E+03  0.15633882639E+02 -0.79001301016E+02  0.17206388311E+03  0.91299718718E+02 0.  0.
          5    1    3    3  502    0 -0.14654069602E+03 -0.84283741533E+01 -0.87212308573E+02  0.17078838440E+03  0.41800000000E+01 0.  1.
         -5    1    3    3    0  502  0.24948272802E+02 -0.72055084858E+01 -0.37394801718E+01  0.26566741997E+02  0.41800000000E+01 0.  1.
        -11    1    4    4    0    0  0.40603291503E+02  0.13519340989E+02  0.17349761932E+02  0.46178069479E+02  0.00000000000E+00 0.  1.
         11    1    4    4    0    0  0.80989131715E+02  0.21145416505E+01 -0.96351062948E+02  0.12588581363E+03  0.00000000000E+00 0. -1.
</event>
<event>
 8    1  0.6901948E-009  0.1709198E+03  0.7561462E-02  0.1176892E+00
         -2   -1    0    0    0  501 -0.00000000000E+00  0.00000000000E+00  0.10808339677E+03  0.10808339677E+03  0.00000000000E+00 0.  1.
          2   -1    0    0  501    0  0.00000000000E+00 -0.00000000000E+00 -0.33800959658E+03  0.33800959658E+03  0.00000000000E+00 0. -1.
         25    2    1    2    0    0 -0.69414321865E+02 -0.12404594046E+03 -0.19965674824E+03  0.27516894883E+03  0.12509752140E+03 0.  0.
         23    2    1    2    0    0  0.69414321865E+02  0.12404594046E+03 -0.30269451573E+02  0.17092404452E+03  0.89961357667E+02 0.  0.
          5    1    3    3  502    0 -0.20197453360E+02 -0.12298705966E+03 -0.86705029132E+02  0.15188478674E+03  0.41800000000E+01 0.  1.
         -5    1    3    3    0  502 -0.49216868505E+02 -0.10588807953E+01 -0.11295171911E+03  0.12328416209E+03  0.41800000000E+01 0.  1.
        -11    1    4    4    0    0 -0.81047251097E+01  0.76208882216E+02 -0.73262277409E+01  0.76988011473E+02  0.00000000000E+00 0.  1.
         11    1    4    4    0    0  0.77519046975E+02  0.47837058242E+02 -0.22943223832E+02  0.93936033049E+02  0.00000000000E+00 0. -1.
</event>
<event>
 8    1  0.6901948E-009  0.7663521E+02  0.7561462E-02  0.1338881E+00
          1   -1    0    0  501    0  0.00000000000E+00  0.00000000000E+00  0.11640395182E+03  0.11640395182E+03  0.00000000000E+00 0. -1.
         -1   -1    0    0    0  501 -0.00000000000E+00 -0.00000000000E+00 -0.11424294291E+03  0.11424294291E+03  0.00000000000E+00 0.  1.
         25    2    1    2    0    0  0.10059750247E+02  0.25153299713E+02 -0.32567737533E+02  0.13206459859E+03  0.12508602485E+03 0.  0.
         23    2    1    2    0    0 -0.10059750247E+02 -0.25153299713E+02  0.34728746448E+02  0.98582296138E+02  0.88195783462E+02 0.  0.
          5    1    3    3  502    0 -0.31133892524E+02  0.31733979495E+02 -0.65139051543E+02  0.78974256275E+02  0.41800000000E+01 0.  1.
         -5    1    3    3    0  502  0.41193642772E+02 -0.65806797820E+01  0.32571314010E+02  0.53090342319E+02  0.41800000000E+01 0.  1.
        -11    1    4    4    0    0 -0.35147041567E+02 -0.21860312984E+02 -0.13984845506E+02  0.43689400528E+02  0.00000000000E+00 0.  1.
         11    1    4    4    0    0  0.25087291320E+02 -0.32929867296E+01  0.48713591955E+02  0.54892895610E+02  0.00000000000E+00 0. -1.
</event>
<event>
 8    1  0.6901948E-009  0.9364544E+02  0.7561462E-02  0.1294256E+00
          2   -1    0    0  501    0  0.00000000000E+00  0.00000000000E+00  0.24036286773E+03  0.24036286773E+03  0.00000000000E+00 0. -1.
         -2   -1    0    0    0  501 -0.00000000000E+00 -0.00000000000E+00 -0.79827070258E+02  0.79827070258E+02  0.00000000000E+00 0.  1.
         25    2    1    2    0    0 -0.55423349548E+02  0.34559835480E+02  0.15565979764E+03  0.21010604678E+03  0.12509375839E+03 0.  0.
         23    2    1    2    0    0  0.55423349548E+02 -0.34559835480E+02  0.48759998372E+01  0.11008389121E+03  0.88479137802E+02 0.  0.
          5    1    3    3  502    0 -0.59058123483E+02  0.16503248755E+02  0.17353699721E+03  0.18409992115E+03  0.41800000000E+01 0. -1.
         -5    1    3    3    0  502  0.36347739346E+01  0.18056586726E+02 -0.17877199569E+02  0.26006125628E+02  0.41800000000E+01 0. -1.
        -11    1    4    4    0    0  0.61544724949E+01 -0.53724463291E+02  0.15305117684E+02  0.56200018816E+02  0.00000000000E+00 0.  1.
         11    1    4    4    0    0  0.49268877053E+02  0.19164627811E+02 -0.10429117847E+02  0.53883872395E+02  0.00000000000E+00 0. -1.
</event>
<event>
 8    1  0.6901948E-009  0.9491528E+02  0.7561462E-02  0.1291367E+00
         -2   -1    0    0    0  501 -0.00000000000E+00  0.00000000000E+00  0.53049217740E+03  0.53049217740E+03  0.00000000000E+00 0.  1.
          2   -1    0    0  501    0  0.00000000000E+00 -0.00000000000E+00 -0.28599268555E+02  0.28599268555E+02  0.00000000000E+00 0. -1.
         25    2    1    2    0    0 -0.40392899873E+01  0.58357373291E+02  0.30089493363E+03  0.33106992108E+03  0.12509049795E+03 0.  0.
         23    2    1    2    0    0  0.40392899873E+01 -0.58357373291E+02  0.20099797522E+03  0.22802152488E+03  0.90397626547E+02 0.  0.
          5    1    3    3  502    0 -0.16432397612E+02  0.75349410633E+02  0.87949512691E+02  0.11704762516E+03  0.41800000000E+01 0. -1.
         -5    1    3    3    0  502  0.12393107625E+02 -0.16992037342E+02  0.21294542094E+03  0.21402229591E+03  0.41800000000E+01 0. -1.
        -11    1    4    4    0    0 -0.13529185935E+02  0.12336983078E+02  0.10973176020E+03  0.11124881671E+03  0.00000000000E+00 0.  1.
         11    1    4    4    0    0  0.17568475922E+02 -0.70694356369E+02  0.91266215020E+02  0.11677270817E+03  0.00000000000E+00 0. -1.
</event>
<event>
 8    1  0.6901948E-009  0.1037257E+03  0.7561462E-02  0.1272651E+00
         -2   -1    0    0    0  501 -0.00000000000E+00  0.00000000000E+00  0.54834325244E+02  0.54834325244E+02  0.00000000000E+00 0.  1.
          2   -1    0    0  501    0  0.00000000000E+00 -0.00000000000E+00 -0.38990794526E+03  0.38990794526E+03  0.00000000000E+00 0. -1.
         25    2    1    2    0    0  0.34789138374E+02 -0.39088078355E+02 -0.55520615763E+02  0.14652002409E+03  0.12508963453E+03 0.  0.
         23    2    1    2    0    0 -0.34789138374E+02  0.39088078355E+02 -0.27955300425E+03  0.29822224641E+03  0.89713232313E+02 0.  0.
          5    1    3    3  502    0 -0.24607910784E+02 -0.65748721005E+02 -0.27364800456E+02  0.75463556045E+02  0.41800000000E+01 0.  1.
         -5    1    3    3    0  502  0.59397049158E+02  0.26660642650E+02 -0.28155815307E+02  0.71056468043E+02  0.41800000000E+01 0.  1.
        -11    1    4    4    0    0  0.11657314664E+02  0.78957779843E+00  0.57551464657E+00  0.11698189406E+02  0.00000000000E+00 0.  1.
         11    1    4    4    0    0 -0.46446453037E+02  0.38298500557E+02 -0.28012851890E+03  0.28652405701E+03  0.00000000000E+00 0. -1.
</event>
<event>
 8    1  0.6901948E-009  0.3424801E+03  0.7561462E-02  0.1065745E+00
          1   -1    0    0  501    0  0.00000000000E+00  0.00000000000E+00  0.93800973212E+03  0.93800973212E+03  0.00000000000E+00 0. -1.
         -1   -1    0    0    0  501 -0.00000000000E+00 -0.00000000000E+00 -0.13466692807E+03  0.13466692807E+03  0.00000000000E+00 0.  1.
         25    2    1    2    0    0 -0.18053894910E+03 -0.28033331860E+03  0.49428974834E+03  0.60922151910E+03  0.12508965729E+03 0.  0.
         23    2    1    2    0    0  0.18053894910E+03  0.28033331860E+03  0.30905305571E+03  0.46345514110E+03  0.89976635326E+02 0.  0.
          5    1    3    3  502    0 -0.45160506872E+01 -0.97405641803E+02  0.18409170165E+03  0.20836381832E+03  0.41800000000E+01 0.  1.
         -5    1    3    3    0  502 -0.17602289841E+03 -0.18292767680E+03  0.31019804669E+03  0.40085770078E+03  0.41800000000E+01 0.  1.
        -11    1    4    4    0    0  0.96271343309E+02  0.14577261824E+03  0.10115953653E+03  0.20186896642E+03  0.00000000000E+00 0.  1.
         11    1    4    4    0    0  0.84267605790E+02  0.13456070036E+03  0.20789351917E+03  0.26158617468E+03  0.00000000000E+00 0. -1.
</event>
<event>
 8    1  0.6901948E-009  0.1244073E+03  0.7561462E-02  0.1235998E+00
          1   -1    0    0  501    0  0.00000000000E+00  0.00000000000E+00  0.27266143055E+04  0.27266143055E+04  0.00000000000E+00 0. -1.
         -1   -1    0    0    0  501 -0.00000000000E+00 -0.00000000000E+00 -0.18564599079E+02  0.18564599079E+02  0.00000000000E+00 0.  1.
         25    2    1    2    0    0  0.19223236878E+02  0.91796063666E+02  0.24523402193E+04  0.24573188558E+04  0.12508939869E+03 0.  0.
         23    2    1    2    0    0 -0.19223236878E+02 -0.91796063666E+02  0.25570948717E+03  0.28786004884E+03  0.93166602112E+02 0.  0.
          5    1    3    3  502    0  0.68635869550E+02  0.37064647116E+02  0.97022051606E+03  0.97336015577E+03  0.41800000000E+01 0. -1.
         -5    1    3    3    0  502 -0.49412632671E+02  0.54731416549E+02  0.14821197032E+04  0.14839587000E+04  0.41800000000E+01 0. -1.
        -11    1    4    4    0    0  0.57817815568E+01 -0.14841260084E+02 -0.35060021643E+01  0.16309017445E+02  0.00000000000E+00 0.  1.
         11    1    4    4    0    0 -0.25005018435E+02 -0.76954803582E+02  0.25921548933E+03  0.27155103139E+03  0.00000000000E+00 0. -1.
</event>
<event>
 8    1  0.6901948E-009  0.2331983E+03  0.7561462E-02  0.1124409E+00
          2   -1    0    0  501    0  0.00000000000E+00  0.00000000000E+00  0.81555559894E+03  0.81555559894E+03  0.00000000000E+00 0. -1.
         -2   -1    0    0    0  501 -0.00000000000E+00 -0.00000000000E+00 -0.79337373769E+02  0.79337373769E+02  0.00000000000E+00 0.  1.
         25    2    1    2    0    0 -0.22083172858E+03  0.55736866131E+02  0.42937549389E+03  0.50187932721E+03  0.12508514591E+03 0.  0.
         23    2    1    2    0    0  0.22083172858E+03 -0.55736866131E+02  0.30684273128E+03  0.39301364551E+03  0.91836883750E+02 0.  0.
          5    1    3    3  502    0 -0.24377098981E+02  0.27090353580E+02  0.10243083162E+02  0.38085737021E+02  0.41800000000E+01 0.  1.
         -5    1    3    3    0  502 -0.19645462960E+03  0.28646512551E+02  0.41913241073E+03  0.46379359019E+03  0.41800000000E+01 0.  1.
        -11    1    4    4    0    0  0.12727526306E+03 -0.11929731190E+02  0.23389692791E+03  0.26655034038E+03  0.00000000000E+00 0. -1.
         11    1    4    4    0    0  0.93556465520E+02 -0.43807134941E+02  0.72945803377E+02  0.12646330512E+03  0.00000000000E+00 0.  1.
</event>
<event>
 8    1  0.6901948E-009  0.1446882E+03  0.7561462E-02  0.1207156E+00
         -1   -1    0    0    0  501 -0.00000000000E+00  0.00000000000E+00  0.49647534788E+02  0.49647534788E+02  0.00000000000E+00 0.  1.
          1   -1    0    0  501    0  0.00000000000E+00 -0.00000000000E+00 -0.93970566748E+03  0.93970566748E+03  0.00000000000E+00 0. -1.
         25    2    1    2    0    0 -0.62018575973E+02  0.12818459901E+03 -0.73839142600E+03  0.76232650823E+03  0.12506882895E+03 0.  0.
         23    2    1    2    0    0  0.62018575973E+02 -0.12818459901E+03 -0.15166670669E+03  0.22702669403E+03  0.90888583967E+02 0.  0.
          5    1    3    3  502    0 -0.50520465670E+02  0.65835057094E+02 -0.63887699589E+03  0.64425760412E+03  0.41800000000E+01 0. -1.
         -5    1    3    3    0  502 -0.11498110302E+02  0.62349541915E+02 -0.99514430113E+02  0.11806890411E+03  0.41800000000E+01 0. -1.
        -11    1    4    4    0    0  0.54999214761E+02 -0.10512716556E+03 -0.16200232704E+03  0.20080186386E+03  0.00000000000E+00 0. -1.
         11    1    4    4    0    0  0.70193612112E+01 -0.23057433452E+02  0.10335620356E+02  0.26224830169E+02  0.00000000000E+00 0.  1.
</event>
<event>
 8    1  0.6901948E-009  0.1437405E+03  0.7561462E-02  0.1208383E+00
          2   -1    0    0  501    0  0.00000000000E+00  0.00000000000E+00  0.18439118266E+03  0.18439118266E+03  0.00000000000E+00 0. -1.
         -2   -1    0    0    0  501 -0.00000000000E+00 -0.00000000000E+00 -0.15192020711E+03  0.15192020711E+03  0.00000000000E+00 0.  1.
         25    2    1    2    0    0 -0.80594952042E+02 -0.56277961227E+02  0.98322463243E+02  0.18702579895E+03  0.12509431434E+03 0.  0.
         23    2    1    2    0    0  0.80594952042E+02  0.56277961227E+02 -0.65851487694E+02  0.14928559082E+03  0.91033037846E+02 0.  0.
          5    1    3    3  502    0  0.22448339594E+02 -0.47055451836E+02  0.15842346111E+02  0.54649755977E+02  0.41800000000E+01 0. -1.
         -5    1    3    3    0  502 -0.10304329164E+03 -0.92225093909E+01  0.82480117132E+02  0.13237604297E+03  0.41800000000E+01 0. -1.
        -11    1    4    4    0    0  0.32781363236E+01  0.54194412906E+02 -0.13681692932E+02  0.55990796471E+02  0.00000000000E+00 0.  1.
         11    1    4    4    0    0  0.77316815718E+02  0.20835483211E+01 -0.52169794762E+02  0.93294794346E+02  0.00000000000E+00 0. -1.
</event>
<event>
 8    1  0.6901948E-009  0.2681341E+03  0.7561462E-02  0.1102352E+00
         -1   -1    0    0    0  501 -0.00000000000E+00  0.00000000000E+00  0.12986876443E+04  0.12986876443E+04  0.00000000000E+00 0.  1.
          1   -1    0    0  501    0  0.00000000000E+00 -0.00000000000E+00 -0.63102171781E+02  0.63102171781E+02  0.00000000000E+00 0. -1.
         25    2    1    2    0    0  0.14370979854E+02 -0.25559116887E+03  0.80921390540E+03  0.85790936591E+03  0.12509182532E+03 0.  0.
         23    2    1    2    0    0 -0.14370979854E+02  0.25559116887E+03  0.42637156713E+03  0.50388045018E+03  0.81051984228E+02 0.  0.
          5    1    3    3  502    0  0.43791030354E+02 -0.82582729866E+02  0.42961903274E+03  0.43969028566E+03  0.41800000000E+01 0. -1.
         -5    1    3    3    0  502 -0.29420050499E+02 -0.17300843901E+03  0.37959487266E+03  0.41821908026E+03  0.41800000000E+01 0. -1.
        -11    1    4    4    0    0  0.28858167020E+02  0.15512018711E+03  0.27634596713E+03  0.31821715824E+03  0.00000000000E+00 0.  1.
         11    1    4    4    0    0 -0.43229146875E+02  0.10047098177E+03  0.15002560000E+03  0.18566329193E+03  0.00000000000E+00 0. -1.
</event>
<event>
 8    1  0.6901948E-009  0.4022308E+03  0.7561462E-02  0.1043010E+00
         -2   -1    0    0    0  501 -0.00000000000E+00  0.00000000000E+00  0.99519876110E+02  0.99519876110E+02  0.00000000000E+00 0. -1.
          2   -1    0    0  501    0  0.00000000000E+00 -0.00000000000E+00 -0.21446639588E+04  0.21446639588E+04  0.00000000000E+00 0.  1.
         25    2    1    2    0    0  0.35459722657E+03  0.17137564051E+03 -0.50892237668E+03  0.65555891389E+03  0.12508677325E+03 0.  0.
         23    2    1    2    0    0 -0.35459722657E+03 -0.17137564051E+03 -0.15362217060E+04  0.15886249210E+04  0.92968846515E+02 0.  0.
          5    1    3    3  502    0  0.35057373715E+03  0.14311336072E+03 -0.49577235934E+03  0.62385181244E+03  0.41800000000E+01 0. -1.
         -5    1    3    3    0  502  0.40234894182E+01  0.28262279797E+02 -0.13150017336E+02  0.31707101450E+02  0.41800000000E+01 0. -1.
        -11    1    4    4    0    0 -0.93453819889E+02 -0.70141027862E+02 -0.60563550770E+03  0.61680446531E+03  0.00000000000E+00 0.  1.
         11    1    4    4    0    0 -0.26114340668E+03 -0.10123461265E+03 -0.93058619830E+03  0.97182045570E+03  0.00000000000E+00 0. -1.
</event>
<event>
 8    1  0.6901948E-009  0.2330810E+03  0.7561462E-02  0.1124490E+00
         -2   -1    0    0    0  501 -0.00000000000E+00  0.00000000000E+00  0.44314269508E+02  0.44314269508E+02  0.00000000000E+00 0.  1.
          2   -1    0    0  501    0  0.00000000000E+00 -0.00000000000E+00 -0.13435303233E+04  0.13435303233E+04  0.00000000000E+00 0. -1.
         25    2    1    2    0    0  0.21402292579E+03  0.21198403031E+02 -0.55738146047E+03  0.61039023462E+03  0.12508781312E+03 0.  0.
         23    2    1    2    0    0 -0.21402292579E+03 -0.21198403031E+02 -0.74183459329E+03  0.77745435816E+03  0.88665270314E+02 0.  0.
          5    1    3    3  502    0  0.41033720069E+02  0.52757365841E+02 -0.99989349513E+02  0.12034304404E+03  0.41800000000E+01 0.  1.
         -5    1    3    3    0  502  0.17298920572E+03 -0.31558962811E+02 -0.45739211096E+03  0.49004719058E+03  0.41800000000E+01 0.  1.
        -11    1    4    4    0    0 -0.52141234657E+02  0.20676006169E+02 -0.10510499891E+03  0.11913549588E+03  0.00000000000E+00 0.  1.
         11    1    4    4    0    0 -0.16188169113E+03 -0.41874409199E+02 -0.63672959438E+03  0.65831886228E+03  0.00000000000E+00 0. -1.
</event>
<event>
 8    1  0.6901948E-009  0.1080440E+03  0.7561462E-02  0.1264236E+00
         -1   -1    0    0    0  501 -0.00000000000E+00  0.00000000000E+00  0.11166211237E+02  0.11166211237E+02  0.00000000000E+00 0.  1.
          1   -1    0    0  501    0  0.00000000000E+00 -0.00000000000E+00 -0.12883023507E+04  0.12883023507E+04  0.00000000000E+00 0. -1.
         25    2    1    2    0    0 -0.37747827844E+02  0.36998852323E+00 -0.90749086163E+03  0.91684884498E+03  0.12508838957E+03 0.  0.
         23    2    1    2    0    0  0.37747827844E+02 -0.36998852323E+00 -0.36964527780E+03  0.38261971692E+03  0.91297212328E+02 0.  0.
          5    1    3    3  502    0 -0.25382868709E+02  0.55634615216E+02 -0.27174189705E+03  0.27856889892E+03  0.41800000000E+01 0.  1.
         -5    1    3    3    0  502 -0.12364959135E+02 -0.55264626693E+02 -0.63574896458E+03  0.63827994606E+03  0.41800000000E+01 0.  1.
        -11    1    4    4    0    0 -0.26658663791E+02  0.16599449969E+02 -0.97003066153E+02  0.10195989867E+03  0.00000000000E+00 0.  1.
         11    1    4    4    0    0  0.64406491635E+02 -0.16969438492E+02 -0.27264221165E+03  0.28065981825E+03  0.00000000000E+00 0. -1.
</event>
<event>
 8    1  0.6901948E-009  0.1085667E+03  0.7561462E-02  0.1263247E+00
          1   -1    0    0  501    0  0.00000000000E+00  0.00000000000E+00  0.67537924821E+02  0.67537924821E+02  0.00000000000E+00 0. -1.
         -1   -1    0    0    0  501 -0.00000000000E+00 -0.00000000000E+00 -0.20382091811E+03  0.20382091811E+03  0.00000000000E+00 0.  1.
         25    2    1    2    0    0  0.89427866573E+01  0.11618429861E+02 -0.12713236722E+03  0.17895653415E+03  0.12509133054E+03 0.  0.
         23    2    1    2    0    0 -0.89427866573E+01 -0.11618429861E+02 -0.91506260713E+01  0.92402308782E+02  0.90771644059E+02 0.  0.
          5    1    3    3  502    0  0.65401359348E+02  0.19563975189E+02 -0.62232936457E+02  0.92468901312E+02  0.41800000000E+01 0. -1.
         -5    1    3    3    0  502 -0.56458572691E+02 -0.79455453277E+01 -0.64899430766E+02  0.86487632842E+02  0.41800000000E+01 0. -1.
        -11    1    4    4    0    0  0.14639790613E+02  0.35764930864E+02  0.25225920830E+00  0.38646052626E+02  0.00000000000E+00 0.  1.
         11    1    4    4    0    0 -0.23582577270E+02 -0.47383360725E+02 -0.94028852796E+01  0.53756256156E+02  0.00000000000E+00 0. -1.
</event>
<event>
 8    1  0.6901948E-009  0.9373719E+02  0.7561462E-02  0.1294046E+00
         -1   -1    0    0    0  501 -0.00000000000E+00  0.00000000000E+00  0.13150754854E+03  0.13150754854E+03  0.00000000000E+00 0.  1.
          1   -1    0    0  501    0  0.00000000000E+00 -0.00000000000E+00 -0.15800641639E+03  0.15800641639E+03  0.00000000000E+00 0. -1.
         25    2    1    2    0    0 -0.12417280454E+02 -0.34940173963E+02 -0.10049191357E+03  0.16468404114E+03  0.12508878489E+03 0.  0.
         23    2    1    2    0    0  0.12417280454E+02  0.34940173963E+02  0.73993045714E+02  0.12482992379E+03  0.93448030739E+02 0.  0.
          5    1    3    3  502    0  0.45118384905E+02 -0.21807093269E+02 -0.92092795021E+02  0.10492746670E+03  0.41800000000E+01 0.  1.
         -5    1    3    3    0  502 -0.57535665359E+02 -0.13133080694E+02 -0.83991185464E+01  0.59756574443E+02  0.41800000000E+01 0.  1.
        -11    1    4    4    0    0 -0.28482782550E+02  0.18387268193E+02 -0.50789193286E+01  0.34280547763E+02  0.00000000000E+00 0. -1.
         11    1    4    4    0    0  0.40900063004E+02  0.16552905770E+02  0.79071965043E+02  0.90549376027E+02  0.00000000000E+00 0.  1.
</event>
<event>
 8    1  0.6901948E-009  0.1062238E+03  0.7561462E-02  0.1267727E+00
          4   -1    0    0  501    0  0.00000000000E+00  0.00000000000E+00  0.15341069731E+03  0.15341069731E+03  0.00000000000E+00 0. -1.
         -4   -1    0    0    0  501 -0.00000000000E+00 -0.00000000000E+00 -0.14683268413E+03  0.14683268413E+03  0.00000000000E+00 0.  1.
         25    2    1    2    0    0  0.55039520065E+02  0.49320433278E+02 -0.68506915735E+02  0.16064510482E+03  0.12510714725E+03 0.  0.
         23    2    1    2    0    0 -0.55039520065E+02 -0.49320433278E+02  0.75084928916E+02  0.13959827662E+03  0.91586453016E+02 0.  0.
          5    1    3    3  502    0  0.91836712531E+02  0.31892090667E+02 -0.69706349452E+02  0.11969768072E+03  0.41800000000E+01 0. -1.
         -5    1    3    3    0  502 -0.36797192466E+02  0.17428342611E+02  0.11994337169E+01  0.40947424104E+02  0.41800000000E+01 0. -1.
        -11    1    4    4    0    0 -0.33943390271E+02 -0.34720460175E+02 -0.10987683748E+02  0.49783464042E+02  0.00000000000E+00 0.  1.
         11    1    4    4    0    0 -0.21096129794E+02 -0.14599973103E+02  0.86072612664E+02  0.89814812574E+02  0.00000000000E+00 0. -1.
</event>
<event>
 8    1  0.6901948E-009  0.8116118E+02  0.7561462E-02  0.1325788E+00
         -1   -1    0    0    0  501 -0.00000000000E+00  0.00000000000E+00  0.61621747205E+03  0.61621747205E+03  0.00000000000E+00 0.  1.
          1   -1    0    0  501    0  0.00000000000E+00 -0.00000000000E+00 -0.26599170742E+02  0.26599170742E+02  0.00000000000E+00 0. -1.
         25    2    1    2    0    0 -0.13019888689E+02  0.47607774866E+02  0.44272585794E+03  0.46269776059E+03  0.12508802752E+03 0.  0.
         23    2    1    2    0    0  0.13019888689E+02 -0.47607774866E+02  0.14689244336E+03  0.18011888220E+03  0.91811786174E+02 0.  0.
          5    1    3    3  502    0 -0.28386310255E+02 -0.19039189772E+02  0.34440228988E+02  0.48701900679E+02  0.41800000000E+01 0.  1.
         -5    1    3    3    0  502  0.15366421565E+02  0.66646964638E+02  0.40828562896E+03  0.41399585991E+03  0.41800000000E+01 0.  1.
        -11    1    4    4    0    0  0.21218818502E+02 -0.15634211496E+02 -0.30992771660E+01  0.26538130052E+02  0.00000000000E+00 0. -1.
         11    1    4    4    0    0 -0.81989298125E+01 -0.31973563370E+02  0.14999172053E+03  0.15358075215E+03  0.00000000000E+00 0.  1.
</event>
<event>
 8    1  0.6901948E-009  0.1023801E+03  0.7561462E-02  0.1275369E+00
         -1   -1    0    0    0  501 -0.00000000000E+00  0.00000000000E+00  0.22742614260E+03  0.22742614260E+03  0.00000000000E+00 0.  1.
          1   -1    0    0  501    0  0.00000000000E+00 -0.00000000000E+00 -0.82163098512E+02  0.82163098512E+02  0.00000000000E+00 0. -1.
         25    2    1    2    0    0 -0.14015842573E+01 -0.64075806016E+01  0.17288325401E+03  0.21349253642E+03  0.12508965610E+03 0.  0.
         23    2    1    2    0    0  0.14015842573E+01  0.64075806016E+01 -0.27620209922E+02  0.96096704692E+02  0.91807838058E+02 0.  0.
          5    1    3    3  502    0  0.46303653379E+02 -0.43819936864E+02  0.99048425600E+02  0.11786550894E+03  0.41800000000E+01 0. -1.
         -5    1    3    3    0  502 -0.47705237636E+02  0.37412356262E+02  0.73834828412E+02  0.95627027485E+02  0.41800000000E+01 0. -1.
        -11    1    4    4    0    0 -0.16872623951E+02  0.39135778648E+02 -0.38109937932E+02  0.57172213343E+02  0.00000000000E+00 0. -1.
         11    1    4    4    0    0  0.18274208208E+02 -0.32728198047E+02  0.10489728010E+02  0.38924491348E+02  0.00000000000E+00 0.  1.
</event>
<event>
 8    1  0.6901948E-009  0.1023957E+03  0.7561462E-02  0.1275337E+00
          3   -1    0    0  501    0  0.00000000000E+00  0.00000000000E+00  0.31238196278E+03  0.31238196278E+03  0.00000000000E+00 0. -1.
         -3   -1    0    0    0  501 -0.00000000000E+00 -0.00000000000E+00 -0.50137064297E+02  0.50137064297E+02  0.00000000000E+00 0.  1.
         25    2    1    2    0    0  0.13332254509E+02  0.95713802788E+01  0.23427233720E+03  0.26608333660E+03  0.12508978259E+03 0.  0.
         23    2    1    2    0    0 -0.13332254509E+02 -0.95713802788E+01  0.27972561287E+02  0.96435690483E+02  0.90818598774E+02 0.  0.
          5    1    3    3  502    0 -0.15091942204E+02  0.59447918707E+02  0.76506836374E+02  0.98145759817E+02  0.41800000000E+01 0.  1.
         -5    1    3    3    0  502  0.28424196713E+02 -0.49876538428E+02  0.15776550083E+03  0.16793757678E+03  0.41800000000E+01 0.  1.
        -11    1    4    4    0    0 -0.14290039241E+02 -0.46586311763E+02  0.33309786498E+02  0.59025685440E+02  0.00000000000E+00 0. -1.
         11    1    4    4    0    0  0.95778473157E+00  0.37014931484E+02 -0.53372252108E+01  0.37410005043E+02  0.00000000000E+00 0.  1.
</event>
