<event>
 7    1  0.5928109E-006  0.1851888E+03  0.7546771E-02  0.1168081E+00
         -1   -1    0    0    0  501 -0.00000000000E+00  0.00000000000E+00  0.29565846647E+03  0.29565846647E+03  0.00000000000E+00 0.  1.
          1   -1    0    0  501    0  0.00000000000E+00 -0.00000000000E+00 -0.15790464278E+03  0.15790464278E+03  0.00000000000E+00 0. -1.
         23    2    1    2    0    0 -0.13117976168E+03  0.38234148731E+02 -0.61694929512E+02  0.19519521390E+03  0.12499970879E+03 0.  0.
          5    1    3    3  502    0 -0.25098926969E+02  0.63175979198E+02 -0.51950211369E+02  0.85685908666E+02  0.47000000000E+01 0.  1.
         -5    1    3    3    0  502 -0.10608083472E+03 -0.24941830468E+02 -0.97447181433E+01  0.10950930523E+03  0.47000000000E+01 0.  1.
        -11    1    1    2    0    0  0.13648094310E+03 -0.13621914596E+02  0.18127342949E+03  0.22731621285E+03  0.00000000000E+00 0.  1.
         11    1    1    2    0    0 -0.53011814184E+01 -0.24612234135E+02  0.18175323715E+02  0.31051682494E+02  0.00000000000E+00 0. -1.
<mgrwt>
<rscale>  0 0.17971305E+03</rscale>
<asrwt>0</asrwt>
<pdfrwt beam="2">  1        1 0.24293022E-01 0.18518884E+03</pdfrwt>
<pdfrwt beam="1">  1       -1 0.45485918E-01 0.18518884E+03</pdfrwt>
<totfact> 0.96719761E+02</totfact>
</mgrwt>
</event>
<event>
 7    1  0.5928109E-006  0.2488932E+03  0.7546771E-02  0.1116610E+00
          1   -1    0    0  501    0  0.00000000000E+00  0.00000000000E+00  0.11356783087E+04  0.11356783087E+04  0.00000000000E+00 0. -1.
         -1   -1    0    0    0  501 -0.00000000000E+00 -0.00000000000E+00 -0.11682088353E+03  0.11682088353E+03  0.00000000000E+00 0.  1.
         23    2    1    2    0    0  0.18300975893E+03 -0.11339661544E+03  0.98623528422E+03  0.10171567532E+04  0.12488578945E+03 0.  0.
          5    1    3    3  502    0  0.13330531569E+03 -0.13897591454E+03  0.74797461989E+03  0.77238121029E+03  0.47000000000E+01 0.  1.
         -5    1    3    3    0  502  0.49704443245E+02  0.25579299098E+02  0.23826066433E+03  0.24477554288E+03  0.47000000000E+01 0.  1.
        -11    1    1    2    0    0 -0.95702881495E+02  0.30364448826E+02 -0.22423558812E+02  0.10287787551E+03  0.00000000000E+00 0.  1.
         11    1    1    2    0    0 -0.87306877436E+02  0.83032166616E+02  0.55045699794E+02  0.13246456359E+03  0.00000000000E+00 0. -1.
<mgrwt>
<rscale>  0 0.24483957E+03</rscale>
<asrwt>0</asrwt>
<pdfrwt beam="1">  1        1 0.17471973E+00 0.24889320E+03</pdfrwt>
<pdfrwt beam="2">  1       -1 0.17972444E-01 0.24889320E+03</pdfrwt>
<totfact> 0.30837665E+02</totfact>
</mgrwt>
</event>
<event>
 6    1  0.5928109E-006  0.1724132E+03  0.7546771E-02  0.1188988E+00
          2   -1    0    0  501    0  0.00000000000E+00  0.00000000000E+00  0.57684204345E+03  0.57684204345E+03  0.00000000000E+00 0. -1.
         -2   -1    0    0    0  501 -0.00000000000E+00 -0.00000000000E+00 -0.49121527841E+02  0.49121527841E+02  0.00000000000E+00 0.  1.
          5    1    1    2  502    0 -0.36526240986E+02  0.21879404041E+01  0.37196830811E+03  0.37379334612E+03  0.47000000000E+01 0. -1.
         -5    1    1    2    0  502 -0.14876730053E+02  0.68926612685E+02  0.65228602432E+02  0.96172010526E+02  0.47000000000E+01 0.  1.
        -11    1    1    2    0    0  0.98718535823E+01  0.21167819050E+02  0.30226807499E+02  0.38199344865E+02  0.00000000000E+00 0. -1.
         11    1    1    2    0    0  0.41531117456E+02 -0.92282372140E+02  0.60296797568E+02  0.11779886978E+03  0.00000000000E+00 0.  1.
<mgrwt>
<rscale>  0 0.15974190E+03</rscale>
<asrwt>0</asrwt>
<pdfrwt beam="1">  1        2 0.88744925E-01 0.17241316E+03</pdfrwt>
<pdfrwt beam="2">  1       -2 0.75571586E-02 0.17241316E+03</pdfrwt>
<totfact> 0.53344392E+03</totfact>
</mgrwt>
</event>
<event>
 7    1  0.5928109E-006  0.1773341E+03  0.7546771E-02  0.1176245E+00
          1   -1    0    0  501    0  0.00000000000E+00  0.00000000000E+00  0.21351764527E+02  0.21351764527E+02  0.00000000000E+00 0. -1.
         -1   -1    0    0    0  501 -0.00000000000E+00 -0.00000000000E+00 -0.13347786082E+04  0.13347786082E+04  0.00000000000E+00 0.  1.
         23    2    1    2    0    0  0.70629592082E+02 -0.10409885817E+03 -0.58279290709E+03  0.60917564713E+03  0.12498913935E+03 0.  0.
          5    1    3    3  502    0  0.89763132619E+02 -0.10555592311E+03 -0.56750614025E+03  0.58419584225E+03  0.47000000000E+01 0. -1.
         -5    1    3    3    0  502 -0.19133540537E+02  0.14570649328E+01 -0.15286766844E+02  0.24979804887E+02  0.47000000000E+01 0. -1.
        -11    1    1    2    0    0 -0.88801193596E+02  0.70057129759E+02 -0.60665500437E+03  0.61710934829E+03  0.00000000000E+00 0.  1.
         11    1    1    2    0    0  0.18171601514E+02  0.34041728414E+02 -0.12397893219E+03  0.12984537728E+03  0.00000000000E+00 0. -1.
<mgrwt>
<rscale>  0 0.17154620E+03</rscale>
<asrwt>0</asrwt>
<pdfrwt beam="1">  1        1 0.32848872E-02 0.17733414E+03</pdfrwt>
<pdfrwt beam="2">  1       -1 0.20535054E+00 0.17733414E+03</pdfrwt>
<totfact> 0.46022913E+02</totfact>
</mgrwt>
</event>
<event>
 7    1  0.5928109E-006  0.1563888E+03  0.7546771E-02  0.1200872E+00
         -2   -1    0    0    0  501 -0.00000000000E+00  0.00000000000E+00  0.10807369092E+03  0.10807369092E+03  0.00000000000E+00 0.  1.
          2   -1    0    0  501    0  0.00000000000E+00 -0.00000000000E+00 -0.20807612396E+03  0.20807612396E+03  0.00000000000E+00 0. -1.
         23    2    1    2    0    0  0.81980017559E+02  0.45949843206E+02 -0.98694331063E+02  0.18492707894E+03  0.12500136867E+03 0.  0.
          5    1    3    3  502    0  0.74394019924E+01  0.43318816280E+01  0.29358274032E+02  0.30953322189E+02  0.47000000000E+01 0.  1.
         -5    1    3    3    0  502  0.74540615567E+02  0.41617961578E+02 -0.12805260509E+03  0.15397375675E+03  0.47000000000E+01 0.  1.
        -11    1    1    2    0    0 -0.20448106286E+02 -0.53992706977E+02 -0.27397861537E+02  0.63906026901E+02  0.00000000000E+00 0. -1.
         11    1    1    2    0    0 -0.61531911273E+02  0.80428637712E+01  0.26089759568E+02  0.67316709047E+02  0.00000000000E+00 0.  1.
<mgrwt>
<rscale>  0 0.14967563E+03</rscale>
<asrwt>0</asrwt>
<pdfrwt beam="2">  1        2 0.32011711E-01 0.15638879E+03</pdfrwt>
<pdfrwt beam="1">  1       -2 0.16626722E-01 0.15638879E+03</pdfrwt>
<totfact> 0.45417133E+03</totfact>
</mgrwt>
</event>
<event>
 6    1  0.5928109E-006  0.2803972E+03  0.7546771E-02  0.1117932E+00
          2   -1    0    0  501    0  0.00000000000E+00  0.00000000000E+00  0.17612223741E+04  0.17612223741E+04  0.00000000000E+00 0. -1.
         -2   -1    0    0    0  501 -0.00000000000E+00 -0.00000000000E+00 -0.14377537127E+03  0.14377537127E+03  0.00000000000E+00 0.  1.
          5    1    1    2  502    0  0.45171001253E+02 -0.17932228886E+03  0.15419953599E+04  0.15530514101E+04  0.47000000000E+01 0. -1.
         -5    1    1    2    0  502  0.31198870409E+01  0.62674969506E+02  0.16078228241E+03  0.17265838478E+03  0.47000000000E+01 0.  1.
        -11    1    1    2    0    0  0.22998917988E+01  0.74479939470E+02 -0.85518015855E+02  0.11342787101E+03  0.00000000000E+00 0.  1.
         11    1    1    2    0    0 -0.50590780093E+02  0.42167379884E+02  0.18737641752E+00  0.65860079461E+02  0.00000000000E+00 0. -1.
<mgrwt>
<rscale>  0 0.24281423E+03</rscale>
<asrwt>0</asrwt>
<pdfrwt beam="1">  1        2 0.27095727E+00 0.28039721E+03</pdfrwt>
<pdfrwt beam="2">  1       -2 0.22119289E-01 0.28039721E+03</pdfrwt>
<totfact> 0.17600419E+02</totfact>
</mgrwt>
</event>
<event>
 7    1  0.5928109E-006  0.1354361E+03  0.7546771E-02  0.1228306E+00
          1   -1    0    0  501    0  0.00000000000E+00  0.00000000000E+00  0.49943586402E+03  0.49943586402E+03  0.00000000000E+00 0. -1.
         -1   -1    0    0    0  501 -0.00000000000E+00 -0.00000000000E+00 -0.31039581545E+02  0.31039581545E+02  0.00000000000E+00 0.  1.
         23    2    1    2    0    0 -0.37803574203E+02 -0.36036934238E+02  0.27395421105E+03  0.30560408077E+03  0.12496068813E+03 0.  0.
          5    1    3    3  502    0 -0.73312286179E+02 -0.28631747496E+02  0.97458640851E+02  0.12535846579E+03  0.47000000000E+01 0.  1.
         -5    1    3    3    0  502  0.35508711976E+02 -0.74051867420E+01  0.17649557020E+03  0.18024561497E+03  0.47000000000E+01 0.  1.
        -11    1    1    2    0    0 -0.22185428607E+01  0.50159054907E+02  0.16687276245E+03  0.17426236418E+03  0.00000000000E+00 0. -1.
         11    1    1    2    0    0  0.40022117064E+02 -0.14122120669E+02  0.27569308976E+02  0.50609000621E+02  0.00000000000E+00 0.  1.
<mgrwt>
<rscale>  0 0.12942844E+03</rscale>
<asrwt>0</asrwt>
<pdfrwt beam="1">  1        1 0.76836281E-01 0.13543613E+03</pdfrwt>
<pdfrwt beam="2">  1       -1 0.47753206E-02 0.13543613E+03</pdfrwt>
<totfact> 0.81504058E+03</totfact>
</mgrwt>
</event>
<event>
 7    1  0.5928109E-006  0.1214504E+03  0.7546771E-02  0.1256447E+00
          1   -1    0    0  501    0  0.00000000000E+00  0.00000000000E+00  0.79772266320E+03  0.79772266320E+03  0.00000000000E+00 0. -1.
         -1   -1    0    0    0  501 -0.00000000000E+00 -0.00000000000E+00 -0.48965199437E+02  0.48965199437E+02  0.00000000000E+00 0.  1.
         23    2    1    2    0    0 -0.10140056444E+02 -0.46459073373E+01  0.74824977533E+03  0.75804215978E+03  0.12093710978E+03 0.  0.
          5    1    3    3  502    0 -0.43233554260E+02 -0.84524079702E+01  0.68474723175E+03  0.68617887231E+03  0.47000000000E+01 0. -1.
         -5    1    3    3    0  502  0.33093497816E+02  0.38065006329E+01  0.63502543580E+02  0.71863287469E+02  0.47000000000E+01 0.  1.
        -11    1    1    2    0    0  0.46170113107E+02 -0.11408609122E+02  0.87284840172E+01  0.48353098553E+02  0.00000000000E+00 0.  1.
         11    1    1    2    0    0 -0.36030056663E+02  0.16054516459E+02 -0.82207955822E+01  0.40292604308E+02  0.00000000000E+00 0. -1.
<mgrwt>
<rscale>  0 0.11225656E+03</rscale>
<asrwt>0</asrwt>
<pdfrwt beam="1">  1        1 0.12272655E+00 0.12145036E+03</pdfrwt>
<pdfrwt beam="2">  1       -1 0.75331082E-02 0.12145036E+03</pdfrwt>
<totfact> 0.21511333E+03</totfact>
</mgrwt>
</event>
<event>
 7    1  0.5928109E-006  0.1407412E+03  0.7546771E-02  0.1223627E+00
          1   -1    0    0  501    0  0.00000000000E+00  0.00000000000E+00  0.80347398205E+03  0.80347398205E+03  0.00000000000E+00 0. -1.
         -1   -1    0    0    0  501 -0.00000000000E+00 -0.00000000000E+00 -0.25720699579E+02  0.25720699579E+02  0.00000000000E+00 0.  1.
         23    2    1    2    0    0  0.41738814467E+02 -0.49397259715E+02  0.62350432631E+03  0.63919145516E+03  0.12500341403E+03 0.  0.
          5    1    3    3  502    0  0.13070179210E+02 -0.54608659874E+02  0.99426880720E+02  0.11428355056E+03  0.47000000000E+01 0. -1.
         -5    1    3    3    0  502  0.28668635256E+02  0.52114001592E+01  0.52407744559E+03  0.52490790460E+03  0.47000000000E+01 0. -1.
        -11    1    1    2    0    0 -0.69220808031E+02  0.35462861286E+02  0.91440501869E+02  0.12004374277E+03  0.00000000000E+00 0. -1.
         11    1    1    2    0    0  0.27481993564E+02  0.13934398429E+02  0.62808454299E+02  0.69959483712E+02  0.00000000000E+00 0.  1.
<mgrwt>
<rscale>  0 0.13261462E+03</rscale>
<asrwt>0</asrwt>
<pdfrwt beam="1">  1        1 0.12361136E+00 0.14074115E+03</pdfrwt>
<pdfrwt beam="2">  1       -1 0.39570313E-02 0.14074115E+03</pdfrwt>
<totfact> 0.55587063E+03</totfact>
</mgrwt>
</event>
<event>
 7    1  0.5928109E-006  0.1277821E+03  0.7546771E-02  0.1242948E+00
          1   -1    0    0  501    0  0.00000000000E+00  0.00000000000E+00  0.35455518534E+03  0.35455518534E+03  0.00000000000E+00 0. -1.
         -1   -1    0    0    0  501 -0.00000000000E+00 -0.00000000000E+00 -0.38631297474E+02  0.38631297474E+02  0.00000000000E+00 0.  1.
         23    2    1    2    0    0 -0.40850314859E+01 -0.26216418382E+02  0.22241641084E+03  0.25650987270E+03  0.12499706759E+03 0.  0.
          5    1    3    3  502    0  0.34005123857E+02 -0.36195288621E+00  0.55680375149E+01  0.34778908841E+02  0.47000000000E+01 0. -1.
         -5    1    3    3    0  502 -0.38090155343E+02 -0.25854465495E+02  0.21684837333E+03  0.22173096386E+03  0.47000000000E+01 0. -1.
        -11    1    1    2    0    0 -0.27645188939E+02 -0.16887137906E+02  0.43477955427E+01  0.32685397721E+02  0.00000000000E+00 0.  1.
         11    1    1    2    0    0  0.31730220425E+02  0.43103556287E+02  0.89159681483E+02  0.10399121239E+03  0.00000000000E+00 0. -1.
<mgrwt>
<rscale>  0 0.12009046E+03</rscale>
<asrwt>0</asrwt>
<pdfrwt beam="1">  1        1 0.54546950E-01 0.12778206E+03</pdfrwt>
<pdfrwt beam="2">  1       -1 0.59432768E-02 0.12778206E+03</pdfrwt>
<totfact> 0.90687883E+03</totfact>
</mgrwt>
</event>
<event>
 7    1  0.5928109E-006  0.1487953E+03  0.7546771E-02  0.1210829E+00
          2   -1    0    0  501    0  0.00000000000E+00  0.00000000000E+00  0.74397388764E+03  0.74397388764E+03  0.00000000000E+00 0.  1.
         -2   -1    0    0    0  501 -0.00000000000E+00 -0.00000000000E+00 -0.27855107595E+02  0.27855107595E+02  0.00000000000E+00 0. -1.
         23    2    1    2    0    0 -0.42624075144E+02 -0.68541171537E+02  0.51522662234E+03  0.53628211993E+03  0.12500134320E+03 0.  0.
          5    1    3    3  502    0 -0.36392889535E+02 -0.92630584221E+02  0.49178139889E+03  0.50177275916E+03  0.47000000000E+01 0. -1.
         -5    1    3    3    0  502 -0.62311856084E+01  0.24089412684E+02  0.23445223456E+02  0.34509360766E+02  0.47000000000E+01 0. -1.
        -11    1    1    2    0    0 -0.72609886516E+01  0.67959812417E+02  0.14697943730E+03  0.16209322333E+03  0.00000000000E+00 0.  1.
         11    1    1    2    0    0  0.49885063795E+02  0.58135912058E+00  0.53912720395E+02  0.73453651976E+02  0.00000000000E+00 0. -1.
<mgrwt>
<rscale>  0 0.14187394E+03</rscale>
<asrwt>0</asrwt>
<pdfrwt beam="1">  1        2 0.11445751E+00 0.14879529E+03</pdfrwt>
<pdfrwt beam="2">  1       -2 0.42854017E-02 0.14879529E+03</pdfrwt>
<totfact> 0.92954794E+03</totfact>
</mgrwt>
</event>
<event>
 7    1  0.5928109E-006  0.1308470E+03  0.7546771E-02  0.1239571E+00
         -1   -1    0    0    0  501 -0.00000000000E+00  0.00000000000E+00  0.20650746356E+02  0.20650746356E+02  0.00000000000E+00 0.  1.
          1   -1    0    0  501    0  0.00000000000E+00 -0.00000000000E+00 -0.67762311249E+03  0.67762311249E+03  0.00000000000E+00 0. -1.
         23    2    1    2    0    0 -0.84023292259E+00  0.38675283954E+02 -0.45042060760E+03  0.46904120704E+03  0.12499778628E+03 0.  0.
          5    1    3    3  502    0  0.37794637600E+02 -0.31881675724E+02 -0.19403279136E+03  0.20028901617E+03  0.47000000000E+01 0.  1.
         -5    1    3    3    0  502 -0.38634870522E+02  0.70556959678E+02 -0.25638781625E+03  0.26875219087E+03  0.47000000000E+01 0.  1.
        -11    1    1    2    0    0  0.27004969973E+01 -0.67381238880E+02 -0.11550340572E+03  0.13374812436E+03  0.00000000000E+00 0.  1.
         11    1    1    2    0    0 -0.18602640747E+01  0.28705954925E+02 -0.91048352809E+02  0.95484527437E+02  0.00000000000E+00 0. -1.
<mgrwt>
<rscale>  0 0.12216287E+03</rscale>
<asrwt>0</asrwt>
<pdfrwt beam="2">  1        1 0.10424973E+00 0.13084697E+03</pdfrwt>
<pdfrwt beam="1">  1       -1 0.31770374E-02 0.13084697E+03</pdfrwt>
<totfact> 0.97862483E+03</totfact>
</mgrwt>
</event>
<event>
 7    1  0.5928109E-006  0.1686157E+03  0.7546771E-02  0.1185945E+00
          2   -1    0    0  501    0  0.00000000000E+00  0.00000000000E+00  0.20988899942E+03  0.20988899942E+03  0.00000000000E+00 0. -1.
         -2   -1    0    0    0  501 -0.00000000000E+00 -0.00000000000E+00 -0.12463501155E+03  0.12463501155E+03  0.00000000000E+00 0.  1.
         23    2    1    2    0    0  0.10617629488E+03 -0.39154623076E+02  0.85836270287E+02  0.18920657668E+03  0.12499909303E+03 0.  0.
          5    1    3    3  502    0 -0.18234300948E+02 -0.39856486764E+02  0.20793240807E+02  0.48738877003E+02  0.47000000000E+01 0. -1.
         -5    1    3    3    0  502  0.12441059583E+03  0.70186368764E+00  0.65043029480E+02  0.14046769967E+03  0.47000000000E+01 0. -1.
        -11    1    1    2    0    0 -0.12771935693E+02  0.33922690638E+01 -0.36678588118E+02  0.38986518915E+02  0.00000000000E+00 0.  1.
         11    1    1    2    0    0 -0.93404359189E+02  0.35762354012E+02  0.36096305703E+02  0.10633091538E+03  0.00000000000E+00 0. -1.
<mgrwt>
<rscale>  0 0.16246212E+03</rscale>
<asrwt>0</asrwt>
<pdfrwt beam="1">  1        2 0.32290615E-01 0.16861573E+03</pdfrwt>
<pdfrwt beam="2">  1       -2 0.19174617E-01 0.16861573E+03</pdfrwt>
<totfact> 0.35575245E+03</totfact>
</mgrwt>
</event>
<event>
 7    1  0.5928109E-006  0.1282368E+03  0.7546771E-02  0.1244786E+00
          1   -1    0    0  501    0  0.00000000000E+00  0.00000000000E+00  0.14993060628E+03  0.14993060628E+03  0.00000000000E+00 0. -1.
         -1   -1    0    0    0  501 -0.00000000000E+00 -0.00000000000E+00 -0.83122615696E+02  0.83122615696E+02  0.00000000000E+00 0.  1.
         23    2    1    2    0    0  0.27914471464E+02 -0.62609821802E+01  0.38651901872E+02  0.13393524600E+03  0.12500505185E+03 0.  0.
          5    1    3    3  502    0 -0.23535924403E+02  0.44611309169E+02  0.34539279063E+02  0.61311992640E+02  0.47000000000E+01 0. -1.
         -5    1    3    3    0  502  0.51450395868E+02 -0.50872291349E+02  0.41126228090E+01  0.72623253359E+02  0.47000000000E+01 0. -1.
        -11    1    1    2    0    0 -0.33076488197E+02  0.41238207711E+02 -0.16269053477E+01  0.52889419241E+02  0.00000000000E+00 0.  1.
         11    1    1    2    0    0  0.51620167329E+01 -0.34977225531E+02  0.29782994055E+02  0.46228556731E+02  0.00000000000E+00 0. -1.
<mgrwt>
<rscale>  0 0.11898170E+03</rscale>
<asrwt>0</asrwt>
<pdfrwt beam="1">  1        1 0.23066247E-01 0.12823681E+03</pdfrwt>
<pdfrwt beam="2">  1       -1 0.12788095E-01 0.12823681E+03</pdfrwt>
<totfact> 0.82723118E+03</totfact>
</mgrwt>
</event>
<event>
 7    1  0.5928109E-006  0.1250246E+03  0.7546771E-02  0.1256369E+00
         -2   -1    0    0    0  501 -0.00000000000E+00  0.00000000000E+00  0.17241622814E+02  0.17241622814E+02  0.00000000000E+00 0. -1.
          2   -1    0    0  501    0  0.00000000000E+00 -0.00000000000E+00 -0.73690720862E+03  0.73690720862E+03  0.00000000000E+00 0.  1.
         23    2    1    2    0    0 -0.75517461548E-01  0.24567438691E+01 -0.57237136602E+03  0.58586700010E+03  0.12500047951E+03 0.  0.
          5    1    3    3  502    0 -0.19184922406E+02 -0.11588776966E+02 -0.55644393255E+03  0.55691498550E+03  0.47000000000E+01 0.  1.
         -5    1    3    3    0  502  0.19109404944E+02  0.14045520835E+02 -0.15927433470E+02  0.28952014607E+02  0.47000000000E+01 0.  1.
        -11    1    1    2    0    0 -0.37748549386E+02  0.93552184367E+00 -0.42669487225E+02  0.56978182859E+02  0.00000000000E+00 0. -1.
         11    1    1    2    0    0  0.37824066848E+02 -0.33922657128E+01 -0.10462473257E+03  0.11130364848E+03  0.00000000000E+00 0.  1.
<mgrwt>
<rscale>  0 0.11230009E+03</rscale>
<asrwt>0</asrwt>
<pdfrwt beam="2">  1        2 0.11337032E+00 0.12502464E+03</pdfrwt>
<pdfrwt beam="1">  1       -2 0.26525578E-02 0.12502464E+03</pdfrwt>
<totfact> 0.18864238E+04</totfact>
</mgrwt>
</event>
<event>
 7    1  0.5928109E-006  0.1542706E+03  0.7546771E-02  0.1202673E+00
          2   -1    0    0  501    0  0.00000000000E+00  0.00000000000E+00  0.16585269665E+03  0.16585269665E+03  0.00000000000E+00 0. -1.
         -2   -1    0    0    0  501 -0.00000000000E+00 -0.00000000000E+00 -0.14918208431E+03  0.14918208431E+03  0.00000000000E+00 0.  1.
         23    2    1    2    0    0 -0.14904249081E+02  0.89177755916E+02  0.74609586310E+02  0.17136510769E+03  0.12499840389E+03 0.  0.
          5    1    3    3  502    0 -0.35276121138E+02  0.39576280279E+02 -0.24491952582E+02  0.58588671469E+02  0.47000000000E+01 0. -1.
         -5    1    3    3    0  502  0.20371872057E+02  0.49601475637E+02  0.99101538892E+02  0.11277643622E+03  0.47000000000E+01 0. -1.
        -11    1    1    2    0    0  0.14627645978E+02 -0.38467459212E+02  0.23753152912E+02  0.47517635867E+02  0.00000000000E+00 0. -1.
         11    1    1    2    0    0  0.27660310257E+00 -0.50710296704E+02 -0.81692126888E+02  0.96152037402E+02  0.00000000000E+00 0.  1.
<mgrwt>
<rscale>  0 0.14822382E+03</rscale>
<asrwt>0</asrwt>
<pdfrwt beam="1">  1        2 0.25515799E-01 0.15427057E+03</pdfrwt>
<pdfrwt beam="2">  1       -2 0.22951090E-01 0.15427057E+03</pdfrwt>
<totfact> 0.33695264E+03</totfact>
</mgrwt>
</event>
<event>
 7    1  0.5928109E-006  0.1368616E+03  0.7546771E-02  0.1229650E+00
         -1   -1    0    0    0  501 -0.00000000000E+00  0.00000000000E+00  0.20728225430E+02  0.20728225430E+02  0.00000000000E+00 0.  1.
          1   -1    0    0  501    0  0.00000000000E+00 -0.00000000000E+00 -0.72091389353E+03  0.72091389353E+03  0.00000000000E+00 0. -1.
         23    2    1    2    0    0  0.15117950968E+02 -0.53616806354E+02 -0.35762251361E+03  0.38291638982E+03  0.12501113945E+03 0.  0.
          5    1    3    3  502    0  0.31496710703E+02  0.34354729712E+02 -0.13718998497E+03  0.14496714185E+03  0.47000000000E+01 0.  1.
         -5    1    3    3    0  502 -0.16378759735E+02 -0.87971536066E+02 -0.22043252864E+03  0.23794924797E+03  0.47000000000E+01 0.  1.
        -11    1    1    2    0    0  0.33854724053E+02  0.43364070259E+02 -0.15006870469E+03  0.15983491815E+03  0.00000000000E+00 0. -1.
         11    1    1    2    0    0 -0.48972675020E+02  0.10252736095E+02 -0.19249444979E+03  0.19889081099E+03  0.00000000000E+00 0.  1.
<mgrwt>
<rscale>  0 0.12853227E+03</rscale>
<asrwt>0</asrwt>
<pdfrwt beam="2">  1        1 0.11090983E+00 0.13686161E+03</pdfrwt>
<pdfrwt beam="1">  1       -1 0.31889579E-02 0.13686161E+03</pdfrwt>
<totfact> 0.89345919E+03</totfact>
</mgrwt>
</event>
<event>
 7    1  0.5928109E-006  0.3085738E+03  0.7546771E-02  0.1082545E+00
         -1   -1    0    0    0  501 -0.00000000000E+00  0.00000000000E+00  0.24660979476E+03  0.24660979476E+03  0.00000000000E+00 0.  1.
          1   -1    0    0  501    0  0.00000000000E+00 -0.00000000000E+00 -0.43385437883E+03  0.43385437883E+03  0.00000000000E+00 0. -1.
         23    2    1    2    0    0 -0.16789410817E+03  0.22672321887E+03 -0.22484271986E+03  0.38180105656E+03  0.12500379429E+03 0.  0.
          5    1    3    3  502    0 -0.39651471611E+01 -0.84210301491E+01 -0.38479021435E+02  0.39866793593E+02  0.47000000000E+01 0.  1.
         -5    1    3    3    0  502 -0.16392896100E+03  0.23514424902E+03 -0.18636369843E+03  0.34193426297E+03  0.47000000000E+01 0.  1.
        -11    1    1    2    0    0  0.27923472959E+02 -0.62235801373E+02 -0.26795067495E+02  0.73287044945E+02  0.00000000000E+00 0. -1.
         11    1    1    2    0    0  0.13997063521E+03 -0.16448741750E+03  0.64393203287E+02  0.22537607208E+03  0.00000000000E+00 0.  1.
<mgrwt>
<rscale>  0 0.30545517E+03</rscale>
<asrwt>0</asrwt>
<pdfrwt beam="2">  1        1 0.66746827E-01 0.30857381E+03</pdfrwt>
<pdfrwt beam="1">  1       -1 0.37939969E-01 0.30857381E+03</pdfrwt>
<totfact> 0.37134066E+02</totfact>
</mgrwt>
</event>
<event>
 7    1  0.5928109E-006  0.1445056E+03  0.7546771E-02  0.1218433E+00
         -2   -1    0    0    0  501 -0.00000000000E+00  0.00000000000E+00  0.79855413219E+03  0.79855413219E+03  0.00000000000E+00 0.  1.
          2   -1    0    0  501    0  0.00000000000E+00 -0.00000000000E+00 -0.21300406271E+02  0.21300406271E+02  0.00000000000E+00 0. -1.
         23    2    1    2    0    0  0.71655697106E+02  0.11053560217E+02  0.38234746674E+03  0.40874376493E+03  0.12500063970E+03 0.  0.
          5    1    3    3  502    0  0.20880698694E+02  0.48088253680E+02  0.57971766288E+02  0.78302614302E+02  0.47000000000E+01 0.  1.
         -5    1    3    3    0  502  0.50774998412E+02 -0.37034693463E+02  0.32437570045E+03  0.33044115063E+03  0.47000000000E+01 0.  1.
        -11    1    1    2    0    0 -0.41113577220E+02  0.38089079576E+02  0.21105981035E+03  0.21837432944E+03  0.00000000000E+00 0.  1.
         11    1    1    2    0    0 -0.30542119887E+02 -0.49142639794E+02  0.18384644882E+03  0.19273644408E+03  0.00000000000E+00 0. -1.
<mgrwt>
<rscale>  0 0.13627341E+03</rscale>
<asrwt>0</asrwt>
<pdfrwt beam="2">  1        2 0.32769862E-02 0.14450564E+03</pdfrwt>
<pdfrwt beam="1">  1       -2 0.12285446E+00 0.14450564E+03</pdfrwt>
<totfact> 0.14083546E+03</totfact>
</mgrwt>
</event>
<event>
 7    1  0.5928109E-006  0.1306310E+03  0.7546771E-02  0.1238734E+00
          2   -1    0    0  501    0  0.00000000000E+00  0.00000000000E+00  0.89080726865E+03  0.89080726865E+03  0.00000000000E+00 0. -1.
         -2   -1    0    0    0  501 -0.00000000000E+00 -0.00000000000E+00 -0.15141168982E+02  0.15141168982E+02  0.00000000000E+00 0.  1.
         23    2    1    2    0    0  0.78057657192E+01  0.37126708672E+02  0.49778948189E+03  0.51464436905E+03  0.12500054336E+03 0.  0.
          5    1    3    3  502    0 -0.43625915687E+02 -0.53511029103E+01  0.34555088119E+03  0.34836669805E+03  0.47000000000E+01 0.  1.
         -5    1    3    3    0  502  0.51431681406E+02  0.42477811582E+02  0.15223860070E+03  0.16627767100E+03  0.47000000000E+01 0.  1.
        -11    1    1    2    0    0  0.26550722199E+02 -0.53907418161E+02  0.17994993371E+03  0.18971802556E+03  0.00000000000E+00 0.  1.
         11    1    1    2    0    0 -0.34356487918E+02  0.16780709489E+02  0.19792668407E+03  0.20158604302E+03  0.00000000000E+00 0. -1.
<mgrwt>
<rscale>  0 0.12268386E+03</rscale>
<asrwt>0</asrwt>
<pdfrwt beam="1">  1        2 0.13704723E+00 0.13063100E+03</pdfrwt>
<pdfrwt beam="2">  1       -2 0.23294113E-02 0.13063100E+03</pdfrwt>
<totfact> 0.18056065E+04</totfact>
</mgrwt>
</event>
<event>
 7    1  0.5928109E-006  0.1446939E+03  0.7546771E-02  0.1217607E+00
          3   -1    0    0  501    0  0.00000000000E+00  0.00000000000E+00  0.40458516506E+02  0.40458516506E+02  0.00000000000E+00 0. -1.
         -3   -1    0    0    0  501 -0.00000000000E+00 -0.00000000000E+00 -0.42422295780E+03  0.42422295780E+03  0.00000000000E+00 0.  1.
         23    2    1    2    0    0  0.68762450687E+02  0.24129957260E+02 -0.18833301132E+03  0.23749871927E+03  0.12500315612E+03 0.  0.
          5    1    3    3  502    0  0.97869461648E+02  0.27988844646E+02 -0.17962153035E+03  0.20651341631E+03  0.47000000000E+01 0. -1.
         -5    1    3    3    0  502 -0.29107010961E+02 -0.38588873862E+01 -0.87114809611E+01  0.30985302959E+02  0.47000000000E+01 0. -1.
        -11    1    1    2    0    0 -0.67091141112E+02 -0.34307990114E+02 -0.20155985784E+03  0.21518511959E+03  0.00000000000E+00 0.  1.
         11    1    1    2    0    0 -0.16713095749E+01  0.10178032855E+02  0.61284278559E+01  0.11997635453E+02  0.00000000000E+00 0. -1.
<mgrwt>
<rscale>  0 0.13686767E+03</rscale>
<asrwt>0</asrwt>
<pdfrwt beam="1">  1        3 0.62243876E-02 0.14469388E+03</pdfrwt>
<pdfrwt beam="2">  1       -3 0.65265065E-01 0.14469388E+03</pdfrwt>
<totfact> 0.86379964E+02</totfact>
</mgrwt>
</event>
<event>
 7    1  0.5928109E-006  0.1556678E+03  0.7546771E-02  0.1201629E+00
          1   -1    0    0  501    0  0.00000000000E+00  0.00000000000E+00  0.20562978289E+03  0.20562978289E+03  0.00000000000E+00 0. -1.
         -1   -1    0    0    0  501 -0.00000000000E+00 -0.00000000000E+00 -0.14167059772E+03  0.14167059772E+03  0.00000000000E+00 0.  1.
         23    2    1    2    0    0 -0.86693364740E+02  0.33421276751E+02  0.12804942555E+03  0.20156667383E+03  0.12489894870E+03 0.  0.
          5    1    3    3  502    0 -0.63109125892E+02  0.34465296297E+02  0.15162275587E+03  0.16787545538E+03  0.47000000000E+01 0. -1.
         -5    1    3    3    0  502 -0.23584238848E+02 -0.10440195456E+01 -0.23573330318E+02  0.33691218457E+02  0.47000000000E+01 0. -1.
        -11    1    1    2    0    0  0.42123011000E+02 -0.57405093005E+02 -0.63056544629E+02  0.95109518867E+02  0.00000000000E+00 0.  1.
         11    1    1    2    0    0  0.44570353740E+02  0.23983816254E+02 -0.10336957542E+01  0.50624187910E+02  0.00000000000E+00 0. -1.
<mgrwt>
<rscale>  0 0.14906346E+03</rscale>
<asrwt>0</asrwt>
<pdfrwt beam="1">  1        1 0.31635351E-01 0.15566781E+03</pdfrwt>
<pdfrwt beam="2">  1       -1 0.21795476E-01 0.15566781E+03</pdfrwt>
<totfact> 0.24217117E+03</totfact>
</mgrwt>
</event>
<event>
 7    1  0.5928109E-006  0.1299312E+03  0.7546771E-02  0.1241354E+00
          1   -1    0    0  501    0  0.00000000000E+00  0.00000000000E+00  0.26690638380E+03  0.26690638380E+03  0.00000000000E+00 0. -1.
         -1   -1    0    0    0  501 -0.00000000000E+00 -0.00000000000E+00 -0.48975028311E+02  0.48975028311E+02  0.00000000000E+00 0.  1.
         23    2    1    2    0    0 -0.22989391667E+02 -0.26991477135E+02  0.13727549841E+03  0.18901503070E+03  0.12500026960E+03 0.  0.
          5    1    3    3  502    0  0.28056750083E+02 -0.61727620045E+02  0.74209302580E+02  0.10063096388E+03  0.47000000000E+01 0. -1.
         -5    1    3    3    0  502 -0.51046141750E+02  0.34736142909E+02  0.63066195827E+02  0.88384066821E+02  0.47000000000E+01 0. -1.
        -11    1    1    2    0    0  0.55561946907E+01  0.21434138360E+02  0.98708957530E+02  0.10116200810E+03  0.00000000000E+00 0. -1.
         11    1    1    2    0    0  0.17433196976E+02  0.55573387758E+01 -0.18053100452E+02  0.25704373305E+02  0.00000000000E+00 0.  1.
<mgrwt>
<rscale>  0 0.12106283E+03</rscale>
<asrwt>0</asrwt>
<pdfrwt beam="1">  1        1 0.41062520E-01 0.12993121E+03</pdfrwt>
<pdfrwt beam="2">  1       -1 0.75346199E-02 0.12993121E+03</pdfrwt>
<totfact> 0.90523590E+03</totfact>
</mgrwt>
</event>
<event>
 7    1  0.5928109E-006  0.1380756E+03  0.7546771E-02  0.1227031E+00
         -2   -1    0    0    0  501 -0.00000000000E+00  0.00000000000E+00  0.21823893743E+02  0.21823893743E+02  0.00000000000E+00 0.  1.
          2   -1    0    0  501    0  0.00000000000E+00 -0.00000000000E+00 -0.90796793618E+03  0.90796793618E+03  0.00000000000E+00 0. -1.
         23    2    1    2    0    0  0.42789205534E+02 -0.40139531434E+02 -0.70299730144E+03  0.71642869807E+03  0.12499110160E+03 0.  0.
          5    1    3    3  502    0  0.41495397031E+01  0.15409712834E+02 -0.86024145154E+01  0.18728840457E+02  0.47000000000E+01 0.  1.
         -5    1    3    3    0  502  0.38639665831E+02 -0.55549244267E+02 -0.69439488693E+03  0.69769985761E+03  0.47000000000E+01 0.  1.
        -11    1    1    2    0    0 -0.55312173652E+01  0.98482683182E+01  0.95390666262E+01  0.14784334497E+02  0.00000000000E+00 0.  1.
         11    1    1    2    0    0 -0.37257988169E+02  0.30291263115E+02 -0.19268580762E+03  0.19857879736E+03  0.00000000000E+00 0. -1.
<mgrwt>
<rscale>  0 0.13028661E+03</rscale>
<asrwt>0</asrwt>
<pdfrwt beam="2">  1        2 0.13968737E+00 0.13807561E+03</pdfrwt>
<pdfrwt beam="1">  1       -2 0.33575223E-02 0.13807561E+03</pdfrwt>
<totfact> 0.10342453E+04</totfact>
</mgrwt>
</event>
<event>
 7    1  0.5928109E-006  0.1712655E+03  0.7546771E-02  0.1182773E+00
          1   -1    0    0  501    0  0.00000000000E+00  0.00000000000E+00  0.32838527881E+03  0.32838527881E+03  0.00000000000E+00 0. -1.
         -1   -1    0    0    0  501 -0.00000000000E+00 -0.00000000000E+00 -0.11583150335E+03  0.11583150335E+03  0.00000000000E+00 0.  1.
         23    2    1    2    0    0 -0.11173859289E+03  0.34943439680E+02  0.23799672575E+03  0.29321377130E+03  0.12500126838E+03 0.  0.
          5    1    3    3  502    0 -0.70781236239E+02  0.74027687296E+02  0.20035866570E+03  0.22506836031E+03  0.47000000000E+01 0.  1.
         -5    1    3    3    0  502 -0.40957356650E+02 -0.39084247616E+02  0.37638060048E+02  0.68145410995E+02  0.47000000000E+01 0.  1.
        -11    1    1    2    0    0  0.30754508187E+02 -0.19952361190E+02  0.33550394950E+02  0.49694722981E+02  0.00000000000E+00 0. -1.
         11    1    1    2    0    0  0.80984084703E+02 -0.14991078489E+02 -0.58993345240E+02  0.10130828787E+03  0.00000000000E+00 0.  1.
<mgrwt>
<rscale>  0 0.16536185E+03</rscale>
<asrwt>0</asrwt>
<pdfrwt beam="1">  1        1 0.50520812E-01 0.17126551E+03</pdfrwt>
<pdfrwt beam="2">  1       -1 0.17820231E-01 0.17126551E+03</pdfrwt>
<totfact> 0.18761305E+03</totfact>
</mgrwt>
</event>
<event>
 6    1  0.5928109E-006  0.1428693E+03  0.7546771E-02  0.1223895E+00
         -2   -1    0    0    0  501 -0.00000000000E+00  0.00000000000E+00  0.11745800060E+02  0.11745800060E+02  0.00000000000E+00 0.  1.
          2   -1    0    0  501    0  0.00000000000E+00 -0.00000000000E+00 -0.34422796298E+04  0.34422796298E+04  0.00000000000E+00 0. -1.
          5    1    1    2  502    0 -0.12508159658E+02 -0.15107163129E+02 -0.31404232021E+04  0.31404879650E+04  0.47000000000E+01 0. -1.
         -5    1    1    2    0  502 -0.24337422708E+01  0.12051646379E+02 -0.25862491209E+02  0.29019368247E+02  0.47000000000E+01 0.  1.
        -11    1    1    2    0    0  0.33911984235E+02 -0.32734983642E+02 -0.21800664627E+03  0.22304371690E+03  0.00000000000E+00 0.  1.
         11    1    1    2    0    0 -0.18970082306E+02  0.35790500391E+02 -0.46241490149E+02  0.61474379640E+02  0.00000000000E+00 0. -1.
<mgrwt>
<rscale>  0 0.13242936E+03</rscale>
<asrwt>0</asrwt>
<pdfrwt beam="2">  1        2 0.52958206E+00 0.14286933E+03</pdfrwt>
<pdfrwt beam="1">  1       -2 0.18070442E-02 0.14286933E+03</pdfrwt>
<totfact> 0.10291202E+03</totfact>
</mgrwt>
</event>
<event>
 7    1  0.5928109E-006  0.1620512E+03  0.7546771E-02  0.1193387E+00
          3   -1    0    0  501    0  0.00000000000E+00  0.00000000000E+00  0.99689901631E+02  0.99689901631E+02  0.00000000000E+00 0. -1.
         -3   -1    0    0    0  501 -0.00000000000E+00 -0.00000000000E+00 -0.24133131501E+03  0.24133131501E+03  0.00000000000E+00 0.  1.
         23    2    1    2    0    0  0.46177931426E+02 -0.92211773840E+02 -0.34641773178E+02  0.16571250168E+03  0.12500067271E+03 0.  0.
          5    1    3    3  502    0 -0.34460572288E+02 -0.63683096843E+02  0.18826552890E+01  0.72585826832E+02  0.47000000000E+01 0.  1.
         -5    1    3    3    0  502  0.80638503715E+02 -0.28528676997E+02 -0.36524428467E+02  0.93126674844E+02  0.47000000000E+01 0.  1.
        -11    1    1    2    0    0 -0.47289401829E+02  0.70445085040E+02 -0.22128723661E+02  0.87683966280E+02  0.00000000000E+00 0. -1.
         11    1    1    2    0    0  0.11114704027E+01  0.21766688800E+02 -0.84870916539E+02  0.87624748684E+02  0.00000000000E+00 0.  1.
<mgrwt>
<rscale>  0 0.15591553E+03</rscale>
<asrwt>0</asrwt>
<pdfrwt beam="1">  1        3 0.15336908E-01 0.16205117E+03</pdfrwt>
<pdfrwt beam="2">  1       -3 0.37127894E-01 0.16205117E+03</pdfrwt>
<totfact> 0.60848010E+02</totfact>
</mgrwt>
</event>
<event>
 7    1  0.5928109E-006  0.1936019E+03  0.7546771E-02  0.1159518E+00
         -1   -1    0    0    0  501 -0.00000000000E+00  0.00000000000E+00  0.86847921992E+02  0.86847921992E+02  0.00000000000E+00 0.  1.
          1   -1    0    0  501    0  0.00000000000E+00 -0.00000000000E+00 -0.40717720339E+03  0.40717720339E+03  0.00000000000E+00 0. -1.
         23    2    1    2    0    0  0.85816510561E+02  0.12038490196E+03 -0.21613574095E+03  0.29016610809E+03  0.12499885465E+03 0.  0.
          5    1    3    3  502    0  0.56964265483E+02  0.68391618820E+01 -0.18675471129E+02  0.60519128374E+02  0.47000000000E+01 0.  1.
         -5    1    3    3    0  502  0.28852245078E+02  0.11354574007E+03 -0.19746026982E+03  0.22964697971E+03  0.47000000000E+01 0.  1.
        -11    1    1    2    0    0 -0.42134207079E+02 -0.10601025334E+03 -0.32379596848E+02  0.11858289721E+03  0.00000000000E+00 0.  1.
         11    1    1    2    0    0 -0.43682303483E+02 -0.14374648616E+02 -0.71813943606E+02  0.85276120084E+02  0.00000000000E+00 0. -1.
<mgrwt>
<rscale>  0 0.18883325E+03</rscale>
<asrwt>0</asrwt>
<pdfrwt beam="2">  1        1 0.62642647E-01 0.19360194E+03</pdfrwt>
<pdfrwt beam="1">  1       -1 0.13361219E-01 0.19360194E+03</pdfrwt>
<totfact> 0.22627014E+03</totfact>
</mgrwt>
</event>
<event>
 6    1  0.5928109E-006  0.1993723E+03  0.7546771E-02  0.1178290E+00
          2   -1    0    0  501    0  0.00000000000E+00  0.00000000000E+00  0.10855026190E+04  0.10855026190E+04  0.00000000000E+00 0. -1.
         -2   -1    0    0    0  501 -0.00000000000E+00 -0.00000000000E+00 -0.24442197171E+02  0.24442197171E+02  0.00000000000E+00 0.  1.
          5    1    1    2  502    0  0.66268508725E+01  0.89150398227E+02  0.28902846088E+03  0.30257437078E+03  0.47000000000E+01 0. -1.
         -5    1    1    2    0  502  0.45484314765E+02 -0.92154401886E+02  0.57777743137E+03  0.58686464102E+03  0.47000000000E+01 0.  1.
        -11    1    1    2    0    0  0.25301680034E+02 -0.55563356825E+01  0.58858537715E+02  0.64306884085E+02  0.00000000000E+00 0. -1.
         11    1    1    2    0    0 -0.77412845672E+02  0.85603393415E+01  0.13539599186E+03  0.15619892028E+03  0.00000000000E+00 0.  1.
<mgrwt>
<rscale>  0 0.16957703E+03</rscale>
<asrwt>0</asrwt>
<pdfrwt beam="1">  1        2 0.16700037E+00 0.19937227E+03</pdfrwt>
<pdfrwt beam="2">  1       -2 0.37603389E-02 0.19937227E+03</pdfrwt>
<totfact> 0.69439061E+03</totfact>
</mgrwt>
</event>
<event>
 6    1  0.5928109E-006  0.2985391E+03  0.7546771E-02  0.1085973E+00
         -1   -1    0    0    0  501 -0.00000000000E+00  0.00000000000E+00  0.28735519974E+03  0.28735519974E+03  0.00000000000E+00 0.  1.
          1   -1    0    0  501    0  0.00000000000E+00 -0.00000000000E+00 -0.77539589756E+02  0.77539589756E+02  0.00000000000E+00 0. -1.
          5    1    1    2  502    0 -0.53329131285E+01 -0.99166356812E+00 -0.41126086451E+02  0.41747674736E+02  0.47000000000E+01 0. -1.
         -5    1    1    2    0  502  0.14075730008E+02 -0.31145453266E+02  0.99658576244E+02  0.10546130690E+03  0.47000000000E+01 0.  1.
        -11    1    1    2    0    0  0.38274569133E+02 -0.48643578492E+02  0.47527675215E+02  0.78038582010E+02  0.00000000000E+00 0.  1.
         11    1    1    2    0    0 -0.47017386012E+02  0.80780695326E+02  0.10375544497E+03  0.13964722584E+03  0.00000000000E+00 0. -1.
<mgrwt>
<rscale>  0 0.29853914E+03</rscale>
<asrwt>0</asrwt>
<pdfrwt beam="2">  1        1 0.11929168E-01 0.29853914E+03</pdfrwt>
<pdfrwt beam="1">  1       -1 0.44208492E-01 0.29853914E+03</pdfrwt>
<totfact> 0.26045419E+03</totfact>
</mgrwt>
</event>
<event>
 7    1  0.5928109E-006  0.1317499E+03  0.7546771E-02  0.1238214E+00
          1   -1    0    0  501    0  0.00000000000E+00  0.00000000000E+00  0.56026454888E+03  0.56026454888E+03  0.00000000000E+00 0. -1.
         -1   -1    0    0    0  501 -0.00000000000E+00 -0.00000000000E+00 -0.74394602194E+02  0.74394602194E+02  0.00000000000E+00 0.  1.
         23    2    1    2    0    0  0.13504567498E+02 -0.39393985236E+02  0.51404139205E+03  0.53065675725E+03  0.12499512733E+03 0.  0.
          5    1    3    3  502    0  0.27413196685E+02 -0.34443342113E+02  0.51737084157E+02  0.68092900110E+02  0.47000000000E+01 0.  1.
         -5    1    3    3    0  502 -0.13908629186E+02 -0.49506431231E+01  0.46230430789E+03  0.46256385714E+03  0.47000000000E+01 0.  1.
        -11    1    1    2    0    0 -0.47320981291E+02  0.23989161586E+02 -0.38361909199E+02  0.65470537048E+02  0.00000000000E+00 0.  1.
         11    1    1    2    0    0  0.33816413792E+02  0.15404823650E+02  0.10190463832E+02  0.38531856775E+02  0.00000000000E+00 0. -1.
<mgrwt>
<rscale>  0 0.12300897E+03</rscale>
<asrwt>0</asrwt>
<pdfrwt beam="1">  1        1 0.86194543E-01 0.13174992E+03</pdfrwt>
<pdfrwt beam="2">  1       -1 0.11445324E-01 0.13174992E+03</pdfrwt>
<totfact> 0.18788771E+03</totfact>
</mgrwt>
</event>
<event>
 7    1  0.5928109E-006  0.2201189E+03  0.7546771E-02  0.1137184E+00
          1   -1    0    0  501    0  0.00000000000E+00  0.00000000000E+00  0.45974468067E+03  0.45974468067E+03  0.00000000000E+00 0. -1.
         -1   -1    0    0    0  501 -0.00000000000E+00 -0.00000000000E+00 -0.10046338359E+03  0.10046338359E+03  0.00000000000E+00 0.  1.
         23    2    1    2    0    0  0.13125243004E+02 -0.18065798529E+03  0.23712139890E+03  0.32354116801E+03  0.12507097956E+03 0.  0.
          5    1    3    3  502    0  0.24456627544E+02 -0.43005333848E+01 -0.29044547591E+01  0.25439085590E+02  0.47000000000E+01 0.  1.
         -5    1    3    3    0  502 -0.11331384539E+02 -0.17635745191E+03  0.24002585366E+03  0.29810208242E+03  0.47000000000E+01 0.  1.
        -11    1    1    2    0    0 -0.42650665927E+02  0.15534332557E+03  0.81998591271E+02  0.18076060708E+03  0.00000000000E+00 0. -1.
         11    1    1    2    0    0  0.29525422923E+02  0.25314659721E+02  0.40161306907E+02  0.55906289163E+02  0.00000000000E+00 0.  1.
<mgrwt>
<rscale>  0 0.21562922E+03</rscale>
<asrwt>0</asrwt>
<pdfrwt beam="1">  1        1 0.70729949E-01 0.22011890E+03</pdfrwt>
<pdfrwt beam="2">  1       -1 0.15455906E-01 0.22011890E+03</pdfrwt>
<totfact> 0.15413151E+03</totfact>
</mgrwt>
</event>
<event>
 7    1  0.5928109E-006  0.1306124E+03  0.7546771E-02  0.1240469E+00
         -2   -1    0    0    0  501 -0.00000000000E+00  0.00000000000E+00  0.92662081104E+02  0.92662081104E+02  0.00000000000E+00 0.  1.
          2   -1    0    0  501    0  0.00000000000E+00 -0.00000000000E+00 -0.14888969134E+03  0.14888969134E+03  0.00000000000E+00 0. -1.
         23    2    1    2    0    0  0.70518237478E+01 -0.37220934246E+02 -0.59102074751E+02  0.14336192618E+03  0.12499784188E+03 0.  0.
          5    1    3    3  502    0 -0.15152189218E+02 -0.68505212490E+02 -0.73869436162E+02  0.10198694316E+03  0.47000000000E+01 0.  1.
         -5    1    3    3    0  502  0.22204012966E+02  0.31284278244E+02  0.14767361411E+02  0.41374983022E+02  0.47000000000E+01 0.  1.
        -11    1    1    2    0    0  0.18689982867E+02  0.56794986171E+02 -0.14436619699E+02  0.61509364345E+02  0.00000000000E+00 0.  1.
         11    1    1    2    0    0 -0.25741806615E+02 -0.19574051925E+02  0.17311084216E+02  0.36680481912E+02  0.00000000000E+00 0. -1.
<mgrwt>
<rscale>  0 0.12160692E+03</rscale>
<asrwt>0</asrwt>
<pdfrwt beam="2">  1        2 0.22906106E-01 0.13061235E+03</pdfrwt>
<pdfrwt beam="1">  1       -2 0.14255705E-01 0.13061235E+03</pdfrwt>
<totfact> 0.83374446E+03</totfact>
</mgrwt>
</event>
<event>
 7    1  0.5928109E-006  0.1303455E+03  0.7546771E-02  0.1237947E+00
         -2   -1    0    0    0  501 -0.00000000000E+00  0.00000000000E+00  0.38991235143E+03  0.38991235143E+03  0.00000000000E+00 0.  1.
          2   -1    0    0  501    0  0.00000000000E+00 -0.00000000000E+00 -0.35198110746E+02  0.35198110746E+02  0.00000000000E+00 0. -1.
         23    2    1    2    0    0  0.16164684940E+02 -0.33221963301E+02  0.19580612683E+03  0.23522329038E+03  0.12499984459E+03 0.  0.
          5    1    3    3  502    0 -0.29350384733E+02 -0.55207542771E+02  0.48065861807E+02  0.79004651345E+02  0.47000000000E+01 0. -1.
         -5    1    3    3    0  502  0.45515069673E+02  0.21985579470E+02  0.14774026502E+03  0.15621863903E+03  0.47000000000E+01 0. -1.
        -11    1    1    2    0    0 -0.25216558100E+02  0.33067555723E+01 -0.24312151271E+01  0.25548390201E+02  0.00000000000E+00 0. -1.
         11    1    1    2    0    0  0.90518731605E+01  0.29915207729E+02  0.16133932898E+03  0.16433878159E+03  0.00000000000E+00 0.  1.
<mgrwt>
<rscale>  0 0.12317624E+03</rscale>
<asrwt>0</asrwt>
<pdfrwt beam="2">  1        2 0.54150942E-02 0.13034553E+03</pdfrwt>
<pdfrwt beam="1">  1       -2 0.59986513E-01 0.13034553E+03</pdfrwt>
<totfact> 0.35578553E+03</totfact>
</mgrwt>
</event>
<event>
 7    1  0.5928109E-006  0.1516735E+03  0.7546771E-02  0.1207230E+00
         -1   -1    0    0    0  501 -0.00000000000E+00  0.00000000000E+00  0.56570098301E+02  0.56570098301E+02  0.00000000000E+00 0.  1.
          1   -1    0    0  501    0  0.00000000000E+00 -0.00000000000E+00 -0.34980089229E+03  0.34980089229E+03  0.00000000000E+00 0. -1.
         23    2    1    2    0    0  0.23826300483E+02 -0.82545110932E+02 -0.19518351740E+03  0.24718710141E+03  0.12499387867E+03 0.  0.
          5    1    3    3  502    0 -0.19882722803E+02 -0.41308760440E+01 -0.14034525786E+03  0.14188470040E+03  0.47000000000E+01 0. -1.
         -5    1    3    3    0  502  0.43709023285E+02 -0.78414234888E+02 -0.54838259546E+02  0.10530240102E+03  0.47000000000E+01 0. -1.
        -11    1    1    2    0    0 -0.50736998090E+02  0.20252943610E+02 -0.60947871442E+02  0.81847832796E+02  0.00000000000E+00 0. -1.
         11    1    1    2    0    0  0.26910697607E+02  0.62292167322E+02 -0.37099405147E+02  0.77336056388E+02  0.00000000000E+00 0.  1.
<mgrwt>
<rscale>  0 0.14463069E+03</rscale>
<asrwt>0</asrwt>
<pdfrwt beam="2">  1        1 0.53815521E-01 0.15167352E+03</pdfrwt>
<pdfrwt beam="1">  1       -1 0.87030922E-02 0.15167352E+03</pdfrwt>
<totfact> 0.52572220E+03</totfact>
</mgrwt>
</event>
<event>
 6    1  0.5928109E-006  0.1706454E+03  0.7546771E-02  0.1190828E+00
         -1   -1    0    0    0  501 -0.00000000000E+00  0.00000000000E+00  0.16007314395E+03  0.16007314395E+03  0.00000000000E+00 0.  1.
          1   -1    0    0  501    0  0.00000000000E+00 -0.00000000000E+00 -0.14046063323E+03  0.14046063323E+03  0.00000000000E+00 0. -1.
          5    1    1    2  502    0 -0.90880420968E+01 -0.13873458222E+02 -0.55541869927E+02  0.58155435405E+02  0.47000000000E+01 0. -1.
         -5    1    1    2    0  502  0.50268480126E+02  0.90646039279E+02  0.44388295786E+02  0.11285404438E+03  0.47000000000E+01 0.  1.
        -11    1    1    2    0    0  0.23651872997E+02 -0.13882205927E+02  0.27948014526E+02  0.39156330952E+02  0.00000000000E+00 0.  1.
         11    1    1    2    0    0 -0.64832311026E+02 -0.62890375129E+02  0.28180703390E+01  0.90367966434E+02  0.00000000000E+00 0. -1.
<mgrwt>
<rscale>  0 0.15812697E+03</rscale>
<asrwt>0</asrwt>
<pdfrwt beam="2">  1        1 0.21609328E-01 0.17064536E+03</pdfrwt>
<pdfrwt beam="1">  1       -1 0.24626638E-01 0.17064536E+03</pdfrwt>
<totfact> 0.32168003E+03</totfact>
</mgrwt>
</event>
<event>
 7    1  0.5928109E-006  0.1455897E+03  0.7546771E-02  0.1215748E+00
         -2   -1    0    0    0  501 -0.00000000000E+00  0.00000000000E+00  0.35899481248E+02  0.35899481248E+02  0.00000000000E+00 0.  1.
          2   -1    0    0  501    0  0.00000000000E+00 -0.00000000000E+00 -0.48612437623E+03  0.48612437623E+03  0.00000000000E+00 0. -1.
         23    2    1    2    0    0 -0.61383113372E+02 -0.42458690755E+02 -0.26178364453E+03  0.29954469404E+03  0.12500288059E+03 0.  0.
          5    1    3    3  502    0 -0.35022350056E+02  0.23027853400E+02 -0.20365969377E+03  0.20798126815E+03  0.47000000000E+01 0.  1.
         -5    1    3    3    0  502 -0.26360763316E+02 -0.65486544155E+02 -0.58123950753E+02  0.91563425881E+02  0.47000000000E+01 0.  1.
        -11    1    1    2    0    0  0.41431006977E+02  0.57389413288E+02 -0.18402843178E+03  0.19717133869E+03  0.00000000000E+00 0. -1.
         11    1    1    2    0    0  0.19952106395E+02 -0.14930722534E+02 -0.44128186733E+01  0.25307824751E+02  0.00000000000E+00 0.  1.
<mgrwt>
<rscale>  0 0.13821748E+03</rscale>
<asrwt>0</asrwt>
<pdfrwt beam="2">  1        2 0.74788367E-01 0.14558965E+03</pdfrwt>
<pdfrwt beam="1">  1       -2 0.55229970E-02 0.14558965E+03</pdfrwt>
<totfact> 0.10328632E+04</totfact>
</mgrwt>
</event>
<event>
 7    1  0.5928109E-006  0.1385517E+03  0.7546771E-02  0.1226250E+00
         -1   -1    0    0    0  501 -0.00000000000E+00  0.00000000000E+00  0.11165534145E+03  0.11165534145E+03  0.00000000000E+00 0.  1.
          1   -1    0    0  501    0  0.00000000000E+00 -0.00000000000E+00 -0.14542840683E+03  0.14542840683E+03  0.00000000000E+00 0. -1.
         23    2    1    2    0    0 -0.48711134393E+02 -0.34626969779E+02 -0.46727410055E+02  0.14621905748E+03  0.12499904108E+03 0.  0.
          5    1    3    3  502    0 -0.67506266379E+02 -0.61380880171E+02 -0.29902056848E+01  0.91409735702E+02  0.47000000000E+01 0. -1.
         -5    1    3    3    0  502  0.18795131985E+02  0.26753910392E+02 -0.43737204370E+02  0.54809321777E+02  0.47000000000E+01 0. -1.
        -11    1    1    2    0    0 -0.35188722265E+01 -0.23597555575E+02 -0.14557764450E+02  0.27949160929E+02  0.00000000000E+00 0. -1.
         11    1    1    2    0    0  0.52230006620E+02  0.58224525355E+02  0.27512109128E+02  0.82915529866E+02  0.00000000000E+00 0.  1.
<mgrwt>
<rscale>  0 0.13081598E+03</rscale>
<asrwt>0</asrwt>
<pdfrwt beam="2">  1        1 0.22373601E-01 0.13855166E+03</pdfrwt>
<pdfrwt beam="1">  1       -1 0.17177745E-01 0.13855166E+03</pdfrwt>
<totfact> 0.54458639E+03</totfact>
</mgrwt>
</event>
<event>
 7    1  0.5928109E-006  0.1429045E+03  0.7546771E-02  0.1219810E+00
          1   -1    0    0  501    0  0.00000000000E+00  0.00000000000E+00  0.47812448405E+03  0.47812448405E+03  0.00000000000E+00 0. -1.
         -1   -1    0    0    0  501 -0.00000000000E+00 -0.00000000000E+00 -0.37253063914E+02  0.37253063914E+02  0.00000000000E+00 0.  1.
         23    2    1    2    0    0  0.39921146014E+02  0.56587386814E+02  0.30960470399E+03  0.34099380219E+03  0.12500348057E+03 0.  0.
          5    1    3    3  502    0 -0.60629106824E+01 -0.31680630447E+02  0.14468819257E+03  0.14831447771E+03  0.47000000000E+01 0. -1.
         -5    1    3    3    0  502  0.45984056696E+02  0.88268017261E+02  0.16491651142E+03  0.19267932448E+03  0.47000000000E+01 0. -1.
        -11    1    1    2    0    0 -0.13402630215E+02 -0.38766437207E+02  0.18264008657E+01  0.41058530058E+02  0.00000000000E+00 0.  1.
         11    1    1    2    0    0 -0.26518515799E+02 -0.17820949606E+02  0.12944031528E+03  0.13332521571E+03  0.00000000000E+00 0. -1.
<mgrwt>
<rscale>  0 0.13529094E+03</rscale>
<asrwt>0</asrwt>
<pdfrwt beam="1">  1        1 0.73557609E-01 0.14290451E+03</pdfrwt>
<pdfrwt beam="2">  1       -1 0.57312409E-02 0.14290451E+03</pdfrwt>
<totfact> 0.66025667E+03</totfact>
</mgrwt>
</event>
<event>
 7    1  0.5928109E-006  0.1794690E+03  0.7546771E-02  0.1174103E+00
          2   -1    0    0  501    0  0.00000000000E+00  0.00000000000E+00  0.11586634160E+04  0.11586634160E+04  0.00000000000E+00 0. -1.
         -2   -1    0    0    0  501 -0.00000000000E+00 -0.00000000000E+00 -0.32469592366E+02  0.32469592366E+02  0.00000000000E+00 0.  1.
         23    2    1    2    0    0 -0.12874930993E+03  0.28845058753E+01  0.88626400877E+03  0.90425273262E+03  0.12499762413E+03 0.  0.
          5    1    3    3  502    0  0.12644770413E+02 -0.15398005032E+02  0.30704633925E+03  0.30772801827E+03  0.47000000000E+01 0. -1.
         -5    1    3    3    0  502 -0.14139408034E+03  0.18282510907E+02  0.57921766951E+03  0.59652471435E+03  0.47000000000E+01 0. -1.
        -11    1    1    2    0    0  0.48858902070E+02 -0.37573111057E+02  0.55592270437E+02  0.83002599467E+02  0.00000000000E+00 0.  1.
         11    1    1    2    0    0  0.79890407857E+02  0.34688605182E+02  0.18433754443E+03  0.20387767628E+03  0.00000000000E+00 0. -1.
<mgrwt>
<rscale>  0 0.17364160E+03</rscale>
<asrwt>0</asrwt>
<pdfrwt beam="1">  1        2 0.17825588E+00 0.17946897E+03</pdfrwt>
<pdfrwt beam="2">  1       -2 0.49953228E-02 0.17946897E+03</pdfrwt>
<totfact> 0.40985833E+03</totfact>
</mgrwt>
</event>
<event>
 7    1  0.5928109E-006  0.1310276E+03  0.7546771E-02  0.1237870E+00
         -1   -1    0    0    0  501 -0.00000000000E+00  0.00000000000E+00  0.49440227307E+02  0.49440227307E+02  0.00000000000E+00 0.  1.
          1   -1    0    0  501    0  0.00000000000E+00 -0.00000000000E+00 -0.37747946197E+03  0.37747946197E+03  0.00000000000E+00 0. -1.
         23    2    1    2    0    0  0.26525248095E+02 -0.29279017595E+02 -0.28886537997E+03  0.31719308154E+03  0.12492955445E+03 0.  0.
          5    1    3    3  502    0  0.67046158934E+02 -0.14215111588E+02 -0.87814113096E+02  0.11149289342E+03  0.47000000000E+01 0. -1.
         -5    1    3    3    0  502 -0.40520910839E+02 -0.15063906007E+02 -0.20105126687E+03  0.20570018811E+03  0.47000000000E+01 0. -1.
        -11    1    1    2    0    0  0.20554972585E+02 -0.14393826062E+02  0.11807659969E+02  0.27732831818E+02  0.00000000000E+00 0.  1.
         11    1    1    2    0    0 -0.47080220681E+02  0.43672843657E+02 -0.50981514667E+02  0.81993775923E+02  0.00000000000E+00 0. -1.
<mgrwt>
<rscale>  0 0.12322489E+03</rscale>
<asrwt>0</asrwt>
<pdfrwt beam="2">  1        1 0.58073761E-01 0.13102764E+03</pdfrwt>
<pdfrwt beam="1">  1       -1 0.76061891E-02 0.13102764E+03</pdfrwt>
<totfact> 0.58093542E+03</totfact>
</mgrwt>
</event>
<event>
 7    1  0.5928109E-006  0.1506089E+03  0.7546771E-02  0.1207178E+00
          1   -1    0    0  501    0  0.00000000000E+00  0.00000000000E+00  0.11662434060E+04  0.11662434060E+04  0.00000000000E+00 0. -1.
         -1   -1    0    0    0  501 -0.00000000000E+00 -0.00000000000E+00 -0.85464780243E+02  0.85464780243E+02  0.00000000000E+00 0.  1.
         23    2    1    2    0    0  0.38196502718E+02  0.72204152366E+02  0.11100193766E+04  0.11201901877E+04  0.12653310926E+03 0.  0.
          5    1    3    3  502    0  0.87370752329E+01  0.52831057067E+02  0.10424054516E+04  0.10437905310E+04  0.47000000000E+01 0. -1.
         -5    1    3    3    0  502  0.29459427485E+02  0.19373095298E+02  0.67613924993E+02  0.76399656688E+02  0.47000000000E+01 0.  1.
        -11    1    1    2    0    0 -0.57917636673E+02 -0.81247234206E+02 -0.63501480460E+01  0.99979448309E+02  0.00000000000E+00 0.  1.
         11    1    1    2    0    0  0.19721133955E+02  0.90430818402E+01 -0.22890602808E+02  0.31538550229E+02  0.00000000000E+00 0. -1.
<mgrwt>
<rscale>  0 0.14467123E+03</rscale>
<asrwt>0</asrwt>
<pdfrwt beam="1">  1        1 0.17942205E+00 0.15060890E+03</pdfrwt>
<pdfrwt beam="2">  1       -1 0.13148429E-01 0.15060890E+03</pdfrwt>
<totfact> 0.48923371E+02</totfact>
</mgrwt>
</event>
<event>
 7    1  0.5928109E-006  0.1320476E+03  0.7546771E-02  0.1237409E+00
         -2   -1    0    0    0  501 -0.00000000000E+00  0.00000000000E+00  0.20395331784E+03  0.20395331784E+03  0.00000000000E+00 0.  1.
          2   -1    0    0  501    0  0.00000000000E+00 -0.00000000000E+00 -0.10000941784E+03  0.10000941784E+03  0.00000000000E+00 0. -1.
         23    2    1    2    0    0 -0.14013334855E+02 -0.40211192257E+02 -0.30727502235E+02  0.13557563802E+03  0.12499304258E+03 0.  0.
          5    1    3    3  502    0 -0.11027444969E+02  0.34227506192E+02  0.23585551997E+02  0.43260778838E+02  0.47000000000E+01 0.  1.
         -5    1    3    3    0  502 -0.29858898861E+01 -0.74438698449E+02 -0.54313054232E+02  0.92314859179E+02  0.47000000000E+01 0.  1.
        -11    1    1    2    0    0  0.31941165472E+02  0.18052583071E+02  0.67207331811E+01  0.37300161685E+02  0.00000000000E+00 0. -1.
         11    1    1    2    0    0 -0.17927830617E+02  0.22158609186E+02  0.12795066906E+03  0.13108693598E+03  0.00000000000E+00 0.  1.
<mgrwt>
<rscale>  0 0.12351445E+03</rscale>
<asrwt>0</asrwt>
<pdfrwt beam="2">  1        2 0.15386064E-01 0.13204762E+03</pdfrwt>
<pdfrwt beam="1">  1       -2 0.31377433E-01 0.13204762E+03</pdfrwt>
<totfact> 0.34112828E+03</totfact>
</mgrwt>
</event>
<event>
 7    1  0.5928109E-006  0.1475978E+03  0.7546771E-02  0.1213727E+00
         -2   -1    0    0    0  501 -0.00000000000E+00  0.00000000000E+00  0.56882848355E+02  0.56882848355E+02  0.00000000000E+00 0.  1.
          2   -1    0    0  501    0  0.00000000000E+00 -0.00000000000E+00 -0.36895169697E+03  0.36895169697E+03  0.00000000000E+00 0. -1.
         23    2    1    2    0    0 -0.63774763836E+02 -0.45767046235E+02 -0.25430400506E+03  0.29403339815E+03  0.12499307666E+03 0.  0.
          5    1    3    3  502    0  0.32826067662E+02 -0.20805142192E+02 -0.32881292313E+02  0.51124104334E+02  0.47000000000E+01 0. -1.
         -5    1    3    3    0  502 -0.96600831498E+02 -0.24961904043E+02 -0.22142271275E+03  0.24290929381E+03  0.47000000000E+01 0. -1.
        -11    1    1    2    0    0  0.27980377953E+02 -0.97152020395E+01  0.15287890968E+02  0.33331761299E+02  0.00000000000E+00 0. -1.
         11    1    1    2    0    0  0.35794385882E+02  0.55482248274E+02 -0.73052734518E+02  0.98469385876E+02  0.00000000000E+00 0.  1.
<mgrwt>
<rscale>  0 0.13970456E+03</rscale>
<asrwt>0</asrwt>
<pdfrwt beam="2">  1        2 0.56761799E-01 0.14759781E+03</pdfrwt>
<pdfrwt beam="1">  1       -2 0.87512075E-02 0.14759781E+03</pdfrwt>
<totfact> 0.68724483E+03</totfact>
</mgrwt>
</event>
<event>
 7    1  0.5928109E-006  0.1361946E+03  0.7546771E-02  0.1230434E+00
         -2   -1    0    0    0  501 -0.00000000000E+00  0.00000000000E+00  0.27402131818E+03  0.27402131818E+03  0.00000000000E+00 0.  1.
          2   -1    0    0  501    0  0.00000000000E+00 -0.00000000000E+00 -0.53662460712E+02  0.53662460712E+02  0.00000000000E+00 0. -1.
         23    2    1    2    0    0  0.21419137115E+02 -0.49649821113E+02  0.12119984445E+03  0.18231392814E+03  0.12500032772E+03 0.  0.
          5    1    3    3  502    0 -0.31494489877E+02 -0.70901166904E+02  0.57431150425E+02  0.96640081747E+02  0.47000000000E+01 0. -1.
         -5    1    3    3    0  502  0.52913626993E+02  0.21251345791E+02  0.63768694021E+02  0.85673846397E+02  0.47000000000E+01 0. -1.
        -11    1    1    2    0    0 -0.19142586903E+02  0.37692130915E+02  0.11664212961E+03  0.12406660214E+03  0.00000000000E+00 0.  1.
         11    1    1    2    0    0 -0.22765502121E+01  0.11957690198E+02 -0.17483116587E+02  0.21303248610E+02  0.00000000000E+00 0. -1.
<mgrwt>
<rscale>  0 0.12801302E+03</rscale>
<asrwt>0</asrwt>
<pdfrwt beam="2">  1        2 0.82557633E-02 0.13619459E+03</pdfrwt>
<pdfrwt beam="1">  1       -2 0.42157125E-01 0.13619459E+03</pdfrwt>
<totfact> 0.41912595E+03</totfact>
</mgrwt>
</event>
<event>
 7    1  0.5928109E-006  0.1452917E+03  0.7546771E-02  0.1217332E+00
          2   -1    0    0  501    0  0.00000000000E+00  0.00000000000E+00  0.31365828355E+03  0.31365828355E+03  0.00000000000E+00 0. -1.
         -2   -1    0    0    0  501 -0.00000000000E+00 -0.00000000000E+00 -0.59251682906E+02  0.59251682906E+02  0.00000000000E+00 0.  1.
         23    2    1    2    0    0  0.73753290855E+02 -0.67829906924E+01  0.19565385268E+03  0.24370085376E+03  0.12499647668E+03 0.  0.
          5    1    3    3  502    0  0.30930277283E+02  0.13730564090E+02  0.19290464643E+03  0.19590687343E+03  0.47000000000E+01 0.  1.
         -5    1    3    3    0  502  0.42823013571E+02 -0.20513554783E+02  0.27492062525E+01  0.47793980334E+02  0.47000000000E+01 0.  1.
        -11    1    1    2    0    0 -0.27558572930E+02 -0.32306669412E+02  0.53733672720E+02  0.68487250014E+02  0.00000000000E+00 0. -1.
         11    1    1    2    0    0 -0.46194717925E+02  0.39089660104E+02  0.50190752449E+01  0.60721862682E+02  0.00000000000E+00 0.  1.
<mgrwt>
<rscale>  0 0.13706587E+03</rscale>
<asrwt>0</asrwt>
<pdfrwt beam="1">  1        2 0.48255120E-01 0.14529169E+03</pdfrwt>
<pdfrwt beam="2">  1       -2 0.91156437E-02 0.14529169E+03</pdfrwt>
<totfact> 0.76575754E+03</totfact>
</mgrwt>
</event>
<event>
 7    1  0.5928109E-006  0.2302629E+03  0.7546771E-02  0.1129506E+00
         -2   -1    0    0    0  501 -0.00000000000E+00  0.00000000000E+00  0.77422262844E+02  0.77422262844E+02  0.00000000000E+00 0.  1.
          2   -1    0    0  501    0  0.00000000000E+00 -0.00000000000E+00 -0.63636845386E+03  0.63636845386E+03  0.00000000000E+00 0. -1.
         23    2    1    2    0    0  0.17244899085E+03 -0.87513573357E+02 -0.28284616173E+03  0.36472314367E+03  0.12499496133E+03 0.  0.
          5    1    3    3  502    0  0.13152129481E+03 -0.93649336852E+02 -0.13311791084E+03  0.20930962105E+03  0.47000000000E+01 0. -1.
         -5    1    3    3    0  502  0.40927696041E+02  0.61357634947E+01 -0.14972825089E+03  0.15541352261E+03  0.47000000000E+01 0. -1.
        -11    1    1    2    0    0 -0.34213172716E+02  0.64068907381E+02 -0.80754004772E+02  0.10861204062E+03  0.00000000000E+00 0.  1.
         11    1    1    2    0    0 -0.13823581813E+03  0.23444665975E+02 -0.19534602452E+03  0.24045553242E+03  0.00000000000E+00 0. -1.
<mgrwt>
<rscale>  0 0.22597417E+03</rscale>
<asrwt>0</asrwt>
<pdfrwt beam="2">  1        2 0.97902839E-01 0.23026294E+03</pdfrwt>
<pdfrwt beam="1">  1       -2 0.11911117E-01 0.23026294E+03</pdfrwt>
<totfact> 0.23429304E+03</totfact>
</mgrwt>
</event>
<event>
 7    1  0.5928109E-006  0.1713580E+03  0.7546771E-02  0.1179962E+00
          1   -1    0    0  501    0  0.00000000000E+00  0.00000000000E+00  0.28436933122E+03  0.28436933122E+03  0.00000000000E+00 0. -1.
         -1   -1    0    0    0  501 -0.00000000000E+00 -0.00000000000E+00 -0.10988914745E+03  0.10988914745E+03  0.00000000000E+00 0.  1.
         23    2    1    2    0    0 -0.10532046163E+03  0.71985513700E+02  0.16147452719E+03  0.23545187513E+03  0.11440825473E+03 0.  0.
          5    1    3    3  502    0  0.36391829907E+01  0.37607476596E+01  0.86032722090E+02  0.86319790002E+02  0.47000000000E+01 0. -1.
         -5    1    3    3    0  502 -0.10895964462E+03  0.68224766040E+02  0.75441805099E+02  0.14913208512E+03  0.47000000000E+01 0.  1.
        -11    1    1    2    0    0  0.80457268286E+02 -0.94794864996E+02  0.69785893506E+01  0.12453167934E+03  0.00000000000E+00 0.  1.
         11    1    1    2    0    0  0.24863193344E+02  0.22809351297E+02  0.60270672249E+01  0.34274924204E+02  0.00000000000E+00 0. -1.
<mgrwt>
<rscale>  0 0.16798871E+03</rscale>
<asrwt>0</asrwt>
<pdfrwt beam="1">  1        1 0.43749128E-01 0.17135800E+03</pdfrwt>
<pdfrwt beam="2">  1       -1 0.16906023E-01 0.17135800E+03</pdfrwt>
<totfact> 0.24419762E+03</totfact>
</mgrwt>
</event>
<event>
 7    1  0.5928109E-006  0.1996390E+03  0.7546771E-02  0.1153873E+00
          3   -1    0    0  501    0  0.00000000000E+00  0.00000000000E+00  0.22019804399E+04  0.22019804399E+04  0.00000000000E+00 0. -1.
         -3   -1    0    0    0  501 -0.00000000000E+00 -0.00000000000E+00 -0.22502320857E+02  0.22502320857E+02  0.00000000000E+00 0.  1.
         23    2    1    2    0    0 -0.12994830080E+03 -0.85688393852E+02  0.16966694232E+04  0.17083743297E+04  0.12500662784E+03 0.  0.
          5    1    3    3  502    0 -0.84914881415E+02  0.16757662126E+02  0.82392313860E+03  0.82847014710E+03  0.47000000000E+01 0.  1.
         -5    1    3    3    0  502 -0.45033419389E+02 -0.10244605598E+03  0.87274628462E+03  0.87990418260E+03  0.47000000000E+01 0.  1.
        -11    1    1    2    0    0  0.12914541521E+03  0.49963701224E+02  0.43441892656E+03  0.45595472743E+03  0.00000000000E+00 0.  1.
         11    1    1    2    0    0  0.80288559776E+00  0.35724692628E+02  0.48389769214E+02  0.60153703571E+02  0.00000000000E+00 0. -1.
<mgrwt>
<rscale>  0 0.19517773E+03</rscale>
<asrwt>0</asrwt>
<pdfrwt beam="1">  1        3 0.33876605E+00 0.19963897E+03</pdfrwt>
<pdfrwt beam="2">  1       -3 0.34618973E-02 0.19963897E+03</pdfrwt>
<totfact> 0.28280894E+01</totfact>
</mgrwt>
</event>
<event>
 6    1  0.5928109E-006  0.1782967E+03  0.7546771E-02  0.1184977E+00
          1   -1    0    0  501    0  0.00000000000E+00  0.00000000000E+00  0.86760855083E+03  0.86760855083E+03  0.00000000000E+00 0. -1.
         -1   -1    0    0    0  501 -0.00000000000E+00 -0.00000000000E+00 -0.41836075464E+02  0.41836075464E+02  0.00000000000E+00 0.  1.
          5    1    1    2  502    0  0.42899609351E+02  0.36364807400E+02  0.66627997267E+02  0.87316411513E+02  0.47000000000E+01 0.  1.
         -5    1    1    2    0  502  0.30928194884E+02  0.62125095326E+01  0.66350709447E+03  0.66427321406E+03  0.47000000000E+01 0. -1.
        -11    1    1    2    0    0  0.13801020994E+02 -0.21264277501E+02  0.51606680505E+02  0.57496844703E+02  0.00000000000E+00 0. -1.
         11    1    1    2    0    0 -0.87628825229E+02 -0.21313039432E+02  0.44030703127E+02  0.10035815601E+03  0.00000000000E+00 0.  1.
<mgrwt>
<rscale>  0 0.16333989E+03</rscale>
<asrwt>0</asrwt>
<pdfrwt beam="1">  1        1 0.13347822E+00 0.17829670E+03</pdfrwt>
<pdfrwt beam="2">  1       -1 0.64363200E-02 0.17829670E+03</pdfrwt>
<totfact> 0.24146610E+03</totfact>
</mgrwt>
</event>
<event>
 7    1  0.5928109E-006  0.1474538E+03  0.7546771E-02  0.1213357E+00
          2   -1    0    0  501    0  0.00000000000E+00  0.00000000000E+00  0.15016860211E+04  0.15016860211E+04  0.00000000000E+00 0. -1.
         -2   -1    0    0    0  501 -0.00000000000E+00 -0.00000000000E+00 -0.19012670372E+02  0.19012670372E+02  0.00000000000E+00 0.  1.
         23    2    1    2    0    0  0.53272589843E+02  0.57259960441E+02  0.12533121441E+04  0.12619564002E+04  0.12500381440E+03 0.  0.
          5    1    3    3  502    0 -0.78269033264E+01  0.37564575277E+02  0.10581710019E+03  0.11265747390E+03  0.47000000000E+01 0.  1.
         -5    1    3    3    0  502  0.61099493169E+02  0.19695385164E+02  0.11474950439E+04  0.11492989263E+04  0.47000000000E+01 0.  1.
        -11    1    1    2    0    0 -0.63460074109E+02 -0.20444360734E+02  0.19922990762E+03  0.21008976410E+03  0.00000000000E+00 0. -1.
         11    1    1    2    0    0  0.10187484266E+02 -0.36815599707E+02  0.30131299003E+02  0.48652527140E+02  0.00000000000E+00 0.  1.
<mgrwt>
<rscale>  0 0.13997951E+03</rscale>
<asrwt>0</asrwt>
<pdfrwt beam="1">  1        2 0.23102853E+00 0.14745381E+03</pdfrwt>
<pdfrwt beam="2">  1       -2 0.29250274E-02 0.14745381E+03</pdfrwt>
<totfact> 0.59037896E+03</totfact>
</mgrwt>
</event>
<event>
 7    1  0.5928109E-006  0.1316781E+03  0.7546771E-02  0.1243715E+00
         -2   -1    0    0    0  501 -0.00000000000E+00  0.00000000000E+00  0.46693722142E+02  0.46693722142E+02  0.00000000000E+00 0.  1.
          2   -1    0    0  501    0  0.00000000000E+00 -0.00000000000E+00 -0.30801647323E+03  0.30801647323E+03  0.00000000000E+00 0. -1.
         23    2    1    2    0    0 -0.33509556366E+02  0.24301885734E+02 -0.21898328336E+03  0.25552458499E+03  0.12500265247E+03 0.  0.
          5    1    3    3  502    0 -0.33397661111E+02 -0.32373559930E+02 -0.18147315215E+03  0.18739809524E+03  0.47000000000E+01 0.  1.
         -5    1    3    3    0  502 -0.11189525557E+00  0.56675445664E+02 -0.37510131211E+02  0.68126489747E+02  0.47000000000E+01 0.  1.
        -11    1    1    2    0    0 -0.81906854033E+00 -0.10546981146E+02  0.22318489066E+02  0.24698676862E+02  0.00000000000E+00 0.  1.
         11    1    1    2    0    0  0.34328624907E+02 -0.13754904588E+02 -0.64657956794E+02  0.74486933519E+02  0.00000000000E+00 0. -1.
<mgrwt>
<rscale>  0 0.11962641E+03</rscale>
<asrwt>0</asrwt>
<pdfrwt beam="2">  1        2 0.47387150E-01 0.13167815E+03</pdfrwt>
<pdfrwt beam="1">  1       -2 0.71836495E-02 0.13167815E+03</pdfrwt>
<totfact> 0.11204174E+04</totfact>
</mgrwt>
</event>
<event>
 7    1  0.5928109E-006  0.1551225E+03  0.7546771E-02  0.1202568E+00
          2   -1    0    0  501    0  0.00000000000E+00  0.00000000000E+00  0.27739790221E+03  0.27739790221E+03  0.00000000000E+00 0. -1.
         -2   -1    0    0    0  501 -0.00000000000E+00 -0.00000000000E+00 -0.73184679366E+02  0.73184679366E+02  0.00000000000E+00 0.  1.
         23    2    1    2    0    0 -0.34181859725E+02  0.85256252809E+02  0.11832462861E+03  0.19509923629E+03  0.12500386430E+03 0.  0.
          5    1    3    3  502    0  0.19296012707E+02  0.96646631410E+02  0.62380908233E+02  0.11673206578E+03  0.47000000000E+01 0. -1.
         -5    1    3    3    0  502 -0.53477872433E+02 -0.11390378602E+02  0.55943720379E+02  0.78367170514E+02  0.47000000000E+01 0. -1.
        -11    1    1    2    0    0  0.34269411462E+02 -0.30057527766E+02 -0.82798683810E+01  0.46329296970E+02  0.00000000000E+00 0.  1.
         11    1    1    2    0    0 -0.87551736883E-01 -0.55198725043E+02  0.94168462610E+02  0.10915404831E+03  0.00000000000E+00 0. -1.
<mgrwt>
<rscale>  0 0.14830781E+03</rscale>
<asrwt>0</asrwt>
<pdfrwt beam="1">  1        2 0.42676600E-01 0.15512251E+03</pdfrwt>
<pdfrwt beam="2">  1       -2 0.11259182E-01 0.15512251E+03</pdfrwt>
<totfact> 0.62803583E+03</totfact>
</mgrwt>
</event>
<event>
 7    1  0.5928109E-006  0.1319435E+03  0.7546771E-02  0.1237558E+00
         -1   -1    0    0    0  501 -0.00000000000E+00  0.00000000000E+00  0.19512584025E+03  0.19512584025E+03  0.00000000000E+00 0.  1.
          1   -1    0    0  501    0  0.00000000000E+00 -0.00000000000E+00 -0.69592208552E+02  0.69592208552E+02  0.00000000000E+00 0. -1.
         23    2    1    2    0    0  0.35101746006E+02  0.23464381173E+02  0.74957229824E+02  0.15174872598E+03  0.12500551899E+03 0.  0.
          5    1    3    3  502    0  0.12311366148E+02 -0.34133137918E+02 -0.17343045185E+02  0.40490888566E+02  0.47000000000E+01 0.  1.
         -5    1    3    3    0  502  0.22790379858E+02  0.57597519092E+02  0.92300275009E+02  0.11125783742E+03  0.47000000000E+01 0.  1.
        -11    1    1    2    0    0 -0.18866801065E+02  0.15097227780E+01 -0.25218652743E+02  0.31531189186E+02  0.00000000000E+00 0. -1.
         11    1    1    2    0    0 -0.16234944941E+02 -0.24974103951E+02  0.75795054618E+02  0.81438133635E+02  0.00000000000E+00 0.  1.
<mgrwt>
<rscale>  0 0.12342065E+03</rscale>
<asrwt>0</asrwt>
<pdfrwt beam="2">  1        1 0.10706494E-01 0.13194351E+03</pdfrwt>
<pdfrwt beam="1">  1       -1 0.30019360E-01 0.13194351E+03</pdfrwt>
<totfact> 0.56690011E+03</totfact>
</mgrwt>
</event>
<event>
 6    1  0.5928109E-006  0.2047720E+03  0.7546771E-02  0.1153235E+00
         -1   -1    0    0    0  501 -0.00000000000E+00  0.00000000000E+00  0.24228545047E+03  0.24228545047E+03  0.00000000000E+00 0.  1.
          1   -1    0    0  501    0  0.00000000000E+00 -0.00000000000E+00 -0.15337758751E+03  0.15337758751E+03  0.00000000000E+00 0. -1.
          5    1    1    2  502    0  0.13188986217E+03 -0.73649552221E+02 -0.37818730069E+02  0.15579325604E+03  0.47000000000E+01 0. -1.
         -5    1    1    2    0  502  0.62169005644E+01  0.21899196414E+02  0.43191574494E+02  0.49049227960E+02  0.47000000000E+01 0.  1.
        -11    1    1    2    0    0 -0.12333286583E+03  0.72117942624E+01  0.50667146594E+02  0.13352964283E+03  0.00000000000E+00 0. -1.
         11    1    1    2    0    0 -0.14773896901E+02  0.44538561544E+02  0.32867871939E+02  0.57290911145E+02  0.00000000000E+00 0.  1.
<mgrwt>
<rscale>  0 0.19591145E+03</rscale>
<asrwt>0</asrwt>
<pdfrwt beam="2">  1        1 0.23596552E-01 0.20477201E+03</pdfrwt>
<pdfrwt beam="1">  1       -1 0.37274685E-01 0.20477201E+03</pdfrwt>
<totfact> 0.14324765E+03</totfact>
</mgrwt>
</event>
<event>
 7    1  0.5928109E-006  0.1277236E+03  0.7546771E-02  0.1244726E+00
         -2   -1    0    0    0  501 -0.00000000000E+00  0.00000000000E+00  0.13827232488E+03  0.13827232488E+03  0.00000000000E+00 0.  1.
          2   -1    0    0  501    0  0.00000000000E+00 -0.00000000000E+00 -0.97765924583E+02  0.97765924583E+02  0.00000000000E+00 0. -1.
         23    2    1    2    0    0 -0.10210378793E+02 -0.24224486753E+02 -0.84586443497E+01  0.12800339535E+03  0.12498897136E+03 0.  0.
          5    1    3    3  502    0 -0.28145057084E+01  0.46631287001E+02  0.20144912620E+02  0.51091152602E+02  0.47000000000E+01 0. -1.
         -5    1    3    3    0  502 -0.73958730843E+01 -0.70855773754E+02 -0.28603556969E+02  0.76912242746E+02  0.47000000000E+01 0. -1.
        -11    1    1    2    0    0  0.87056027802E+01 -0.24244137437E+02 -0.13399236891E+02  0.29036275055E+02  0.00000000000E+00 0. -1.
         11    1    1    2    0    0  0.15047760125E+01  0.48468624190E+02  0.62364281536E+02  0.78998579059E+02  0.00000000000E+00 0.  1.
<mgrwt>
<rscale>  0 0.11901769E+03</rscale>
<asrwt>0</asrwt>
<pdfrwt beam="2">  1        2 0.15040911E-01 0.12772361E+03</pdfrwt>
<pdfrwt beam="1">  1       -2 0.21272665E-01 0.12772361E+03</pdfrwt>
<totfact> 0.69123249E+03</totfact>
</mgrwt>
</event>
<event>
 7    1  0.5928109E-006  0.1831352E+03  0.7546771E-02  0.1168298E+00
         -1   -1    0    0    0  501 -0.00000000000E+00  0.00000000000E+00  0.63862639969E+03  0.63862639969E+03  0.00000000000E+00 0.  1.
          1   -1    0    0  501    0  0.00000000000E+00 -0.00000000000E+00 -0.48971142167E+02  0.48971142167E+02  0.00000000000E+00 0. -1.
         23    2    1    2    0    0  0.33187080753E+02  0.13894888245E+03  0.27422487205E+03  0.32975410475E+03  0.11458758610E+03 0.  0.
          5    1    3    3  502    0 -0.39178282156E+02  0.21138631088E+02  0.64495641934E+02  0.78508326600E+02  0.47000000000E+01 0. -1.
         -5    1    3    3    0  502  0.72365362910E+02  0.11781025136E+03  0.20972923012E+03  0.25124577815E+03  0.47000000000E+01 0.  1.
        -11    1    1    2    0    0  0.65167509802E+01 -0.12686496685E+03  0.22607793403E+03  0.25932300344E+03  0.00000000000E+00 0. -1.
         11    1    1    2    0    0 -0.39703831733E+02 -0.12083915593E+02  0.89352451446E+02  0.98520433666E+02  0.00000000000E+00 0.  1.
<mgrwt>
<rscale>  0 0.17948998E+03</rscale>
<asrwt>0</asrwt>
<pdfrwt beam="2">  1        1 0.75340223E-02 0.18313517E+03</pdfrwt>
<pdfrwt beam="1">  1       -1 0.98250210E-01 0.18313517E+03</pdfrwt>
<totfact> 0.98176491E+02</totfact>
</mgrwt>
</event>
<event>
 7    1  0.5928109E-006  0.1249454E+03  0.7546771E-02  0.1248240E+00
          1   -1    0    0  501    0  0.00000000000E+00  0.00000000000E+00  0.25190668656E+03  0.25190668656E+03  0.00000000000E+00 0. -1.
         -1   -1    0    0    0  501 -0.00000000000E+00 -0.00000000000E+00 -0.62540365915E+02  0.62540365915E+02  0.00000000000E+00 0.  1.
         23    2    1    2    0    0  0.28554450806E+02 -0.33422717942E+01  0.17863062120E+03  0.21799143023E+03  0.12159291665E+03 0.  0.
          5    1    3    3  502    0  0.47293139981E+01  0.24449077142E+02  0.17929689767E+03  0.18107896426E+03  0.47000000000E+01 0. -1.
         -5    1    3    3    0  502  0.23825136808E+02 -0.27791348936E+02 -0.66627646622E+00  0.36912465969E+02  0.47000000000E+01 0.  1.
        -11    1    1    2    0    0 -0.49792760976E+02 -0.22191797548E+02  0.25410771611E+02  0.60145675139E+02  0.00000000000E+00 0.  1.
         11    1    1    2    0    0  0.21238310170E+02  0.25534069342E+02 -0.14675072165E+02  0.36309947109E+02  0.00000000000E+00 0. -1.
<mgrwt>
<rscale>  0 0.11693526E+03</rscale>
<asrwt>0</asrwt>
<pdfrwt beam="1">  1        1 0.38754874E-01 0.12494545E+03</pdfrwt>
<pdfrwt beam="2">  1       -1 0.96215949E-02 0.12494545E+03</pdfrwt>
<totfact> 0.67000108E+03</totfact>
</mgrwt>
</event>
<event>
 7    1  0.5928109E-006  0.1869348E+03  0.7546771E-02  0.1166123E+00
          2   -1    0    0  501    0  0.00000000000E+00  0.00000000000E+00  0.10961039156E+04  0.10961039156E+04  0.00000000000E+00 0.  1.
         -2   -1    0    0    0  501 -0.00000000000E+00 -0.00000000000E+00 -0.29274812787E+02  0.29274812787E+02  0.00000000000E+00 0. -1.
         23    2    1    2    0    0 -0.79163821520E+02  0.11424630581E+03  0.64944676204E+03  0.67581485968E+03  0.12500199524E+03 0.  0.
          5    1    3    3  502    0 -0.57396053967E+02  0.82566366511E+02  0.19251859617E+03  0.21724873247E+03  0.47000000000E+01 0.  1.
         -5    1    3    3    0  502 -0.21767767554E+02  0.31679939300E+02  0.45692816587E+03  0.45856612721E+03  0.47000000000E+01 0.  1.
        -11    1    1    2    0    0  0.28421853643E+02 -0.11181050347E+03  0.31001531906E+03  0.33078526041E+03  0.00000000000E+00 0. -1.
         11    1    1    2    0    0  0.50741967877E+02 -0.24358023371E+01  0.10736702171E+03  0.11877860829E+03  0.00000000000E+00 0.  1.
<mgrwt>
<rscale>  0 0.18174711E+03</rscale>
<asrwt>0</asrwt>
<pdfrwt beam="1">  1        2 0.16863134E+00 0.18693482E+03</pdfrwt>
<pdfrwt beam="2">  1       -2 0.45038182E-02 0.18693482E+03</pdfrwt>
<totfact> 0.52107896E+03</totfact>
</mgrwt>
</event>
<event>
 7    1  0.5928109E-006  0.1699684E+03  0.7546771E-02  0.1183890E+00
          2   -1    0    0  501    0  0.00000000000E+00  0.00000000000E+00  0.24452289350E+03  0.24452289350E+03  0.00000000000E+00 0. -1.
         -2   -1    0    0    0  501 -0.00000000000E+00 -0.00000000000E+00 -0.10422902940E+03  0.10422902940E+03  0.00000000000E+00 0.  1.
         23    2    1    2    0    0  0.12420773151E+02  0.11450127190E+03  0.87150000045E+02  0.19100882557E+03  0.12499772825E+03 0.  0.
          5    1    3    3  502    0  0.41953724222E+02 -0.85751487901E+01  0.17826794163E+02  0.46621161965E+02  0.47000000000E+01 0.  1.
         -5    1    3    3    0  502 -0.29532951071E+02  0.12307642069E+03  0.69323205882E+02  0.14438766361E+03  0.47000000000E+01 0.  1.
        -11    1    1    2    0    0 -0.48156648043E+02 -0.97636853806E+02  0.35949910202E+02  0.11464909077E+03  0.00000000000E+00 0. -1.
         11    1    1    2    0    0  0.35735874892E+02 -0.16864418093E+02  0.17193953845E+02  0.43094006552E+02  0.00000000000E+00 0.  1.
<mgrwt>
<rscale>  0 0.16433247E+03</rscale>
<asrwt>0</asrwt>
<pdfrwt beam="1">  1        2 0.37618907E-01 0.16996838E+03</pdfrwt>
<pdfrwt beam="2">  1       -2 0.16035235E-01 0.16996838E+03</pdfrwt>
<totfact> 0.40700908E+03</totfact>
</mgrwt>
</event>
<event>
 7    1  0.5928109E-006  0.1997830E+03  0.7546771E-02  0.1154888E+00
          1   -1    0    0  501    0  0.00000000000E+00  0.00000000000E+00  0.17114145502E+03  0.17114145502E+03  0.00000000000E+00 0. -1.
         -1   -1    0    0    0  501 -0.00000000000E+00 -0.00000000000E+00 -0.35178856919E+03  0.35178856919E+03  0.00000000000E+00 0.  1.
         23    2    1    2    0    0 -0.12299201367E+03 -0.95710277322E+02  0.73455467427E+02  0.21285900067E+03  0.12500302339E+03 0.  0.
          5    1    3    3  502    0  0.44872676046E+01  0.23387603749E+02  0.22718565142E+01  0.24379641336E+02  0.47000000000E+01 0. -1.
         -5    1    3    3    0  502 -0.12747928128E+03 -0.11909788107E+03  0.71183610913E+02  0.18847935933E+03  0.47000000000E+01 0. -1.
        -11    1    1    2    0    0  0.63584895225E+02  0.56134393094E+02 -0.61791962068E+02  0.10493977113E+03  0.00000000000E+00 0. -1.
         11    1    1    2    0    0  0.59407118449E+02  0.39575884228E+02 -0.19231061953E+03  0.20513125242E+03  0.00000000000E+00 0.  1.
<mgrwt>
<rscale>  0 0.19401638E+03</rscale>
<asrwt>0</asrwt>
<pdfrwt beam="1">  1        1 0.26329455E-01 0.19978300E+03</pdfrwt>
<pdfrwt beam="2">  1       -1 0.54121318E-01 0.19978300E+03</pdfrwt>
<totfact> 0.63494965E+02</totfact>
</mgrwt>
</event>
<event>
 7    1  0.5928109E-006  0.1395722E+03  0.7546771E-02  0.1225328E+00
         -1   -1    0    0    0  501 -0.00000000000E+00  0.00000000000E+00  0.51327231380E+02  0.51327231380E+02  0.00000000000E+00 0.  1.
          1   -1    0    0  501    0  0.00000000000E+00 -0.00000000000E+00 -0.38034836790E+03  0.38034836790E+03  0.00000000000E+00 0. -1.
         23    2    1    2    0    0  0.25540616079E+02 -0.56594090626E+02 -0.27701111246E+03  0.31018632617E+03  0.12500074543E+03 0.  0.
          5    1    3    3  502    0 -0.49844200775E+02 -0.14313977567E+02 -0.87087766362E+02  0.10146774539E+03  0.47000000000E+01 0.  1.
         -5    1    3    3    0  502  0.75384816854E+02 -0.42280113059E+02 -0.18992334610E+03  0.20871858078E+03  0.47000000000E+01 0.  1.
        -11    1    1    2    0    0  0.19520934988E+01  0.20063348572E+02 -0.69631534032E+02  0.72490683240E+02  0.00000000000E+00 0. -1.
         11    1    1    2    0    0 -0.27492709578E+02  0.36530742054E+02  0.17621509971E+02  0.48998589863E+02  0.00000000000E+00 0.  1.
<mgrwt>
<rscale>  0 0.13144477E+03</rscale>
<asrwt>0</asrwt>
<pdfrwt beam="2">  1        1 0.58515135E-01 0.13957221E+03</pdfrwt>
<pdfrwt beam="1">  1       -1 0.78964969E-02 0.13957221E+03</pdfrwt>
<totfact> 0.54587186E+03</totfact>
</mgrwt>
</event>
<event>
 7    1  0.5928109E-006  0.1390357E+03  0.7546771E-02  0.1219456E+00
         -2   -1    0    0    0  501 -0.00000000000E+00  0.00000000000E+00  0.19116320485E+02  0.19116320485E+02  0.00000000000E+00 0.  1.
          2   -1    0    0  501    0  0.00000000000E+00 -0.00000000000E+00 -0.10247089119E+04  0.10247089119E+04  0.00000000000E+00 0. -1.
         23    2    1    2    0    0  0.82508119657E+02 -0.10939133496E+02 -0.69564991483E+03  0.70940800877E+03  0.11137173987E+03 0.  0.
          5    1    3    3  502    0  0.74549266919E+02 -0.53176747277E+02 -0.54566906091E+03  0.55331923307E+03  0.47000000000E+01 0. -1.
         -5    1    3    3    0  502  0.79588527377E+01  0.42237613781E+02 -0.14998085392E+03  0.15608877570E+03  0.47000000000E+01 0.  1.
        -11    1    1    2    0    0 -0.20111397910E+02  0.37959742620E+02 -0.50929096630E+02  0.66627196168E+02  0.00000000000E+00 0.  1.
         11    1    1    2    0    0 -0.62396721747E+02 -0.27020609124E+02 -0.25901357992E+03  0.26779002742E+03  0.00000000000E+00 0. -1.
<mgrwt>
<rscale>  0 0.13554237E+03</rscale>
<asrwt>0</asrwt>
<pdfrwt beam="2">  1        2 0.15764756E+00 0.13903567E+03</pdfrwt>
<pdfrwt beam="1">  1       -2 0.29409717E-02 0.13903567E+03</pdfrwt>
<totfact> 0.10678039E+04</totfact>
</mgrwt>
</event>
<event>
 7    1  0.5928109E-006  0.1326012E+03  0.7546771E-02  0.1237099E+00
         -1   -1    0    0    0  501 -0.00000000000E+00  0.00000000000E+00  0.10620997231E+03  0.10620997231E+03  0.00000000000E+00 0.  1.
          1   -1    0    0  501    0  0.00000000000E+00 -0.00000000000E+00 -0.12924499806E+03  0.12924499806E+03  0.00000000000E+00 0. -1.
         23    2    1    2    0    0 -0.44251265455E+02  0.53410124678E+00 -0.25200300989E+02  0.13497460462E+03  0.12499851585E+03 0.  0.
          5    1    3    3  502    0 -0.66578111887E+02 -0.79223833138E+01 -0.61613421922E+02  0.91179564052E+02  0.47000000000E+01 0.  1.
         -5    1    3    3    0  502  0.22326846432E+02  0.84564845606E+01  0.36413120933E+02  0.43795040573E+02  0.47000000000E+01 0.  1.
        -11    1    1    2    0    0 -0.52861230749E+01  0.34023879541E+02  0.16830131130E+02  0.38325197847E+02  0.00000000000E+00 0.  1.
         11    1    1    2    0    0  0.49537388530E+02 -0.34557980787E+02 -0.14664855885E+02  0.62155167899E+02  0.00000000000E+00 0. -1.
<mgrwt>
<rscale>  0 0.12371028E+03</rscale>
<asrwt>0</asrwt>
<pdfrwt beam="2">  1        1 0.19883846E-01 0.13260124E+03</pdfrwt>
<pdfrwt beam="1">  1       -1 0.16339996E-01 0.13260124E+03</pdfrwt>
<totfact> 0.68240975E+03</totfact>
</mgrwt>
</event>
<event>
 7    1  0.5928109E-006  0.1313741E+03  0.7546771E-02  0.1236371E+00
          1   -1    0    0  501    0  0.00000000000E+00  0.00000000000E+00  0.98389493457E+03  0.98389493457E+03  0.00000000000E+00 0. -1.
         -1   -1    0    0    0  501 -0.00000000000E+00 -0.00000000000E+00 -0.23250769921E+02  0.23250769921E+02  0.00000000000E+00 0.  1.
         23    2    1    2    0    0  0.54968061284E+00 -0.40416138326E+02  0.82656923104E+03  0.83694435260E+03  0.12500155705E+03 0.  0.
          5    1    3    3  502    0 -0.56753702666E+02 -0.33555849444E+02  0.29968248559E+03  0.30688541830E+03  0.47000000000E+01 0. -1.
         -5    1    3    3    0  502  0.57303383279E+02 -0.68602888817E+01  0.52688674545E+03  0.53005893430E+03  0.47000000000E+01 0. -1.
        -11    1    1    2    0    0  0.27956749875E+02  0.39990746952E+02  0.20196608277E+02  0.52808547521E+02  0.00000000000E+00 0.  1.
         11    1    1    2    0    0 -0.28506430488E+02  0.42539137335E+00  0.11387832533E+03  0.11739280437E+03  0.00000000000E+00 0. -1.
<mgrwt>
<rscale>  0 0.12417065E+03</rscale>
<asrwt>0</asrwt>
<pdfrwt beam="1">  1        1 0.15136842E+00 0.13137411E+03</pdfrwt>
<pdfrwt beam="2">  1       -1 0.35770423E-02 0.13137411E+03</pdfrwt>
<totfact> 0.46613825E+03</totfact>
</mgrwt>
</event>
<event>
 7    1  0.5928109E-006  0.1272196E+03  0.7546771E-02  0.1242262E+00
          1   -1    0    0  501    0  0.00000000000E+00  0.00000000000E+00  0.59794686035E+02  0.59794686035E+02  0.00000000000E+00 0. -1.
         -1   -1    0    0    0  501 -0.00000000000E+00 -0.00000000000E+00 -0.22660361202E+03  0.22660361202E+03  0.00000000000E+00 0.  1.
         23    2    1    2    0    0 -0.13350758207E+02  0.50607565699E+02 -0.11556329558E+03  0.17187115371E+03  0.11595451582E+03 0.  0.
          5    1    3    3  502    0  0.13538392087E+02  0.60697007848E+02 -0.12629451902E+03  0.14085386171E+03  0.47000000000E+01 0. -1.
         -5    1    3    3    0  502 -0.26889150294E+02 -0.10089442149E+02  0.10731223443E+02  0.31017292000E+02  0.47000000000E+01 0.  1.
        -11    1    1    2    0    0  0.27690253839E+02 -0.70935203556E+02 -0.30112415786E+02  0.81885962446E+02  0.00000000000E+00 0.  1.
         11    1    1    2    0    0 -0.14339495632E+02  0.20327637858E+02 -0.21133214615E+02  0.32641181900E+02  0.00000000000E+00 0. -1.
<mgrwt>
<rscale>  0 0.12050753E+03</rscale>
<asrwt>0</asrwt>
<pdfrwt beam="1">  1        1 0.91991827E-02 0.12721957E+03</pdfrwt>
<pdfrwt beam="2">  1       -1 0.34862093E-01 0.12721957E+03</pdfrwt>
<totfact> 0.53649670E+03</totfact>
</mgrwt>
</event>
<event>
 6    1  0.5928109E-006  0.1998734E+03  0.7546771E-02  0.1157966E+00
         -2   -1    0    0    0  501 -0.00000000000E+00  0.00000000000E+00  0.69177565951E+03  0.69177565951E+03  0.00000000000E+00 0.  1.
          2   -1    0    0  501    0  0.00000000000E+00 -0.00000000000E+00 -0.48310263301E+02  0.48310263301E+02  0.00000000000E+00 0. -1.
          5    1    1    2  502    0 -0.11932743967E+03  0.70323482616E+02  0.17575152800E+03  0.22381939072E+03  0.47000000000E+01 0. -1.
         -5    1    1    2    0  502 -0.10626568674E+02 -0.25596066873E+02  0.19831702509E+03  0.20029931363E+03  0.47000000000E+01 0.  1.
        -11    1    1    2    0    0  0.87867541334E+02 -0.62244587189E+02  0.12728618098E+03  0.16672391947E+03  0.00000000000E+00 0.  1.
         11    1    1    2    0    0  0.42086467012E+02  0.17517171447E+02  0.14211066214E+03  0.14924329900E+03  0.00000000000E+00 0. -1.
<mgrwt>
<rscale>  0 0.19054971E+03</rscale>
<asrwt>0</asrwt>
<pdfrwt beam="2">  1        2 0.74323487E-02 0.19987344E+03</pdfrwt>
<pdfrwt beam="1">  1       -2 0.10642702E+00 0.19987344E+03</pdfrwt>
<totfact> 0.68630238E+02</totfact>
</mgrwt>
</event>
<event>
 7    1  0.5928109E-006  0.3181380E+03  0.7546771E-02  0.1077900E+00
         -1   -1    0    0    0  501 -0.00000000000E+00  0.00000000000E+00  0.10207976003E+04  0.10207976003E+04  0.00000000000E+00 0.  1.
          1   -1    0    0  501    0  0.00000000000E+00 -0.00000000000E+00 -0.10547686356E+03  0.10547686356E+03  0.00000000000E+00 0. -1.
         23    2    1    2    0    0  0.28054290732E+03 -0.82965667002E+02  0.29246383893E+03  0.43214219778E+03  0.12499662905E+03 0.  0.
          5    1    3    3  502    0  0.25373445010E+02  0.24642749397E+02  0.63272575008E+02  0.72640109841E+02  0.47000000000E+01 0.  1.
         -5    1    3    3    0  502  0.25516946231E+03 -0.10760841640E+03  0.22919126392E+03  0.35950208794E+03  0.47000000000E+01 0.  1.
        -11    1    1    2    0    0 -0.59945411193E+02  0.59612885744E+02  0.17430620109E+03  0.19372609584E+03  0.00000000000E+00 0.  1.
         11    1    1    2    0    0 -0.22059749613E+03  0.23352781258E+02  0.44855069675E+03  0.50040617027E+03  0.00000000000E+00 0. -1.
<mgrwt>
<rscale>  0 0.31515693E+03</rscale>
<asrwt>0</asrwt>
<pdfrwt beam="2">  1        1 0.16227210E-01 0.31813799E+03</pdfrwt>
<pdfrwt beam="1">  1       -1 0.15704578E+00 0.31813799E+03</pdfrwt>
<totfact> 0.11220195E+02</totfact>
</mgrwt>
</event>
<event>
 7    1  0.5928109E-006  0.1525116E+03  0.7546771E-02  0.1206523E+00
         -2   -1    0    0    0  501 -0.00000000000E+00  0.00000000000E+00  0.42645801874E+02  0.42645801874E+02  0.00000000000E+00 0.  1.
          2   -1    0    0  501    0  0.00000000000E+00 -0.00000000000E+00 -0.58528285068E+03  0.58528285068E+03  0.00000000000E+00 0. -1.
         23    2    1    2    0    0 -0.85138967151E+02  0.19709908288E+02 -0.44104093101E+03  0.46666571161E+03  0.12499063708E+03 0.  0.
          5    1    3    3  502    0 -0.89978264607E+02  0.39419882835E+02 -0.18271823598E+03  0.20750435905E+03  0.47000000000E+01 0.  1.
         -5    1    3    3    0  502  0.48392974559E+01 -0.19709974548E+02 -0.25832269503E+03  0.25916135256E+03  0.47000000000E+01 0.  1.
        -11    1    1    2    0    0  0.79225517587E+02 -0.31101935187E+01 -0.25699631216E+02  0.83347627353E+02  0.00000000000E+00 0.  1.
         11    1    1    2    0    0  0.59134495642E+01 -0.16599714769E+02 -0.75896486577E+02  0.77915313584E+02  0.00000000000E+00 0. -1.
<mgrwt>
<rscale>  0 0.14518077E+03</rscale>
<asrwt>0</asrwt>
<pdfrwt beam="2">  1        2 0.90043513E-01 0.15251159E+03</pdfrwt>
<pdfrwt beam="1">  1       -2 0.65608927E-02 0.15251159E+03</pdfrwt>
<totfact> 0.64820127E+03</totfact>
</mgrwt>
</event>
<event>
 7    1  0.5928109E-006  0.1286353E+03  0.7546771E-02  0.1240951E+00
         -3   -1    0    0    0  501 -0.00000000000E+00  0.00000000000E+00  0.53408555153E+02  0.53408555153E+02  0.00000000000E+00 0.  1.
          3   -1    0    0  501    0  0.00000000000E+00 -0.00000000000E+00 -0.26181177699E+03  0.26181177699E+03  0.00000000000E+00 0. -1.
         23    2    1    2    0    0  0.66753780539E+01  0.29614713124E+02 -0.15113425333E+03  0.19846564708E+03  0.12500183453E+03 0.  0.
          5    1    3    3  502    0  0.33744895033E+02 -0.45702842057E+01 -0.15073648428E+03  0.15460654298E+03  0.47000000000E+01 0.  1.
         -5    1    3    3    0  502 -0.27069516979E+02  0.34184997330E+02 -0.39776904697E+00  0.43859104097E+02  0.47000000000E+01 0.  1.
        -11    1    1    2    0    0 -0.19421351466E+02  0.24204798468E+02  0.71538275443E+01  0.31847109919E+02  0.00000000000E+00 0.  1.
         11    1    1    2    0    0  0.12745973412E+02 -0.53819511593E+02 -0.64422796050E+02  0.84907575146E+02  0.00000000000E+00 0. -1.
<mgrwt>
<rscale>  0 0.12131035E+03</rscale>
<asrwt>0</asrwt>
<pdfrwt beam="2">  1        3 0.40278735E-01 0.12863534E+03</pdfrwt>
<pdfrwt beam="1">  1       -3 0.82167008E-02 0.12863534E+03</pdfrwt>
<totfact> 0.14259241E+03</totfact>
</mgrwt>
</event>
<event>
 7    1  0.5928109E-006  0.1785227E+03  0.7546771E-02  0.1176765E+00
          2   -1    0    0  501    0  0.00000000000E+00  0.00000000000E+00  0.47574740048E+03  0.47574740048E+03  0.00000000000E+00 0. -1.
         -2   -1    0    0    0  501 -0.00000000000E+00 -0.00000000000E+00 -0.59394893370E+02  0.59394893370E+02  0.00000000000E+00 0.  1.
         23    2    1    2    0    0 -0.10785252849E+03  0.67919216362E+02  0.28024743290E+03  0.33227845838E+03  0.12500064961E+03 0.  0.
          5    1    3    3  502    0 -0.90609370069E+02  0.19594240715E+02  0.71227789742E+02  0.11700205231E+03  0.47000000000E+01 0. -1.
         -5    1    3    3    0  502 -0.17243158424E+02  0.48324975647E+02  0.20901964316E+03  0.21527640607E+03  0.47000000000E+01 0. -1.
        -11    1    1    2    0    0  0.17107149118E+01 -0.19915699325E+02 -0.42780208335E+01  0.20441699719E+02  0.00000000000E+00 0.  1.
         11    1    1    2    0    0  0.10614181358E+03 -0.48003517037E+02  0.14038309504E+03  0.18242213575E+03  0.00000000000E+00 0. -1.
<mgrwt>
<rscale>  0 0.17104232E+03</rscale>
<asrwt>0</asrwt>
<pdfrwt beam="1">  1        2 0.73191905E-01 0.17852269E+03</pdfrwt>
<pdfrwt beam="2">  1       -2 0.91376762E-02 0.17852269E+03</pdfrwt>
<totfact> 0.49296929E+03</totfact>
</mgrwt>
</event>
<event>
 7    1  0.5928109E-006  0.1549388E+03  0.7546771E-02  0.1203361E+00
          1   -1    0    0  501    0  0.00000000000E+00  0.00000000000E+00  0.13712328189E+03  0.13712328189E+03  0.00000000000E+00 0. -1.
         -1   -1    0    0    0  501 -0.00000000000E+00 -0.00000000000E+00 -0.22800856199E+03  0.22800856199E+03  0.00000000000E+00 0.  1.
         23    2    1    2    0    0  0.19113613939E+02  0.89527794559E+02  0.61070930719E+02  0.16654036548E+03  0.12500191406E+03 0.  0.
          5    1    3    3  502    0  0.10870821170E+02  0.99176809193E+02  0.90097951123E+02  0.13451373547E+03  0.47000000000E+01 0.  1.
         -5    1    3    3    0  502  0.82427927693E+01 -0.96490146336E+01 -0.29027020404E+02  0.32026630006E+02  0.47000000000E+01 0.  1.
        -11    1    1    2    0    0 -0.20251332419E+02 -0.18995868720E+01  0.30101807202E+01  0.20561762643E+02  0.00000000000E+00 0. -1.
         11    1    1    2    0    0  0.11377184799E+01 -0.87628207687E+02 -0.15496639154E+03  0.17802971576E+03  0.00000000000E+00 0.  1.
<mgrwt>
<rscale>  0 0.14767360E+03</rscale>
<asrwt>0</asrwt>
<pdfrwt beam="1">  1        1 0.21095890E-01 0.15493881E+03</pdfrwt>
<pdfrwt beam="2">  1       -1 0.35078240E-01 0.15493881E+03</pdfrwt>
<totfact> 0.18211788E+03</totfact>
</mgrwt>
</event>
<event>
 7    1  0.5928109E-006  0.1711576E+03  0.7546771E-02  0.1182868E+00
          2   -1    0    0  501    0  0.00000000000E+00  0.00000000000E+00  0.91065248532E+03  0.91065248532E+03  0.00000000000E+00 0. -1.
         -2   -1    0    0    0  501 -0.00000000000E+00 -0.00000000000E+00 -0.54406044380E+02  0.54406044380E+02  0.00000000000E+00 0.  1.
         23    2    1    2    0    0 -0.10794482017E+03 -0.44905715299E+02  0.77863732140E+03  0.79722706995E+03  0.12500526114E+03 0.  0.
          5    1    3    3  502    0 -0.24007568739E+02  0.42893184726E+02  0.20697945468E+03  0.21278809485E+03  0.47000000000E+01 0. -1.
         -5    1    3    3    0  502 -0.83937251431E+02 -0.87798900025E+02  0.57165786672E+03  0.58443897509E+03  0.47000000000E+01 0. -1.
        -11    1    1    2    0    0  0.60522389281E+02  0.49228697665E+02  0.14722050887E+01  0.78029428204E+02  0.00000000000E+00 0.  1.
         11    1    1    2    0    0  0.47422430889E+02 -0.43229823661E+01  0.76136914448E+02  0.89802031545E+02  0.00000000000E+00 0. -1.
<mgrwt>
<rscale>  0 0.16527406E+03</rscale>
<asrwt>0</asrwt>
<pdfrwt beam="1">  1        2 0.14010037E+00 0.17115760E+03</pdfrwt>
<pdfrwt beam="2">  1       -2 0.83701613E-02 0.17115760E+03</pdfrwt>
<totfact> 0.26084308E+03</totfact>
</mgrwt>
</event>
<event>
 7    1  0.5928109E-006  0.1457438E+03  0.7546771E-02  0.1215897E+00
         -2   -1    0    0    0  501 -0.00000000000E+00  0.00000000000E+00  0.51143449358E+02  0.51143449358E+02  0.00000000000E+00 0.  1.
          2   -1    0    0  501    0  0.00000000000E+00 -0.00000000000E+00 -0.33880496514E+03  0.33880496514E+03  0.00000000000E+00 0. -1.
         23    2    1    2    0    0  0.73063716839E+02 -0.16666141121E+02 -0.16045683049E+03  0.21676634089E+03  0.12500074045E+03 0.  0.
          5    1    3    3  502    0  0.92399394673E+02 -0.45822718310E+01 -0.16837675949E+03  0.19217561886E+03  0.47000000000E+01 0.  1.
         -5    1    3    3    0  502 -0.19335677834E+02 -0.12083869290E+02  0.79199289977E+01  0.24590722024E+02  0.47000000000E+01 0.  1.
        -11    1    1    2    0    0 -0.24742121438E+02  0.30223412923E+02 -0.29452131444E+01  0.39170161378E+02  0.00000000000E+00 0.  1.
         11    1    1    2    0    0 -0.48321595401E+02 -0.13557271802E+02 -0.12425947215E+03  0.13401191223E+03  0.00000000000E+00 0. -1.
<mgrwt>
<rscale>  0 0.13810859E+03</rscale>
<asrwt>0</asrwt>
<pdfrwt beam="2">  1        2 0.52123842E-01 0.14574379E+03</pdfrwt>
<pdfrwt beam="1">  1       -2 0.78682229E-02 0.14574379E+03</pdfrwt>
<totfact> 0.88688026E+03</totfact>
</mgrwt>
</event>
<event>
 7    1  0.5928109E-006  0.1772070E+03  0.7546771E-02  0.1176379E+00
         -1   -1    0    0    0  501 -0.00000000000E+00  0.00000000000E+00  0.32656537887E+03  0.32656537887E+03  0.00000000000E+00 0.  1.
          1   -1    0    0  501    0  0.00000000000E+00 -0.00000000000E+00 -0.14068929719E+03  0.14068929719E+03  0.00000000000E+00 0. -1.
         23    2    1    2    0    0  0.11464655747E+03 -0.51320786678E+02 -0.50720064223E+02  0.18432268378E+03  0.12499868222E+03 0.  0.
          5    1    3    3  502    0 -0.10180022439E+02  0.64820691159E+01 -0.44713103624E+02  0.46551065644E+02  0.47000000000E+01 0.  1.
         -5    1    3    3    0  502  0.12482657990E+03 -0.57802855794E+02 -0.60069605994E+01  0.13777161814E+03  0.47000000000E+01 0.  1.
        -11    1    1    2    0    0 -0.71306624722E+02  0.44150764998E+02  0.22089619434E+03  0.23628172476E+03  0.00000000000E+00 0.  1.
         11    1    1    2    0    0 -0.43339932743E+02  0.71700216806E+01  0.15699951557E+02  0.46650267523E+02  0.00000000000E+00 0. -1.
<mgrwt>
<rscale>  0 0.17141604E+03</rscale>
<asrwt>0</asrwt>
<pdfrwt beam="2">  1        1 0.21644507E-01 0.17720702E+03</pdfrwt>
<pdfrwt beam="1">  1       -1 0.50240827E-01 0.17720702E+03</pdfrwt>
<totfact> 0.93382117E+02</totfact>
</mgrwt>
</event>
<event>
 7    1  0.5928109E-006  0.1686055E+03  0.7546771E-02  0.1185717E+00
         -1   -1    0    0    0  501 -0.00000000000E+00  0.00000000000E+00  0.53892074393E+03  0.53892074393E+03  0.00000000000E+00 0.  1.
          1   -1    0    0  501    0  0.00000000000E+00 -0.00000000000E+00 -0.46079838884E+02  0.46079838884E+02  0.00000000000E+00 0. -1.
         23    2    1    2    0    0  0.11313964917E+03 -0.16888256768E+01  0.28017499417E+03  0.32699518384E+03  0.12499756217E+03 0.  0.
          5    1    3    3  502    0  0.72724614308E+02  0.53031766016E+02  0.21296008905E+03  0.23124732920E+03  0.47000000000E+01 0. -1.
         -5    1    3    3    0  502  0.40415034861E+02 -0.54720591693E+02  0.67214905121E+02  0.95747854642E+02  0.47000000000E+01 0. -1.
        -11    1    1    2    0    0 -0.51133439734E+02 -0.41770432716E+02  0.68355493301E+02  0.95036157186E+02  0.00000000000E+00 0.  1.
         11    1    1    2    0    0 -0.62006209434E+02  0.43459258393E+02  0.14431041758E+03  0.16296924179E+03  0.00000000000E+00 0. -1.
<mgrwt>
<rscale>  0 0.16266838E+03</rscale>
<asrwt>0</asrwt>
<pdfrwt beam="2">  1        1 0.70892064E-02 0.16860552E+03</pdfrwt>
<pdfrwt beam="1">  1       -1 0.82910879E-01 0.16860552E+03</pdfrwt>
<totfact> 0.15290815E+03</totfact>
</mgrwt>
</event>
<event>
 7    1  0.5928109E-006  0.1652571E+03  0.7546771E-02  0.1187766E+00
          1   -1    0    0  501    0  0.00000000000E+00  0.00000000000E+00  0.40047534523E+03  0.40047534523E+03  0.00000000000E+00 0. -1.
         -1   -1    0    0    0  501 -0.00000000000E+00 -0.00000000000E+00 -0.76532984728E+02  0.76532984728E+02  0.00000000000E+00 0.  1.
         23    2    1    2    0    0  0.10808020407E+03  0.77400700410E+00  0.27512335899E+03  0.32094044072E+03  0.12501189635E+03 0.  0.
          5    1    3    3  502    0  0.11684435648E+03 -0.19598184195E+02  0.13793840101E+03  0.18189498327E+03  0.47000000000E+01 0. -1.
         -5    1    3    3    0  502 -0.87641524114E+01  0.20372191199E+02  0.13718495798E+03  0.13904545745E+03  0.47000000000E+01 0. -1.
        -11    1    1    2    0    0  0.12451663534E+02  0.15861407757E+02 -0.81090997048E+01  0.21734435324E+02  0.00000000000E+00 0.  1.
         11    1    1    2    0    0 -0.12053186761E+03 -0.16635414761E+02  0.56928101224E+02  0.13433345392E+03  0.00000000000E+00 0. -1.
<mgrwt>
<rscale>  0 0.16082681E+03</rscale>
<asrwt>0</asrwt>
<pdfrwt beam="1">  1        1 0.61611590E-01 0.16525708E+03</pdfrwt>
<pdfrwt beam="2">  1       -1 0.11774306E-01 0.16525708E+03</pdfrwt>
<totfact> 0.27999342E+03</totfact>
</mgrwt>
</event>
<event>
 7    1  0.5928109E-006  0.1672767E+03  0.7546771E-02  0.1187727E+00
         -1   -1    0    0    0  501 -0.00000000000E+00  0.00000000000E+00  0.18129510542E+03  0.18129510542E+03  0.00000000000E+00 0.  1.
          1   -1    0    0  501    0  0.00000000000E+00 -0.00000000000E+00 -0.13284179324E+03  0.13284179324E+03  0.00000000000E+00 0. -1.
         23    2    1    2    0    0  0.11043196244E+03  0.12682139002E+02  0.23423567530E+02  0.16890877489E+03  0.12500182296E+03 0.  0.
          5    1    3    3  502    0  0.31266838428E+02 -0.50595909816E+02 -0.13090624617E+02  0.61082040963E+02  0.47000000000E+01 0.  1.
         -5    1    3    3    0  502  0.79165124008E+02  0.63278048818E+02  0.36514192147E+02  0.10782673393E+03  0.47000000000E+01 0.  1.
        -11    1    1    2    0    0 -0.80887125766E+02 -0.41244294869E+02  0.42896005798E+02  0.10041855549E+03  0.00000000000E+00 0.  1.
         11    1    1    2    0    0 -0.29544836671E+02  0.28562155867E+02 -0.17866261142E+02  0.44809568274E+02  0.00000000000E+00 0. -1.
<mgrwt>
<rscale>  0 0.16086161E+03</rscale>
<asrwt>0</asrwt>
<pdfrwt beam="2">  1        1 0.20437199E-01 0.16727675E+03</pdfrwt>
<pdfrwt beam="1">  1       -1 0.27891555E-01 0.16727675E+03</pdfrwt>
<totfact> 0.28063048E+03</totfact>
</mgrwt>
</event>
<event>
 7    1  0.5928109E-006  0.3138148E+03  0.7546771E-02  0.1079908E+00
          2   -1    0    0  501    0  0.00000000000E+00  0.00000000000E+00  0.28626402522E+03  0.28626402522E+03  0.00000000000E+00 0. -1.
         -2   -1    0    0    0  501 -0.00000000000E+00 -0.00000000000E+00 -0.34138415567E+03  0.34138415567E+03  0.00000000000E+00 0.  1.
         23    2    1    2    0    0  0.75931713125E+02 -0.27765601032E+03  0.25094879025E+02  0.31481654660E+03  0.12498487881E+03 0.  0.
          5    1    3    3  502    0  0.33136639774E+02 -0.95261031773E+02  0.69052053696E+02  0.12232324877E+03  0.47000000000E+01 0.  1.
         -5    1    3    3    0  502  0.42795073351E+02 -0.18239497855E+03 -0.43957174671E+02  0.19249329783E+03  0.47000000000E+01 0.  1.
        -11    1    1    2    0    0 -0.69703474541E+01  0.11606237559E+03  0.73945091312E+01  0.11650639269E+03  0.00000000000E+00 0. -1.
         11    1    1    2    0    0 -0.68961365671E+02  0.16159363473E+03 -0.87609518604E+02  0.19632524160E+03  0.00000000000E+00 0.  1.
<mgrwt>
<rscale>  0 0.31091425E+03</rscale>
<asrwt>0</asrwt>
<pdfrwt beam="1">  1        2 0.44040619E-01 0.31381476E+03</pdfrwt>
<pdfrwt beam="2">  1       -2 0.52520639E-01 0.31381476E+03</pdfrwt>
<totfact> 0.40187352E+02</totfact>
</mgrwt>
</event>
<event>
 7    1  0.5928109E-006  0.1283117E+03  0.7546771E-02  0.1245745E+00
          2   -1    0    0  501    0  0.00000000000E+00  0.00000000000E+00  0.36458391282E+03  0.36458391282E+03  0.00000000000E+00 0. -1.
         -2   -1    0    0    0  501 -0.00000000000E+00 -0.00000000000E+00 -0.34713416777E+02  0.34713416777E+02  0.00000000000E+00 0.  1.
         23    2    1    2    0    0  0.28953028081E+02 -0.19601643846E+00  0.22563893583E+03  0.25957047303E+03  0.12500233938E+03 0.  0.
          5    1    3    3  502    0 -0.28266566900E+02 -0.84332629749E+01  0.36056541886E+01  0.30086699235E+02  0.47000000000E+01 0.  1.
         -5    1    3    3    0  502  0.57219594982E+02  0.82372465364E+01  0.22203328164E+03  0.22948377380E+03  0.47000000000E+01 0.  1.
        -11    1    1    2    0    0 -0.57035948881E+02  0.15397915977E+02  0.80914481202E+02  0.10018656871E+03  0.00000000000E+00 0.  1.
         11    1    1    2    0    0  0.28082920800E+02 -0.15201899539E+02  0.23317079017E+02  0.39540287861E+02  0.00000000000E+00 0. -1.
<mgrwt>
<rscale>  0 0.11840924E+03</rscale>
<asrwt>0</asrwt>
<pdfrwt beam="1">  1        2 0.56089830E-01 0.12831173E+03</pdfrwt>
<pdfrwt beam="2">  1       -2 0.53405259E-02 0.12831173E+03</pdfrwt>
<totfact> 0.14664659E+04</totfact>
</mgrwt>
</event>
<event>
 7    1  0.5928109E-006  0.1254363E+03  0.7546771E-02  0.1249525E+00
          1   -1    0    0  501    0  0.00000000000E+00  0.00000000000E+00  0.21860318163E+03  0.21860318163E+03  0.00000000000E+00 0. -1.
         -1   -1    0    0    0  501 -0.00000000000E+00 -0.00000000000E+00 -0.66523816910E+02  0.66523816910E+02  0.00000000000E+00 0.  1.
         23    2    1    2    0    0 -0.68931087363E+01 -0.78570751687E+01  0.14616055342E+03  0.19260629318E+03  0.12500011287E+03 0.  0.
          5    1    3    3  502    0 -0.22684636653E+02 -0.40722551418E+02  0.54436617629E+01  0.47166114823E+02  0.47000000000E+01 0.  1.
         -5    1    3    3    0  502  0.15791527916E+02  0.32865476249E+02  0.14071689166E+03  0.14544017836E+03  0.47000000000E+01 0.  1.
        -11    1    1    2    0    0  0.75448784479E+01  0.49267338791E+02  0.10232617151E+02  0.50881257022E+02  0.00000000000E+00 0. -1.
         11    1    1    2    0    0 -0.65176971161E+00 -0.41410263623E+02 -0.43138058503E+01  0.41639448339E+02  0.00000000000E+00 0.  1.
<mgrwt>
<rscale>  0 0.11618623E+03</rscale>
<asrwt>0</asrwt>
<pdfrwt beam="1">  1        1 0.33631258E-01 0.12543635E+03</pdfrwt>
<pdfrwt beam="2">  1       -1 0.10234433E-01 0.12543635E+03</pdfrwt>
<totfact> 0.72678780E+03</totfact>
</mgrwt>
</event>
<event>
 7    1  0.5928109E-006  0.1367012E+03  0.7546771E-02  0.1241569E+00
          2   -1    0    0  501    0  0.00000000000E+00  0.00000000000E+00  0.40639309303E+02  0.40639309303E+02  0.00000000000E+00 0. -1.
         -2   -1    0    0    0  501 -0.00000000000E+00 -0.00000000000E+00 -0.30324662179E+03  0.30324662179E+03  0.00000000000E+00 0.  1.
         23    2    1    2    0    0  0.42844747514E+02  0.35154663566E+02 -0.14238582649E+03  0.19738526201E+03  0.12496277571E+03 0.  0.
          5    1    3    3  502    0 -0.10916601540E+02  0.17401183743E+02 -0.13887563459E+03  0.14046531695E+03  0.47000000000E+01 0.  1.
         -5    1    3    3    0  502  0.53761349054E+02  0.17753479823E+02 -0.35101918987E+01  0.56919945055E+02  0.47000000000E+01 0.  1.
        -11    1    1    2    0    0 -0.47019748445E+01 -0.42330371067E+02 -0.79850896162E+02  0.90499361876E+02  0.00000000000E+00 0.  1.
         11    1    1    2    0    0 -0.38142772670E+02  0.71757075003E+01 -0.40370589836E+02  0.56001307206E+02  0.00000000000E+00 0. -1.
<mgrwt>
<rscale>  0 0.12093113E+03</rscale>
<asrwt>0</asrwt>
<pdfrwt beam="1">  1        2 0.62522014E-02 0.13670120E+03</pdfrwt>
<pdfrwt beam="2">  1       -2 0.46653327E-01 0.13670120E+03</pdfrwt>
<totfact> 0.49040155E+03</totfact>
</mgrwt>
</event>
<event>
 7    1  0.5928109E-006  0.1288472E+03  0.7546771E-02  0.1245702E+00
         -2   -1    0    0    0  501 -0.00000000000E+00  0.00000000000E+00  0.26485827499E+02  0.26485827499E+02  0.00000000000E+00 0.  1.
          2   -1    0    0  501    0  0.00000000000E+00 -0.00000000000E+00 -0.59088044197E+03  0.59088044197E+03  0.00000000000E+00 0. -1.
         23    2    1    2    0    0  0.24338503346E+02 -0.19713835005E+02 -0.46243126383E+03  0.48004610470E+03  0.12498236209E+03 0.  0.
          5    1    3    3  502    0 -0.10467665042E+02  0.49627199545E+02 -0.17072770758E+03  0.17816416890E+03  0.47000000000E+01 0.  1.
         -5    1    3    3    0  502  0.34806168388E+02 -0.69341034550E+02 -0.29170355626E+03  0.30188193580E+03  0.47000000000E+01 0.  1.
        -11    1    1    2    0    0  0.19209848381E+02 -0.11390767557E+02 -0.18967032016E+00  0.22333916701E+02  0.00000000000E+00 0.  1.
         11    1    1    2    0    0 -0.43548351727E+02  0.31104602563E+02 -0.10177368032E+03  0.11498624807E+03  0.00000000000E+00 0. -1.
<mgrwt>
<rscale>  0 0.11843481E+03</rscale>
<asrwt>0</asrwt>
<pdfrwt beam="2">  1        2 0.90904683E-01 0.12884715E+03</pdfrwt>
<pdfrwt beam="1">  1       -2 0.40747427E-02 0.12884715E+03</pdfrwt>
<totfact> 0.12998025E+04</totfact>
</mgrwt>
</event>
<event>
 7    1  0.5928109E-006  0.1470777E+03  0.7546771E-02  0.1212905E+00
          1   -1    0    0  501    0  0.00000000000E+00  0.00000000000E+00  0.32829117825E+02  0.32829117825E+02  0.00000000000E+00 0. -1.
         -1   -1    0    0    0  501 -0.00000000000E+00 -0.00000000000E+00 -0.62222787848E+03  0.62222787848E+03  0.00000000000E+00 0.  1.
         23    2    1    2    0    0  0.60972376632E+02  0.47848169011E+02 -0.20856336383E+03  0.25520683951E+03  0.12499910485E+03 0.  0.
          5    1    3    3  502    0  0.17865052394E+02 -0.15388437170E+02  0.81043325801E+01  0.25371919559E+02  0.47000000000E+01 0. -1.
         -5    1    3    3    0  502  0.43107324239E+02  0.63236606181E+02 -0.21666769641E+03  0.22983491995E+03  0.47000000000E+01 0. -1.
        -11    1    1    2    0    0 -0.16173598736E+02 -0.58676774025E+02 -0.30573935694E+03  0.31173883859E+03  0.00000000000E+00 0.  1.
         11    1    1    2    0    0 -0.44798777897E+02  0.10828605014E+02 -0.75096039890E+02  0.88111318199E+02  0.00000000000E+00 0. -1.
<mgrwt>
<rscale>  0 0.14031562E+03</rscale>
<asrwt>0</asrwt>
<pdfrwt beam="1">  1        1 0.50506341E-02 0.14707771E+03</pdfrwt>
<pdfrwt beam="2">  1       -1 0.95727355E-01 0.14707771E+03</pdfrwt>
<totfact> 0.17800828E+03</totfact>
</mgrwt>
</event>
<event>
 7    1  0.5928109E-006  0.1416514E+03  0.7546771E-02  0.1221088E+00
         -2   -1    0    0    0  501 -0.00000000000E+00  0.00000000000E+00  0.31077029845E+02  0.31077029845E+02  0.00000000000E+00 0. -1.
          2   -1    0    0  501    0  0.00000000000E+00 -0.00000000000E+00 -0.59034398726E+03  0.59034398726E+03  0.00000000000E+00 0.  1.
         23    2    1    2    0    0 -0.65843815177E+02  0.10199109281E+02 -0.40567690603E+03  0.42969625427E+03  0.12500275606E+03 0.  0.
          5    1    3    3  502    0 -0.94220848399E+02  0.33945727119E+02 -0.33631756092E+03  0.35094368843E+03  0.47000000000E+01 0. -1.
         -5    1    3    3    0  502  0.28377033222E+02 -0.23746617838E+02 -0.69359345108E+02  0.78752565844E+02  0.47000000000E+01 0. -1.
        -11    1    1    2    0    0  0.17490581807E+02 -0.32757677620E+02 -0.98759886057E+01  0.38425525969E+02  0.00000000000E+00 0. -1.
         11    1    1    2    0    0  0.48353233370E+02  0.22558568340E+02 -0.14371406278E+03  0.15329923686E+03  0.00000000000E+00 0.  1.
<mgrwt>
<rscale>  0 0.13438711E+03</rscale>
<asrwt>0</asrwt>
<pdfrwt beam="2">  1        2 0.90822151E-01 0.14165140E+03</pdfrwt>
<pdfrwt beam="1">  1       -2 0.47810815E-02 0.14165140E+03</pdfrwt>
<totfact> 0.10317751E+04</totfact>
</mgrwt>
</event>
<event>
 7    1  0.5928109E-006  0.1445697E+03  0.7546771E-02  0.1231799E+00
         -1   -1    0    0    0  501 -0.00000000000E+00  0.00000000000E+00  0.21266293868E+02  0.21266293868E+02  0.00000000000E+00 0.  1.
          1   -1    0    0  501    0  0.00000000000E+00 -0.00000000000E+00 -0.70209018626E+03  0.70209018626E+03  0.00000000000E+00 0. -1.
         23    2    1    2    0    0 -0.71360376738E+02  0.13389096663E+02 -0.53171789336E+03  0.55102117067E+03  0.12501536358E+03 0.  0.
          5    1    3    3  502    0 -0.56157030307E+02  0.61347742179E+02 -0.42313404454E+03  0.43125591842E+03  0.47000000000E+01 0.  1.
         -5    1    3    3    0  502 -0.15203346430E+02 -0.47958645516E+02 -0.10858384882E+03  0.11976525225E+03  0.47000000000E+01 0.  1.
        -11    1    1    2    0    0  0.25671389417E+02  0.45770917223E+01 -0.16315156671E+02  0.30759621916E+02  0.00000000000E+00 0.  1.
         11    1    1    2    0    0  0.45688987321E+02 -0.17966188386E+02 -0.13279084236E+03  0.14157568754E+03  0.00000000000E+00 0. -1.
<mgrwt>
<rscale>  0 0.12711603E+03</rscale>
<asrwt>0</asrwt>
<pdfrwt beam="2">  1        1 0.10801389E+00 0.14456975E+03</pdfrwt>
<pdfrwt beam="1">  1       -1 0.32717370E-02 0.14456975E+03</pdfrwt>
<totfact> 0.89700984E+03</totfact>
</mgrwt>
</event>
<event>
 6    1  0.5928109E-006  0.1730394E+03  0.7546771E-02  0.1192062E+00
          2   -1    0    0  501    0  0.00000000000E+00  0.00000000000E+00  0.16214911381E+04  0.16214911381E+04  0.00000000000E+00 0. -1.
         -2   -1    0    0    0  501 -0.00000000000E+00 -0.00000000000E+00 -0.21474771784E+02  0.21474771784E+02  0.00000000000E+00 0.  1.
          5    1    1    2  502    0 -0.42641981324E+02  0.35587614756E+02  0.64327590844E+03  0.64568630253E+03  0.47000000000E+01 0. -1.
         -5    1    1    2    0  502  0.26958442755E+02 -0.10866533715E+03  0.75955284975E+03  0.76777440352E+03  0.47000000000E+01 0.  1.
        -11    1    1    2    0    0 -0.23844027334E+02 -0.96193916320E+01  0.40220152936E+02  0.47736055944E+02  0.00000000000E+00 0.  1.
         11    1    1    2    0    0  0.39527565903E+02  0.82697114027E+02  0.15696745516E+03  0.18176914786E+03  0.00000000000E+00 0. -1.
<mgrwt>
<rscale>  0 0.15705548E+03</rscale>
<asrwt>0</asrwt>
<pdfrwt beam="1">  1        2 0.24946008E+00 0.17303943E+03</pdfrwt>
<pdfrwt beam="2">  1       -2 0.33038123E-02 0.17303943E+03</pdfrwt>
<totfact> 0.42853120E+03</totfact>
</mgrwt>
</event>
<event>
 6    1  0.5928109E-006  0.1524556E+03  0.7546771E-02  0.1214366E+00
         -1   -1    0    0    0  501 -0.00000000000E+00  0.00000000000E+00  0.23177870218E+02  0.23177870218E+02  0.00000000000E+00 0.  1.
          1   -1    0    0  501    0  0.00000000000E+00 -0.00000000000E+00 -0.85976533618E+03  0.85976533618E+03  0.00000000000E+00 0. -1.
          5    1    1    2  502    0  0.38629439330E+02  0.68071081370E+02 -0.35126809940E+03  0.35991286912E+03  0.47000000000E+01 0. -1.
         -5    1    1    2    0  502  0.12635867646E+02 -0.72684795862E+02 -0.30504517058E+03  0.31387480115E+03  0.47000000000E+01 0.  1.
        -11    1    1    2    0    0 -0.71866102913E+02  0.25295513611E+02 -0.14037854989E+03  0.15972080962E+03  0.00000000000E+00 0. -1.
         11    1    1    2    0    0  0.20600795937E+02 -0.20681799119E+02 -0.39895646096E+02  0.49434726514E+02  0.00000000000E+00 0.  1.
<mgrwt>
<rscale>  0 0.13923178E+03</rscale>
<asrwt>0</asrwt>
<pdfrwt beam="2">  1        1 0.13227160E+00 0.15245562E+03</pdfrwt>
<pdfrwt beam="1">  1       -1 0.35658259E-02 0.15245562E+03</pdfrwt>
<totfact> 0.58576002E+03</totfact>
</mgrwt>
</event>
<event>
 7    1  0.5928109E-006  0.1474934E+03  0.7546771E-02  0.1212788E+00
          1   -1    0    0  501    0  0.00000000000E+00  0.00000000000E+00  0.53178350898E+03  0.53178350898E+03  0.00000000000E+00 0. -1.
         -1   -1    0    0    0  501 -0.00000000000E+00 -0.00000000000E+00 -0.35513803145E+02  0.35513803145E+02  0.00000000000E+00 0.  1.
         23    2    1    2    0    0  0.78040981952E+02  0.62525470899E+01  0.33125741741E+03  0.36260966956E+03  0.12499922664E+03 0.  0.
          5    1    3    3  502    0  0.50827123625E+02 -0.40495051171E+01  0.32909511837E+03  0.33305477315E+03  0.47000000000E+01 0.  1.
         -5    1    3    3    0  502  0.27213858327E+02  0.10302052207E+02  0.21622990493E+01  0.29554896412E+02  0.47000000000E+01 0.  1.
        -11    1    1    2    0    0 -0.24973949715E+02 -0.47423371506E+02  0.81005110235E+02  0.97131365755E+02  0.00000000000E+00 0. -1.
         11    1    1    2    0    0 -0.53067032238E+02  0.41170824416E+02  0.84007178188E+02  0.10755627681E+03  0.00000000000E+00 0.  1.
<mgrwt>
<rscale>  0 0.14040276E+03</rscale>
<asrwt>0</asrwt>
<pdfrwt beam="1">  1        1 0.81812842E-01 0.14749338E+03</pdfrwt>
<pdfrwt beam="2">  1       -1 0.54636624E-02 0.14749338E+03</pdfrwt>
<totfact> 0.61786149E+03</totfact>
</mgrwt>
</event>
<event>
 7    1  0.5928109E-006  0.1313759E+03  0.7546771E-02  0.1238623E+00
         -2   -1    0    0    0  501 -0.00000000000E+00  0.00000000000E+00  0.22913088891E+03  0.22913088891E+03  0.00000000000E+00 0.  1.
          2   -1    0    0  501    0  0.00000000000E+00 -0.00000000000E+00 -0.58504448354E+02  0.58504448354E+02  0.00000000000E+00 0. -1.
         23    2    1    2    0    0 -0.19007443609E+02  0.35693931671E+02  0.99790490001E+02  0.16497808418E+03  0.12499714674E+03 0.  0.
          5    1    3    3  502    0 -0.47430915976E+02 -0.58024788292E+01  0.10373425989E+03  0.11430768664E+03  0.47000000000E+01 0. -1.
         -5    1    3    3    0  502  0.28423472367E+02  0.41496410500E+02 -0.39437698862E+01  0.50670397538E+02  0.47000000000E+01 0. -1.
        -11    1    1    2    0    0  0.49340095990E+02 -0.45918332843E+02  0.54733987222E+02  0.86825962250E+02  0.00000000000E+00 0.  1.
         11    1    1    2    0    0 -0.30332652382E+02  0.10224401173E+02  0.16101963337E+02  0.35831290838E+02  0.00000000000E+00 0. -1.
<mgrwt>
<rscale>  0 0.12275340E+03</rscale>
<asrwt>0</asrwt>
<pdfrwt beam="2">  1        2 0.90006845E-02 0.13137590E+03</pdfrwt>
<pdfrwt beam="1">  1       -2 0.35250905E-01 0.13137590E+03</pdfrwt>
<totfact> 0.52542889E+03</totfact>
</mgrwt>
</event>
<event>
 7    1  0.5928109E-006  0.1299460E+03  0.7546771E-02  0.1243155E+00
         -1   -1    0    0    0  501 -0.00000000000E+00  0.00000000000E+00  0.54794455274E+02  0.54794455274E+02  0.00000000000E+00 0.  1.
          1   -1    0    0  501    0  0.00000000000E+00 -0.00000000000E+00 -0.23527929940E+03  0.23527929940E+03  0.00000000000E+00 0. -1.
         23    2    1    2    0    0 -0.14166056826E+02  0.32630875631E+02 -0.12642611782E+03  0.18129955095E+03  0.12498204949E+03 0.  0.
          5    1    3    3  502    0 -0.57038055993E+01  0.78601629167E+02 -0.56601373502E+02  0.97141932184E+02  0.47000000000E+01 0. -1.
         -5    1    3    3    0  502 -0.84622512263E+01 -0.45970753537E+02 -0.69824744319E+02  0.84157618762E+02  0.47000000000E+01 0. -1.
        -11    1    1    2    0    0  0.40943051160E+02 -0.47014219743E+02 -0.45548826142E+02  0.77209881876E+02  0.00000000000E+00 0.  1.
         11    1    1    2    0    0 -0.26776994334E+02  0.14383344112E+02 -0.85099001672E+01  0.31564321857E+02  0.00000000000E+00 0. -1.
<mgrwt>
<rscale>  0 0.11996478E+03</rscale>
<asrwt>0</asrwt>
<pdfrwt beam="2">  1        1 0.36196816E-01 0.12994600E+03</pdfrwt>
<pdfrwt beam="1">  1       -1 0.84299161E-02 0.12994600E+03</pdfrwt>
<totfact> 0.89317967E+03</totfact>
</mgrwt>
</event>
<event>
 7    1  0.5928109E-006  0.1540639E+03  0.7546771E-02  0.1205919E+00
          1   -1    0    0  501    0  0.00000000000E+00  0.00000000000E+00  0.88514126351E+02  0.88514126351E+02  0.00000000000E+00 0. -1.
         -1   -1    0    0    0  501 -0.00000000000E+00 -0.00000000000E+00 -0.22404977482E+03  0.22404977482E+03  0.00000000000E+00 0.  1.
         23    2    1    2    0    0 -0.68987473929E-03 -0.90062120884E+02 -0.47416414916E+02  0.16119551084E+03  0.12499796276E+03 0.  0.
          5    1    3    3  502    0 -0.48357653076E+02 -0.54014427646E+01 -0.40247933864E+02  0.63321594858E+02  0.47000000000E+01 0.  1.
         -5    1    3    3    0  502  0.48356963202E+02 -0.84660678120E+02 -0.71684810518E+01  0.97873915986E+02  0.47000000000E+01 0.  1.
        -11    1    1    2    0    0 -0.20793706065E+02  0.89083979536E+02 -0.41779963643E+02  0.10056788247E+03  0.00000000000E+00 0. -1.
         11    1    1    2    0    0  0.20794395940E+02  0.97814134815E+00 -0.46339269908E+02  0.50800507857E+02  0.00000000000E+00 0.  1.
<mgrwt>
<rscale>  0 0.14565246E+03</rscale>
<asrwt>0</asrwt>
<pdfrwt beam="1">  1        1 0.13617558E-01 0.15406387E+03</pdfrwt>
<pdfrwt beam="2">  1       -1 0.34469196E-01 0.15406387E+03</pdfrwt>
<totfact> 0.32992806E+03</totfact>
</mgrwt>
</event>
<event>
 7    1  0.5928109E-006  0.1570278E+03  0.7546771E-02  0.1200061E+00
          1   -1    0    0  501    0  0.00000000000E+00  0.00000000000E+00  0.12582224715E+03  0.12582224715E+03  0.00000000000E+00 0. -1.
         -1   -1    0    0    0  501 -0.00000000000E+00 -0.00000000000E+00 -0.21922026043E+03  0.21922026043E+03  0.00000000000E+00 0.  1.
         23    2    1    2    0    0 -0.74750374632E+02 -0.58696692465E+02  0.35076294184E+02  0.16089773241E+03  0.12499925466E+03 0.  0.
          5    1    3    3  502    0 -0.52889900001E+02 -0.74486013296E+02  0.70956149270E+02  0.11576861759E+03  0.47000000000E+01 0.  1.
         -5    1    3    3    0  502 -0.21860474631E+02  0.15789320831E+02 -0.35879855086E+02  0.45129114819E+02  0.47000000000E+01 0.  1.
        -11    1    1    2    0    0  0.14152686319E+02 -0.23290217864E+02 -0.43943305244E+02  0.51708286125E+02  0.00000000000E+00 0.  1.
         11    1    1    2    0    0  0.60597688313E+02  0.81986910329E+02 -0.84531002223E+02  0.13243648905E+03  0.00000000000E+00 0. -1.
<mgrwt>
<rscale>  0 0.15033582E+03</rscale>
<asrwt>0</asrwt>
<pdfrwt beam="1">  1        1 0.19357269E-01 0.15702781E+03</pdfrwt>
<pdfrwt beam="2">  1       -1 0.33726194E-01 0.15702781E+03</pdfrwt>
<totfact> 0.21753525E+03</totfact>
</mgrwt>
</event>
<event>
 7    1  0.5928109E-006  0.1360155E+03  0.7546771E-02  0.1231587E+00
          1   -1    0    0  501    0  0.00000000000E+00  0.00000000000E+00  0.45185742312E+03  0.45185742312E+03  0.00000000000E+00 0. -1.
         -1   -1    0    0    0  501 -0.00000000000E+00 -0.00000000000E+00 -0.32636940932E+02  0.32636940932E+02  0.00000000000E+00 0.  1.
         23    2    1    2    0    0  0.14003832006E+02  0.51770267379E+02  0.27210156319E+03  0.30420301877E+03  0.12499579210E+03 0.  0.
          5    1    3    3  502    0  0.62229401759E+02  0.85809677737E+01  0.82509148829E+02  0.10380742311E+03  0.47000000000E+01 0. -1.
         -5    1    3    3    0  502 -0.48225569753E+02  0.43189299605E+02  0.18959241436E+03  0.20039559566E+03  0.47000000000E+01 0. -1.
        -11    1    1    2    0    0  0.28619947997E+02 -0.10731944830E+02  0.10025753433E+03  0.10481340206E+03  0.00000000000E+00 0.  1.
         11    1    1    2    0    0 -0.42623780003E+02 -0.41038322549E+02  0.46861384675E+02  0.75477943222E+02  0.00000000000E+00 0. -1.
<mgrwt>
<rscale>  0 0.12725504E+03</rscale>
<asrwt>0</asrwt>
<pdfrwt beam="1">  1        1 0.69516522E-01 0.13601550E+03</pdfrwt>
<pdfrwt beam="2">  1       -1 0.50210682E-02 0.13601550E+03</pdfrwt>
<totfact> 0.86150522E+03</totfact>
</mgrwt>
</event>
<event>
 7    1  0.5928109E-006  0.2149686E+03  0.7546771E-02  0.1140568E+00
         -1   -1    0    0    0  501 -0.00000000000E+00  0.00000000000E+00  0.23281306658E+03  0.23281306658E+03  0.00000000000E+00 0.  1.
          1   -1    0    0  501    0  0.00000000000E+00 -0.00000000000E+00 -0.19715375082E+03  0.19715375082E+03  0.00000000000E+00 0. -1.
         23    2    1    2    0    0  0.17431777358E+03 -0.14149409489E+02 -0.34083166186E+02  0.21765376193E+03  0.12499842356E+03 0.  0.
          5    1    3    3  502    0  0.64819977289E+02  0.76872617271E+01 -0.74183365145E+02  0.98924138171E+02  0.47000000000E+01 0.  1.
         -5    1    3    3    0  502  0.10949779629E+03 -0.21836671217E+02  0.40100198959E+02  0.11872962376E+03  0.47000000000E+01 0.  1.
        -11    1    1    2    0    0 -0.57567817940E+02  0.52056457383E+02  0.31257412607E+02  0.83671705257E+02  0.00000000000E+00 0.  1.
         11    1    1    2    0    0 -0.11674995564E+03 -0.37907047893E+02  0.38485069339E+02  0.12864135021E+03  0.00000000000E+00 0. -1.
<mgrwt>
<rscale>  0 0.21126465E+03</rscale>
<asrwt>0</asrwt>
<pdfrwt beam="2">  1        1 0.30331346E-01 0.21496860E+03</pdfrwt>
<pdfrwt beam="1">  1       -1 0.35817395E-01 0.21496860E+03</pdfrwt>
<totfact> 0.11184714E+03</totfact>
</mgrwt>
</event>
<event>
 7    1  0.5928109E-006  0.2107274E+03  0.7546771E-02  0.1142403E+00
         -1   -1    0    0    0  501 -0.00000000000E+00  0.00000000000E+00  0.43880518623E+02  0.43880518623E+02  0.00000000000E+00 0.  1.
          1   -1    0    0  501    0  0.00000000000E+00 -0.00000000000E+00 -0.14224475165E+04  0.14224475165E+04  0.00000000000E+00 0. -1.
         23    2    1    2    0    0  0.16950839071E+03 -0.54048384997E+02 -0.11068962901E+04  0.11267765595E+04  0.11292340520E+03 0.  0.
          5    1    3    3  502    0  0.16929229031E+03 -0.64887246538E+02 -0.10953250216E+04  0.11102383651E+04  0.47000000000E+01 0. -1.
         -5    1    3    3    0  502  0.21610040241E+00  0.10838861541E+02 -0.11571268517E+02  0.16538194399E+02  0.47000000000E+01 0.  1.
        -11    1    1    2    0    0 -0.16713993362E+03  0.35728407432E+02 -0.27180718289E+03  0.32107852806E+03  0.00000000000E+00 0.  1.
         11    1    1    2    0    0 -0.23684570936E+01  0.18319977566E+02  0.13647514947E+00  0.18472947585E+02  0.00000000000E+00 0. -1.
<mgrwt>
<rscale>  0 0.20894593E+03</rscale>
<asrwt>0</asrwt>
<pdfrwt beam="2">  1        1 0.21883803E+00 0.21072735E+03</pdfrwt>
<pdfrwt beam="1">  1       -1 0.67508507E-02 0.21072735E+03</pdfrwt>
<totfact> 0.90520855E+02</totfact>
</mgrwt>
</event>
<event>
 7    1  0.5928109E-006  0.3725146E+03  0.7546771E-02  0.1054788E+00
         -2   -1    0    0    0  501 -0.00000000000E+00  0.00000000000E+00  0.62643925304E+02  0.62643925304E+02  0.00000000000E+00 0.  1.
          2   -1    0    0  501    0  0.00000000000E+00 -0.00000000000E+00 -0.25606179893E+04  0.25606179893E+04  0.00000000000E+00 0. -1.
         23    2    1    2    0    0  0.19790527031E+03  0.28978644769E+03 -0.17893712904E+04  0.18277354034E+04  0.12499763532E+03 0.  0.
          5    1    3    3  502    0  0.58510274381E+01  0.10625747889E+03 -0.47929867685E+03  0.49099307325E+03  0.47000000000E+01 0. -1.
         -5    1    3    3    0  502  0.19205424287E+03  0.18352896879E+03 -0.13100726135E+04  0.13367423302E+04  0.47000000000E+01 0. -1.
        -11    1    1    2    0    0 -0.17558442904E+03 -0.20250652254E+03 -0.47912784794E+03  0.54900116399E+03  0.00000000000E+00 0.  1.
         11    1    1    2    0    0 -0.22320841263E+02 -0.87279925153E+02 -0.22947492569E+03  0.24652534719E+03  0.00000000000E+00 0. -1.
<mgrwt>
<rscale>  0 0.36975187E+03</rscale>
<asrwt>0</asrwt>
<pdfrwt beam="2">  1        2 0.39394127E+00 0.37251455E+03</pdfrwt>
<pdfrwt beam="1">  1       -2 0.96375259E-02 0.37251455E+03</pdfrwt>
<totfact> 0.25599643E+02</totfact>
</mgrwt>
</event>
<event>
 7    1  0.5928109E-006  0.1347931E+03  0.7546771E-02  0.1233899E+00
         -1   -1    0    0    0  501 -0.00000000000E+00  0.00000000000E+00  0.78443346290E+02  0.78443346290E+02  0.00000000000E+00 0.  1.
          1   -1    0    0  501    0  0.00000000000E+00 -0.00000000000E+00 -0.18295842536E+03  0.18295842536E+03  0.00000000000E+00 0. -1.
         23    2    1    2    0    0 -0.48586395004E+02 -0.13613052099E+02 -0.78681631860E+02  0.15607683870E+03  0.12499290947E+03 0.  0.
          5    1    3    3  502    0 -0.58420422252E+02 -0.23282429845E+02 -0.10701602678E+03  0.12421568848E+03  0.47000000000E+01 0.  1.
         -5    1    3    3    0  502  0.98340272479E+01  0.96693777462E+01  0.28334394920E+02  0.31861150221E+02  0.47000000000E+01 0.  1.
        -11    1    1    2    0    0  0.65158112445E+02 -0.14345660465E+02 -0.28840255822E+02  0.72685197582E+02  0.00000000000E+00 0. -1.
         11    1    1    2    0    0 -0.16571717442E+02  0.27958712564E+02  0.30068086116E+01  0.32639735373E+02  0.00000000000E+00 0.  1.
<mgrwt>
<rscale>  0 0.12575213E+03</rscale>
<asrwt>0</asrwt>
<pdfrwt beam="2">  1        1 0.28147450E-01 0.13479310E+03</pdfrwt>
<pdfrwt beam="1">  1       -1 0.12068207E-01 0.13479310E+03</pdfrwt>
<totfact> 0.70759900E+03</totfact>
</mgrwt>
</event>
<event>
 7    1  0.5928109E-006  0.1806139E+03  0.7546771E-02  0.1174112E+00
         -1   -1    0    0    0  501 -0.00000000000E+00  0.00000000000E+00  0.36729246717E+02  0.36729246717E+02  0.00000000000E+00 0.  1.
          1   -1    0    0  501    0  0.00000000000E+00 -0.00000000000E+00 -0.76855396104E+03  0.76855396104E+03  0.00000000000E+00 0. -1.
         23    2    1    2    0    0  0.79998985287E+02  0.10294215337E+03 -0.42765625994E+03  0.46423190498E+03  0.12499784140E+03 0.  0.
          5    1    3    3  502    0  0.26994603725E+02  0.12017990673E+03 -0.26600457456E+03  0.29317646955E+03  0.47000000000E+01 0. -1.
         -5    1    3    3    0  502  0.53004381562E+02 -0.17237753359E+02 -0.16165168538E+03  0.17105543543E+03  0.47000000000E+01 0. -1.
        -11    1    1    2    0    0 -0.97377703462E+02 -0.89825249202E+02 -0.25979118464E+03  0.29162039048E+03  0.00000000000E+00 0.  1.
         11    1    1    2    0    0  0.17378718174E+02 -0.13116904169E+02 -0.44377269745E+02  0.49430912296E+02  0.00000000000E+00 0. -1.
<mgrwt>
<rscale>  0 0.17363206E+03</rscale>
<asrwt>0</asrwt>
<pdfrwt beam="2">  1        1 0.11823907E+00 0.18061391E+03</pdfrwt>
<pdfrwt beam="1">  1       -1 0.56506536E-02 0.18061391E+03</pdfrwt>
<totfact> 0.35380830E+03</totfact>
</mgrwt>
</event>
<event>
 7    1  0.5928109E-006  0.1315905E+03  0.7546771E-02  0.1239240E+00
         -1   -1    0    0    0  501 -0.00000000000E+00  0.00000000000E+00  0.90221064847E+02  0.90221064847E+02  0.00000000000E+00 0.  1.
          1   -1    0    0  501    0  0.00000000000E+00 -0.00000000000E+00 -0.14710932484E+03  0.14710932484E+03  0.00000000000E+00 0. -1.
         23    2    1    2    0    0  0.40730421812E+02  0.57907641313E+01 -0.39604262792E+02  0.13742105502E+03  0.12499419395E+03 0.  0.
          5    1    3    3  502    0 -0.57460133184E+00  0.54076288232E+02 -0.48863227404E+02  0.73036156170E+02  0.47000000000E+01 0. -1.
         -5    1    3    3    0  502  0.41305023144E+02 -0.48285524101E+02  0.92589646122E+01  0.64384898853E+02  0.47000000000E+01 0. -1.
        -11    1    1    2    0    0  0.11539256779E+02 -0.18145799032E+02  0.23956850441E+02  0.32192470433E+02  0.00000000000E+00 0.  1.
         11    1    1    2    0    0 -0.52269678591E+02  0.12355034900E+02 -0.41240847647E+02  0.67716864236E+02  0.00000000000E+00 0. -1.
<mgrwt>
<rscale>  0 0.12236869E+03</rscale>
<asrwt>0</asrwt>
<pdfrwt beam="2">  1        1 0.22632204E-01 0.13159046E+03</pdfrwt>
<pdfrwt beam="1">  1       -1 0.13880164E-01 0.13159046E+03</pdfrwt>
<totfact> 0.74754875E+03</totfact>
</mgrwt>
</event>
<event>
 7    1  0.5928109E-006  0.1772338E+03  0.7546771E-02  0.1176889E+00
         -2   -1    0    0    0  501 -0.00000000000E+00  0.00000000000E+00  0.15566666368E+03  0.15566666368E+03  0.00000000000E+00 0.  1.
          2   -1    0    0  501    0  0.00000000000E+00 -0.00000000000E+00 -0.19227592215E+03  0.19227592215E+03  0.00000000000E+00 0. -1.
         23    2    1    2    0    0 -0.63106161011E+02  0.10865121226E+03 -0.70828096981E+02  0.19086232671E+03  0.12499733979E+03 0.  0.
          5    1    3    3  502    0  0.12917603573E+02 -0.15550623022E+01 -0.54117036734E+02  0.55857196185E+02  0.47000000000E+01 0. -1.
         -5    1    3    3    0  502 -0.76023764584E+02  0.11020627456E+03 -0.16711060247E+02  0.13500513053E+03  0.47000000000E+01 0. -1.
        -11    1    1    2    0    0  0.85324774213E+02 -0.89675545434E+02  0.31550526787E+02  0.12773979914E+03  0.00000000000E+00 0. -1.
         11    1    1    2    0    0 -0.22218613202E+02 -0.18975666827E+02  0.26683117209E+01  0.29340459976E+02  0.00000000000E+00 0.  1.
<mgrwt>
<rscale>  0 0.17092316E+03</rscale>
<asrwt>0</asrwt>
<pdfrwt beam="2">  1        2 0.29580911E-01 0.17723377E+03</pdfrwt>
<pdfrwt beam="1">  1       -2 0.23948718E-01 0.17723377E+03</pdfrwt>
<totfact> 0.26773298E+03</totfact>
</mgrwt>
</event>
<event>
 7    1  0.5928109E-006  0.1207590E+03  0.7546771E-02  0.1256403E+00
          4   -1    0    0  501    0  0.00000000000E+00  0.00000000000E+00  0.62282509723E+02  0.62282509723E+02  0.00000000000E+00 0. -1.
         -4   -1    0    0    0  501 -0.00000000000E+00 -0.00000000000E+00 -0.25064714272E+03  0.25064714272E+03  0.00000000000E+00 0.  1.
         23    2    1    2    0    0  0.32974089782E+01  0.14254465832E+02 -0.20705779561E+02  0.12252129128E+03  0.11986940731E+03 0.  0.
          5    1    3    3  502    0 -0.82626905710E+01 -0.16824120205E+02  0.44888978716E+02  0.48871602043E+02  0.47000000000E+01 0. -1.
         -5    1    3    3    0  502  0.11560099549E+02  0.31078586037E+02 -0.65594758277E+02  0.73649689240E+02  0.47000000000E+01 0.  1.
        -11    1    1    2    0    0 -0.36615994703E+02  0.19564650089E+02 -0.62526110501E+02  0.75053454921E+02  0.00000000000E+00 0. -1.
         11    1    1    2    0    0  0.33318585725E+02 -0.33819115921E+02 -0.10513274294E+03  0.11535490624E+03  0.00000000000E+00 0.  1.
<mgrwt>
<rscale>  0 0.11228112E+03</rscale>
<asrwt>0</asrwt>
<pdfrwt beam="1">  1        4 0.95819245E-02 0.12075901E+03</pdfrwt>
<pdfrwt beam="2">  1       -4 0.38561099E-01 0.12075901E+03</pdfrwt>
<totfact> 0.85997173E+02</totfact>
</mgrwt>
</event>
<event>
 7    1  0.5928109E-006  0.1348494E+03  0.7546771E-02  0.1233447E+00
          1   -1    0    0  501    0  0.00000000000E+00  0.00000000000E+00  0.33905682225E+03  0.33905682225E+03  0.00000000000E+00 0. -1.
         -1   -1    0    0    0  501 -0.00000000000E+00 -0.00000000000E+00 -0.41790711467E+02  0.41790711467E+02  0.00000000000E+00 0.  1.
         23    2    1    2    0    0 -0.36251417813E+02  0.35293333218E+02  0.17788739021E+03  0.22322249933E+03  0.12499830379E+03 0.  0.
          5    1    3    3  502    0 -0.57451370934E+02 -0.24867986675E+02  0.50089416540E+02  0.80312616896E+02  0.47000000000E+01 0. -1.
         -5    1    3    3    0  502  0.21199953121E+02  0.60161319893E+02  0.12779797367E+03  0.14290988244E+03  0.47000000000E+01 0. -1.
        -11    1    1    2    0    0  0.58885177987E+02 -0.34453300383E+02  0.49837313902E+02  0.84488176396E+02  0.00000000000E+00 0.  1.
         11    1    1    2    0    0 -0.22633760174E+02 -0.84003283443E+00  0.69541406667E+02  0.73136857985E+02  0.00000000000E+00 0. -1.
<mgrwt>
<rscale>  0 0.12604371E+03</rscale>
<asrwt>0</asrwt>
<pdfrwt beam="1">  1        1 0.52162586E-01 0.13484940E+03</pdfrwt>
<pdfrwt beam="2">  1       -1 0.64293404E-02 0.13484940E+03</pdfrwt>
<totfact> 0.85612051E+03</totfact>
</mgrwt>
</event>
<event>
 6    1  0.5928109E-006  0.2846433E+03  0.7546771E-02  0.1137914E+00
          2   -1    0    0  501    0  0.00000000000E+00  0.00000000000E+00  0.26055221475E+04  0.26055221475E+04  0.00000000000E+00 0. -1.
         -2   -1    0    0    0  501 -0.00000000000E+00 -0.00000000000E+00 -0.17322800130E+02  0.17322800130E+02  0.00000000000E+00 0.  1.
          5    1    1    2  502    0  0.12389575845E+03  0.39694238900E+02  0.16672959388E+04  0.16723706614E+04  0.47000000000E+01 0. -1.
         -5    1    1    2    0  502 -0.12340182438E+03 -0.38534985743E+02  0.68736205231E+03  0.69942950778E+03  0.47000000000E+01 0.  1.
        -11    1    1    2    0    0  0.37538231410E+02  0.24631947652E+02  0.13603328022E+03  0.14325119542E+03  0.00000000000E+00 0. -1.
         11    1    1    2    0    0 -0.38032165482E+02 -0.25791200809E+02  0.97508075995E+02  0.10779358299E+03  0.00000000000E+00 0.  1.
<mgrwt>
<rscale>  0 0.21467794E+03</rscale>
<asrwt>0</asrwt>
<pdfrwt beam="1">  1        2 0.40084925E+00 0.28464326E+03</pdfrwt>
<pdfrwt beam="2">  1       -2 0.26650482E-02 0.28464326E+03</pdfrwt>
<totfact> 0.17685107E+03</totfact>
</mgrwt>
</event>
<event>
 7    1  0.5928109E-006  0.1972028E+03  0.7546771E-02  0.1156970E+00
         -1   -1    0    0    0  501 -0.00000000000E+00  0.00000000000E+00  0.28474482040E+03  0.28474482040E+03  0.00000000000E+00 0.  1.
          1   -1    0    0  501    0  0.00000000000E+00 -0.00000000000E+00 -0.17298975203E+03  0.17298975203E+03  0.00000000000E+00 0. -1.
         23    2    1    2    0    0  0.29671959491E+01  0.15249304715E+03 -0.65672805007E+02  0.20785061047E+03  0.12500410102E+03 0.  0.
          5    1    3    3  502    0 -0.37516979863E+02  0.11367244633E+03 -0.86579420586E+02  0.14780742506E+03  0.47000000000E+01 0.  1.
         -5    1    3    3    0  502  0.40484175812E+02  0.38820600815E+02  0.20906615579E+02  0.60043185407E+02  0.47000000000E+01 0.  1.
        -11    1    1    2    0    0  0.17651830002E+02 -0.69948163450E+02  0.26934440067E+02  0.77005173425E+02  0.00000000000E+00 0. -1.
         11    1    1    2    0    0 -0.20619025951E+02 -0.82544883698E+02  0.15049343332E+03  0.17287878854E+03  0.00000000000E+00 0.  1.
<mgrwt>
<rscale>  0 0.19166259E+03</rscale>
<asrwt>0</asrwt>
<pdfrwt beam="2">  1        1 0.26613808E-01 0.19720284E+03</pdfrwt>
<pdfrwt beam="1">  1       -1 0.43806895E-01 0.19720284E+03</pdfrwt>
<totfact> 0.92288548E+02</totfact>
</mgrwt>
</event>
<event>
 7    1  0.5928109E-006  0.1446096E+03  0.7546771E-02  0.1221993E+00
          4   -1    0    0  501    0  0.00000000000E+00  0.00000000000E+00  0.70440544492E+02  0.70440544492E+02  0.00000000000E+00 0. -1.
         -4   -1    0    0    0  501 -0.00000000000E+00 -0.00000000000E+00 -0.33451829517E+03  0.33451829517E+03  0.00000000000E+00 0.  1.
         23    2    1    2    0    0 -0.10011962743E+02  0.72016191459E+02 -0.29463919785E+02  0.14758067023E+03  0.12500144170E+03 0.  0.
          5    1    3    3  502    0  0.39431334682E+02  0.35478096402E+02  0.30672012672E+02  0.61452321685E+02  0.47000000000E+01 0.  1.
         -5    1    3    3    0  502 -0.49443297425E+02  0.36538095057E+02 -0.60135932456E+02  0.86128348545E+02  0.47000000000E+01 0.  1.
        -11    1    1    2    0    0  0.27787936936E+02 -0.52454763096E+02 -0.21850475703E+03  0.22642438132E+03  0.00000000000E+00 0.  1.
         11    1    1    2    0    0 -0.17775974193E+02 -0.19561428363E+02 -0.16109073870E+02  0.30953788122E+02  0.00000000000E+00 0. -1.
<mgrwt>
<rscale>  0 0.13375174E+03</rscale>
<asrwt>0</asrwt>
<pdfrwt beam="1">  1        4 0.10837007E-01 0.14460958E+03</pdfrwt>
<pdfrwt beam="2">  1       -4 0.51464352E-01 0.14460958E+03</pdfrwt>
<totfact> 0.40679470E+02</totfact>
</mgrwt>
</event>
<event>
 7    1  0.5928109E-006  0.2015039E+03  0.7546771E-02  0.1152729E+00
          4   -1    0    0  501    0  0.00000000000E+00  0.00000000000E+00  0.35830229447E+03  0.35830229447E+03  0.00000000000E+00 0. -1.
         -4   -1    0    0    0  501 -0.00000000000E+00 -0.00000000000E+00 -0.14947062917E+03  0.14947062917E+03  0.00000000000E+00 0.  1.
         23    2    1    2    0    0  0.15772873489E+03 -0.10034972169E+02  0.24987534017E+03  0.32100079435E+03  0.12499907950E+03 0.  0.
          5    1    3    3  502    0  0.32729846204E+02  0.51648905714E+02  0.89047832275E+02  0.10812242472E+03  0.47000000000E+01 0. -1.
         -5    1    3    3    0  502  0.12499888868E+03 -0.61683877883E+02  0.16082750790E+03  0.21287836964E+03  0.47000000000E+01 0. -1.
        -11    1    1    2    0    0 -0.83049479633E+02 -0.39892700395E+02 -0.25580931386E+02  0.95619180412E+02  0.00000000000E+00 0.  1.
         11    1    1    2    0    0 -0.74679255256E+02  0.49927672563E+02 -0.15462743487E+02  0.91152948879E+02  0.00000000000E+00 0. -1.
<mgrwt>
<rscale>  0 0.19649596E+03</rscale>
<asrwt>0</asrwt>
<pdfrwt beam="1">  1        4 0.55123430E-01 0.20150391E+03</pdfrwt>
<pdfrwt beam="2">  1       -4 0.22995482E-01 0.20150391E+03</pdfrwt>
<totfact> 0.98598755E+01</totfact>
</mgrwt>
</event>
<event>
 7    1  0.6350745E-006  0.1912133E+03  0.7546771E-02  0.1162284E+00
         -1   -1    0    0    0  501 -0.00000000000E+00  0.00000000000E+00  0.42471166233E+02  0.42471166233E+02  0.00000000000E+00 0.  1.
          1   -1    0    0  501    0  0.00000000000E+00 -0.00000000000E+00 -0.97298430639E+03  0.97298430639E+03  0.00000000000E+00 0. -1.
         23    2    1    2    0    0  0.38243121328E+02  0.13955463922E+03 -0.71771773909E+03  0.74275249808E+03  0.12499794698E+03 0.  0.
          5    1    3    3  502    0  0.22265209567E+02 -0.67095496013E+01 -0.24606343243E+02  0.34180692514E+02  0.47000000000E+01 0. -1.
         -5    1    3    3    0  502  0.15977911761E+02  0.14626418882E+03 -0.69311139584E+03  0.70857180557E+03  0.47000000000E+01 0. -1.
        -11    1    1    2    0    0  0.19860939813E+02 -0.91950928503E+02 -0.10106778536E+03  0.13807290617E+03  0.00000000000E+00 0.  1.
         11    1    1    2    0    0 -0.58104061141E+02 -0.47603710721E+02 -0.11172761571E+03  0.13463006837E+03  0.00000000000E+00 0. -1.
<mgrwt>
<rscale>  0 0.18582205E+03</rscale>
<asrwt>0</asrwt>
<pdfrwt beam="2">  1        1 0.14968988E+00 0.19121329E+03</pdfrwt>
<pdfrwt beam="1">  1       -1 0.65340260E-02 0.19121329E+03</pdfrwt>
<totfact> 0.19605557E+03</totfact>
</mgrwt>
</event>
<event>
 7    1  0.5928109E-006  0.1632009E+03  0.7546771E-02  0.1191040E+00
          1   -1    0    0  501    0  0.00000000000E+00  0.00000000000E+00  0.13460285049E+03  0.13460285049E+03  0.00000000000E+00 0. -1.
         -1   -1    0    0    0  501 -0.00000000000E+00 -0.00000000000E+00 -0.17579150977E+03  0.17579150977E+03  0.00000000000E+00 0.  1.
         23    2    1    2    0    0  0.10752184681E+02  0.10438653867E+03 -0.77680015782E+01  0.16338567536E+03  0.12498951209E+03 0.  0.
          5    1    3    3  502    0 -0.13344599366E+01  0.31169160840E+02  0.56756368741E+02  0.64935912740E+02  0.47000000000E+01 0.  1.
         -5    1    3    3    0  502  0.12086644617E+02  0.73217377829E+02 -0.64524370319E+02  0.98449762617E+02  0.47000000000E+01 0.  1.
        -11    1    1    2    0    0 -0.38315188899E+02 -0.36344368607E+01 -0.54240904472E+01  0.38867513284E+02  0.00000000000E+00 0.  1.
         11    1    1    2    0    0  0.27563004219E+02 -0.10075210181E+03 -0.27996567258E+02  0.10814117162E+03  0.00000000000E+00 0. -1.
<mgrwt>
<rscale>  0 0.15794173E+03</rscale>
<asrwt>0</asrwt>
<pdfrwt beam="1">  1        1 0.20708131E-01 0.16320091E+03</pdfrwt>
<pdfrwt beam="2">  1       -1 0.27044848E-01 0.16320091E+03</pdfrwt>
<totfact> 0.29021941E+03</totfact>
</mgrwt>
</event>
<event>
 7    1  0.5928109E-006  0.1152780E+03  0.7546771E-02  0.1259578E+00
          2   -1    0    0  501    0  0.00000000000E+00  0.00000000000E+00  0.78050925202E+03  0.78050925202E+03  0.00000000000E+00 0. -1.
         -2   -1    0    0    0  501 -0.00000000000E+00 -0.00000000000E+00 -0.31524220835E+02  0.31524220835E+02  0.00000000000E+00 0.  1.
         23    2    1    2    0    0  0.18538615535E+02 -0.13595769750E+02  0.68684946547E+03  0.69645617637E+03  0.11296234845E+03 0.  0.
          5    1    3    3  502    0  0.49794226677E+02  0.26941702654E+02  0.47844332447E+03  0.48180434315E+03  0.47000000000E+01 0. -1.
         -5    1    3    3    0  502 -0.31255611142E+02 -0.40537472404E+02  0.20840614100E+03  0.21465183322E+03  0.47000000000E+01 0.  1.
        -11    1    1    2    0    0  0.42421406022E+01  0.44744467143E+02  0.62503429063E+02  0.76985334587E+02  0.00000000000E+00 0. -1.
         11    1    1    2    0    0 -0.22780756137E+02 -0.31148697393E+02 -0.36786335053E+00  0.38591961895E+02  0.00000000000E+00 0.  1.
<mgrwt>
<rscale>  0 0.11053753E+03</rscale>
<asrwt>0</asrwt>
<pdfrwt beam="1">  1        2 0.12007833E+00 0.11527800E+03</pdfrwt>
<pdfrwt beam="2">  1       -2 0.48498807E-02 0.11527800E+03</pdfrwt>
<totfact> 0.71826244E+03</totfact>
</mgrwt>
</event>
<event>
 7    1  0.5928109E-006  0.1439918E+03  0.7546771E-02  0.1217315E+00
         -1   -1    0    0    0  501 -0.00000000000E+00  0.00000000000E+00  0.59669678362E+02  0.59669678362E+02  0.00000000000E+00 0.  1.
          1   -1    0    0  501    0  0.00000000000E+00 -0.00000000000E+00 -0.36466265645E+03  0.36466265645E+03  0.00000000000E+00 0. -1.
         23    2    1    2    0    0 -0.53602962591E+02 -0.47285726961E+02 -0.26112105125E+03  0.29819095540E+03  0.12499769960E+03 0.  0.
          5    1    3    3  502    0 -0.11656248235E+02 -0.40928684986E+02 -0.10664584353E+02  0.44123108878E+02  0.47000000000E+01 0. -1.
         -5    1    3    3    0  502 -0.41946714357E+02 -0.63570419746E+01 -0.25045646690E+03  0.25406784653E+03  0.47000000000E+01 0. -1.
        -11    1    1    2    0    0  0.37665101941E+02  0.68344119160E+02 -0.37730786057E+01  0.78126913738E+02  0.00000000000E+00 0.  1.
         11    1    1    2    0    0  0.15937860650E+02 -0.21058392199E+02 -0.40098848233E+02  0.48014465671E+02  0.00000000000E+00 0. -1.
<mgrwt>
<rscale>  0 0.13707825E+03</rscale>
<asrwt>0</asrwt>
<pdfrwt beam="2">  1        1 0.56101948E-01 0.14399181E+03</pdfrwt>
<pdfrwt beam="1">  1       -1 0.91799504E-02 0.14399181E+03</pdfrwt>
<totfact> 0.45886622E+03</totfact>
</mgrwt>
</event>
<event>
 6    1  0.5928109E-006  0.1408880E+03  0.7546771E-02  0.1226651E+00
         -2   -1    0    0    0  501 -0.00000000000E+00  0.00000000000E+00  0.10038161289E+03  0.10038161289E+03  0.00000000000E+00 0.  1.
          2   -1    0    0  501    0  0.00000000000E+00 -0.00000000000E+00 -0.15720029000E+03  0.15720029000E+03  0.00000000000E+00 0. -1.
          5    1    1    2  502    0 -0.18072845233E+02  0.68148057417E+01 -0.87637753304E+02  0.89863981196E+02  0.47000000000E+01 0. -1.
         -5    1    1    2    0  502  0.43396691374E+02  0.38296877759E+02  0.26361570216E+02  0.63772612088E+02  0.47000000000E+01 0.  1.
        -11    1    1    2    0    0 -0.56289119303E+02 -0.46230656978E+02  0.21106029398E+01  0.72871072734E+02  0.00000000000E+00 0. -1.
         11    1    1    2    0    0  0.30965273162E+02  0.11189734779E+01  0.23469030350E+01  0.31074236877E+02  0.00000000000E+00 0.  1.
<mgrwt>
<rscale>  0 0.13054398E+03</rscale>
<asrwt>0</asrwt>
<pdfrwt beam="2">  1        2 0.24184660E-01 0.14088801E+03</pdfrwt>
<pdfrwt beam="1">  1       -2 0.15443325E-01 0.14088801E+03</pdfrwt>
<totfact> 0.69263671E+03</totfact>
</mgrwt>
</event>
<event>
 7    1  0.5928109E-006  0.1847181E+03  0.7546771E-02  0.1168788E+00
          2   -1    0    0  501    0  0.00000000000E+00  0.00000000000E+00  0.69736188481E+02  0.69736188481E+02  0.00000000000E+00 0.  1.
         -2   -1    0    0    0  501 -0.00000000000E+00 -0.00000000000E+00 -0.51961810335E+03  0.51961810335E+03  0.00000000000E+00 0. -1.
         23    2    1    2    0    0 -0.49123200599E+02  0.12680718294E+03 -0.11665821918E+03  0.21847175187E+03  0.12501046269E+03 0.  0.
          5    1    3    3  502    0 -0.48808059571E+02  0.37480926479E+01 -0.72581501758E+02  0.87672340421E+02  0.47000000000E+01 0.  1.
         -5    1    3    3    0  502 -0.31514102868E+00  0.12305909029E+03 -0.44076717422E+02  0.13079941145E+03  0.47000000000E+01 0.  1.
        -11    1    1    2    0    0  0.58648106010E+02 -0.32735996397E+02 -0.16017509194E+03  0.17368737973E+03  0.00000000000E+00 0. -1.
         11    1    1    2    0    0 -0.95249054110E+01 -0.94071186539E+02 -0.17304860374E+03  0.19719516023E+03  0.00000000000E+00 0.  1.
<mgrwt>
<rscale>  0 0.17898646E+03</rscale>
<asrwt>0</asrwt>
<pdfrwt beam="1">  1        2 0.10728645E-01 0.18471807E+03</pdfrwt>
<pdfrwt beam="2">  1       -2 0.79941241E-01 0.18471807E+03</pdfrwt>
<totfact> 0.82847542E+02</totfact>
</mgrwt>
</event>
<event>
 7    1  0.5928109E-006  0.1261560E+03  0.7546771E-02  0.1249019E+00
          2   -1    0    0  501    0  0.00000000000E+00  0.00000000000E+00  0.32067963160E+03  0.32067963160E+03  0.00000000000E+00 0. -1.
         -2   -1    0    0    0  501 -0.00000000000E+00 -0.00000000000E+00 -0.48346273513E+02  0.48346273513E+02  0.00000000000E+00 0.  1.
         23    2    1    2    0    0 -0.12138186799E+02 -0.11943473741E+02  0.24120425429E+03  0.27220366959E+03  0.12500145323E+03 0.  0.
          5    1    3    3  502    0  0.46804965483E+02  0.24458816417E+02  0.72926038362E+02  0.90162273516E+02  0.47000000000E+01 0. -1.
         -5    1    3    3    0  502 -0.58943152282E+02 -0.36402290158E+02  0.16827821593E+03  0.18204139608E+03  0.47000000000E+01 0. -1.
        -11    1    1    2    0    0 -0.10272680022E+02  0.44663627080E+02  0.33991957590E+02  0.57059799505E+02  0.00000000000E+00 0. -1.
         11    1    1    2    0    0  0.22410866821E+02 -0.32720153338E+02 -0.28628537905E+01  0.39762436017E+02  0.00000000000E+00 0.  1.
<mgrwt>
<rscale>  0 0.11648007E+03</rscale>
<asrwt>0</asrwt>
<pdfrwt beam="1">  1        2 0.49335327E-01 0.12615604E+03</pdfrwt>
<pdfrwt beam="2">  1       -2 0.74378884E-02 0.12615604E+03</pdfrwt>
<totfact> 0.10145183E+04</totfact>
</mgrwt>
</event>
<event>
 7    1  0.5928109E-006  0.1356214E+03  0.7546771E-02  0.1231522E+00
         -1   -1    0    0    0  501 -0.00000000000E+00  0.00000000000E+00  0.83563087904E+03  0.83563087904E+03  0.00000000000E+00 0.  1.
          1   -1    0    0  501    0  0.00000000000E+00 -0.00000000000E+00 -0.19002603444E+02  0.19002603444E+02  0.00000000000E+00 0. -1.
         23    2    1    2    0    0 -0.21901417994E+02 -0.47827808594E+02  0.33061357853E+03  0.35734929113E+03  0.12500402462E+03 0.  0.
          5    1    3    3  502    0 -0.58497733934E+02 -0.67821874631E+02  0.18161299598E+03  0.20255162764E+03  0.47000000000E+01 0. -1.
         -5    1    3    3    0  502  0.36596315939E+02  0.19994066037E+02  0.14900058256E+03  0.15479766348E+03  0.47000000000E+01 0. -1.
        -11    1    1    2    0    0 -0.33906852357E+02  0.32851985572E+02  0.23648754942E+03  0.24115407652E+03  0.00000000000E+00 0.  1.
         11    1    1    2    0    0  0.55808270351E+02  0.14975823022E+02  0.24952714764E+03  0.25613011484E+03  0.00000000000E+00 0. -1.
<mgrwt>
<rscale>  0 0.12729755E+03</rscale>
<asrwt>0</asrwt>
<pdfrwt beam="2">  1        1 0.29234781E-02 0.13562145E+03</pdfrwt>
<pdfrwt beam="1">  1       -1 0.12855857E+00 0.13562145E+03</pdfrwt>
<totfact> 0.19200779E+03</totfact>
</mgrwt>
</event>
<event>
 7    1  0.5928109E-006  0.1297971E+03  0.7546771E-02  0.1241594E+00
         -2   -1    0    0    0  501 -0.00000000000E+00  0.00000000000E+00  0.13851998606E+03  0.13851998606E+03  0.00000000000E+00 0. -1.
          2   -1    0    0  501    0  0.00000000000E+00 -0.00000000000E+00 -0.16222511735E+03  0.16222511735E+03  0.00000000000E+00 0.  1.
         23    2    1    2    0    0 -0.21380316610E+02 -0.27666020601E+02 -0.11016205023E+03  0.17024380131E+03  0.12499899175E+03 0.  0.
          5    1    3    3  502    0 -0.11082315143E+02 -0.44506539930E+02 -0.13236519897E+03  0.14016520861E+03  0.47000000000E+01 0.  1.
         -5    1    3    3    0  502 -0.10298001467E+02  0.16840519329E+02  0.22203148735E+02  0.30078592707E+02  0.47000000000E+01 0.  1.
        -11    1    1    2    0    0  0.81232945469E+00  0.59658526380E+02  0.54941281359E+02  0.81106991353E+02  0.00000000000E+00 0. -1.
         11    1    1    2    0    0  0.20567987155E+02 -0.31992505779E+02  0.31515637584E+02  0.49394310745E+02  0.00000000000E+00 0.  1.
<mgrwt>
<rscale>  0 0.12091549E+03</rscale>
<asrwt>0</asrwt>
<pdfrwt beam="2">  1        2 0.24957710E-01 0.12979705E+03</pdfrwt>
<pdfrwt beam="1">  1       -2 0.21310767E-01 0.12979705E+03</pdfrwt>
<totfact> 0.38851445E+03</totfact>
</mgrwt>
</event>
<event>
 7    1  0.5928109E-006  0.2764734E+03  0.7546771E-02  0.1098732E+00
          2   -1    0    0  501    0  0.00000000000E+00  0.00000000000E+00  0.74935061698E+03  0.74935061698E+03  0.00000000000E+00 0. -1.
         -2   -1    0    0    0  501 -0.00000000000E+00 -0.00000000000E+00 -0.10212845014E+03  0.10212845014E+03  0.00000000000E+00 0.  1.
         23    2    1    2    0    0  0.14984308077E+02  0.24953951150E+03  0.40090379449E+03  0.48699219657E+03  0.11808069189E+03 0.  0.
          5    1    3    3  502    0  0.47597219350E+02  0.23104297248E+03  0.31882379604E+03  0.39663213857E+03  0.47000000000E+01 0. -1.
         -5    1    3    3    0  502 -0.32612911273E+02  0.18496539020E+02  0.82079998441E+02  0.90360057998E+02  0.47000000000E+01 0.  1.
        -11    1    1    2    0    0  0.29040669134E+01 -0.25055134640E+03  0.23302533627E+03  0.34217717360E+03  0.00000000000E+00 0.  1.
         11    1    1    2    0    0 -0.17888374991E+02  0.10118348976E+01  0.13293036091E+02  0.22309696954E+02  0.00000000000E+00 0. -1.
<mgrwt>
<rscale>  0 0.27449889E+03</rscale>
<asrwt>0</asrwt>
<pdfrwt beam="1">  1        2 0.11528471E+00 0.27647341E+03</pdfrwt>
<pdfrwt beam="2">  1       -2 0.15712070E-01 0.27647341E+03</pdfrwt>
<totfact> 0.12223400E+03</totfact>
</mgrwt>
</event>
<event>
 7    1  0.5928109E-006  0.1509363E+03  0.7546771E-02  0.1208208E+00
          2   -1    0    0  501    0  0.00000000000E+00  0.00000000000E+00  0.26600104357E+03  0.26600104357E+03  0.00000000000E+00 0.  1.
         -2   -1    0    0    0  501 -0.00000000000E+00 -0.00000000000E+00 -0.77971918712E+02  0.77971918712E+02  0.00000000000E+00 0. -1.
         23    2    1    2    0    0 -0.80556037343E+02 -0.25869443034E+02  0.15210823133E+03  0.21428646525E+03  0.12499308747E+03 0.  0.
          5    1    3    3  502    0 -0.31991919128E+02  0.49378458882E+02  0.42864039768E+02  0.72946082803E+02  0.47000000000E+01 0.  1.
         -5    1    3    3    0  502 -0.48564118215E+02 -0.75247901916E+02  0.10924419156E+03  0.14134038245E+03  0.47000000000E+01 0.  1.
        -11    1    1    2    0    0  0.12010339694E+02  0.50297071792E+02  0.17881579509E+02  0.54715578916E+02  0.00000000000E+00 0.  1.
         11    1    1    2    0    0  0.68545697649E+02 -0.24427628758E+02  0.18039314022E+02  0.74970918117E+02  0.00000000000E+00 0. -1.
<mgrwt>
<rscale>  0 0.14387513E+03</rscale>
<asrwt>0</asrwt>
<pdfrwt beam="1">  1        2 0.40923237E-01 0.15093633E+03</pdfrwt>
<pdfrwt beam="2">  1       -2 0.11995680E-01 0.15093633E+03</pdfrwt>
<totfact> 0.59255008E+03</totfact>
</mgrwt>
</event>
<event>
 6    1  0.5928109E-006  0.2194813E+03  0.7546771E-02  0.1154501E+00
         -2   -1    0    0    0  501 -0.00000000000E+00  0.00000000000E+00  0.73256674723E+02  0.73256674723E+02  0.00000000000E+00 0.  1.
          2   -1    0    0  501    0  0.00000000000E+00 -0.00000000000E+00 -0.48238108377E+03  0.48238108377E+03  0.00000000000E+00 0. -1.
          5    1    1    2  502    0  0.15784365322E+02  0.36681551249E+02 -0.34028137342E+03  0.34264877861E+03  0.47000000000E+01 0. -1.
         -5    1    1    2    0  502  0.18713527733E+02  0.56708423676E+02  0.27532906661E+01  0.59964256399E+02  0.47000000000E+01 0.  1.
        -11    1    1    2    0    0  0.55227610783E+01 -0.86820555552E+02 -0.71278083692E+02  0.11246721732E+03  0.00000000000E+00 0. -1.
         11    1    1    2    0    0 -0.40020654133E+02 -0.65694193728E+01 -0.31824260729E+00  0.40557506167E+02  0.00000000000E+00 0.  1.
<mgrwt>
<rscale>  0 0.19445829E+03</rscale>
<asrwt>0</asrwt>
<pdfrwt beam="2">  1        2 0.74212474E-01 0.21948132E+03</pdfrwt>
<pdfrwt beam="1">  1       -2 0.11270258E-01 0.21948132E+03</pdfrwt>
<totfact> 0.35089082E+03</totfact>
</mgrwt>
</event>
<event>
 7    1  0.5928109E-006  0.1696544E+03  0.7546771E-02  0.1184887E+00
          2   -1    0    0  501    0  0.00000000000E+00  0.00000000000E+00  0.11099507125E+03  0.11099507125E+03  0.00000000000E+00 0. -1.
         -2   -1    0    0    0  501 -0.00000000000E+00 -0.00000000000E+00 -0.24836584229E+03  0.24836584229E+03  0.00000000000E+00 0.  1.
         23    2    1    2    0    0 -0.11018750212E+03 -0.31850184658E+02 -0.17779213027E+02  0.17058343776E+03  0.12500755552E+03 0.  0.
          5    1    3    3  502    0  0.16447461174E+02 -0.38455355627E+02  0.21045177906E+01  0.42140863193E+02  0.47000000000E+01 0.  1.
         -5    1    3    3    0  502 -0.12663496329E+03  0.66051709696E+01 -0.19883730818E+02  0.12844257457E+03  0.47000000000E+01 0.  1.
        -11    1    1    2    0    0  0.52525457961E+02  0.37028175068E+02 -0.11367305549E+03  0.13058167186E+03  0.00000000000E+00 0.  1.
         11    1    1    2    0    0  0.57662044155E+02 -0.51779904101E+01 -0.59185025301E+01  0.58195803913E+02  0.00000000000E+00 0. -1.
<mgrwt>
<rscale>  0 0.16342175E+03</rscale>
<asrwt>0</asrwt>
<pdfrwt beam="1">  1        2 0.17076165E-01 0.16965438E+03</pdfrwt>
<pdfrwt beam="2">  1       -2 0.38210129E-01 0.16965438E+03</pdfrwt>
<totfact> 0.21267988E+03</totfact>
</mgrwt>
</event>
<event>
 7    1  0.5928109E-006  0.1590854E+03  0.7546771E-02  0.1197161E+00
         -1   -1    0    0    0  501 -0.00000000000E+00  0.00000000000E+00  0.40679071200E+02  0.40679071200E+02  0.00000000000E+00 0.  1.
          1   -1    0    0  501    0  0.00000000000E+00 -0.00000000000E+00 -0.11304062858E+04  0.11304062858E+04  0.00000000000E+00 0. -1.
         23    2    1    2    0    0  0.52520984344E+02  0.83216357609E+02 -0.99109346486E+03  0.10037800724E+04  0.12499904654E+03 0.  0.
          5    1    3    3  502    0 -0.18665749066E+02  0.34593608347E+02 -0.67345276947E+03  0.67461533531E+03  0.47000000000E+01 0. -1.
         -5    1    3    3    0  502  0.71186733410E+02  0.48622749261E+02 -0.31764069539E+03  0.32916473706E+03  0.47000000000E+01 0. -1.
        -11    1    1    2    0    0 -0.14385344561E+02  0.56220460473E+01  0.12598029022E+02  0.19931278813E+02  0.00000000000E+00 0.  1.
         11    1    1    2    0    0 -0.38135639783E+02 -0.88838403656E+02 -0.11123177881E+03  0.14737400586E+03  0.00000000000E+00 0. -1.
<mgrwt>
<rscale>  0 0.15272765E+03</rscale>
<asrwt>0</asrwt>
<pdfrwt beam="2">  1        1 0.17390868E+00 0.15908544E+03</pdfrwt>
<pdfrwt beam="1">  1       -1 0.62583179E-02 0.15908544E+03</pdfrwt>
<totfact> 0.16062681E+03</totfact>
</mgrwt>
</event>
<event>
 7    1  0.5928109E-006  0.1488313E+03  0.7546771E-02  0.1211169E+00
         -1   -1    0    0    0  501 -0.00000000000E+00  0.00000000000E+00  0.87567299519E+02  0.87567299519E+02  0.00000000000E+00 0.  1.
          1   -1    0    0  501    0  0.00000000000E+00 -0.00000000000E+00 -0.21789065802E+03  0.21789065802E+03  0.00000000000E+00 0. -1.
         23    2    1    2    0    0  0.71814516927E+02 -0.37005743536E+02 -0.10133315278E+03  0.18005323142E+03  0.12499603352E+03 0.  0.
          5    1    3    3  502    0  0.90353599509E+02 -0.76846445075E+01 -0.22131335566E+02  0.93459684995E+02  0.47000000000E+01 0. -1.
         -5    1    3    3    0  502 -0.18539082583E+02 -0.29321099029E+02 -0.79201817218E+02  0.86593546422E+02  0.47000000000E+01 0. -1.
        -11    1    1    2    0    0 -0.22865618330E+02  0.14913641285E+02 -0.58190643041E+02  0.64275999685E+02  0.00000000000E+00 0. -1.
         11    1    1    2    0    0 -0.48948898597E+02  0.22092102251E+02  0.29200437324E+02  0.61128726436E+02  0.00000000000E+00 0.  1.
<mgrwt>
<rscale>  0 0.14161774E+03</rscale>
<asrwt>0</asrwt>
<pdfrwt beam="2">  1        1 0.33521639E-01 0.14883131E+03</pdfrwt>
<pdfrwt beam="1">  1       -1 0.13471892E-01 0.14883131E+03</pdfrwt>
<totfact> 0.48299290E+03</totfact>
</mgrwt>
</event>
<event>
 7    1  0.5928109E-006  0.1573686E+03  0.7546771E-02  0.1202564E+00
          2   -1    0    0  501    0  0.00000000000E+00  0.00000000000E+00  0.11044715302E+04  0.11044715302E+04  0.00000000000E+00 0. -1.
         -2   -1    0    0    0  501 -0.00000000000E+00 -0.00000000000E+00 -0.18736975439E+02  0.18736975439E+02  0.00000000000E+00 0.  1.
         23    2    1    2    0    0  0.79545697185E+02 -0.52881721487E+02  0.71934874181E+03  0.73636096919E+03  0.12506346466E+03 0.  0.
          5    1    3    3  502    0  0.88689903735E+02 -0.26569577196E+02  0.68777404490E+03  0.69399356502E+03  0.47000000000E+01 0. -1.
         -5    1    3    3    0  502 -0.91442065498E+01 -0.26312144291E+02  0.31574696911E+02  0.42367404165E+02  0.47000000000E+01 0. -1.
        -11    1    1    2    0    0 -0.32718975186E+02  0.45218909854E+02  0.30058371456E+03  0.30572185169E+03  0.00000000000E+00 0. -1.
         11    1    1    2    0    0 -0.46826721999E+02  0.76628116331E+01  0.65802098417E+02  0.81125684782E+02  0.00000000000E+00 0.  1.
<mgrwt>
<rscale>  0 0.14831069E+03</rscale>
<asrwt>0</asrwt>
<pdfrwt beam="1">  1        2 0.16991865E+00 0.15736856E+03</pdfrwt>
<pdfrwt beam="2">  1       -2 0.28826125E-02 0.15736856E+03</pdfrwt>
<totfact> 0.99455175E+03</totfact>
</mgrwt>
</event>
<event>
 7    1  0.5928109E-006  0.1579553E+03  0.7546771E-02  0.1197962E+00
          3   -1    0    0  501    0  0.00000000000E+00  0.00000000000E+00  0.39226376359E+02  0.39226376359E+02  0.00000000000E+00 0. -1.
         -3   -1    0    0    0  501 -0.00000000000E+00 -0.00000000000E+00 -0.57004518707E+03  0.57004518707E+03  0.00000000000E+00 0.  1.
         23    2    1    2    0    0  0.67579948812E+02 -0.69145178209E+02 -0.34253858906E+03  0.37720359098E+03  0.12490700102E+03 0.  0.
          5    1    3    3  502    0  0.50543672328E+02  0.23035408261E+02 -0.19085397719E+03  0.19882812541E+03  0.47000000000E+01 0. -1.
         -5    1    3    3    0  502  0.17036276484E+02 -0.92180586470E+02 -0.15168461187E+03  0.17837546557E+03  0.47000000000E+01 0. -1.
        -11    1    1    2    0    0 -0.27676047375E+02 -0.99678422460E+01 -0.69194328340E+01  0.30219199660E+02  0.00000000000E+00 0. -1.
         11    1    1    2    0    0 -0.39903901437E+02  0.79113020455E+02 -0.18136078881E+03  0.20184877278E+03  0.00000000000E+00 0.  1.
<mgrwt>
<rscale>  0 0.15206203E+03</rscale>
<asrwt>0</asrwt>
<pdfrwt beam="1">  1        3 0.60348273E-02 0.15795526E+03</pdfrwt>
<pdfrwt beam="2">  1       -3 0.87699258E-01 0.15795526E+03</pdfrwt>
<totfact> 0.48652765E+02</totfact>
</mgrwt>
</event>
<event>
 7    1  0.5928109E-006  0.1721363E+03  0.7546771E-02  0.1182138E+00
         -2   -1    0    0    0  501 -0.00000000000E+00  0.00000000000E+00  0.28202611154E+02  0.28202611154E+02  0.00000000000E+00 0.  1.
          2   -1    0    0  501    0  0.00000000000E+00 -0.00000000000E+00 -0.91492993351E+03  0.91492993351E+03  0.00000000000E+00 0. -1.
         23    2    1    2    0    0 -0.11796160283E+03  0.93420227419E+01 -0.45116213744E+03  0.48288527613E+03  0.12501480920E+03 0.  0.
          5    1    3    3  502    0 -0.17791566140E+02  0.52639100521E+02 -0.92987822210E+02  0.10842619521E+03  0.47000000000E+01 0.  1.
         -5    1    3    3    0  502 -0.10017003669E+03 -0.43297077779E+02 -0.35817431523E+03  0.37445908092E+03  0.47000000000E+01 0.  1.
        -11    1    1    2    0    0  0.87881740903E+02  0.99156930549E+01 -0.40066826894E+03  0.41031278689E+03  0.00000000000E+00 0.  1.
         11    1    1    2    0    0  0.30079861931E+02 -0.19257715797E+02 -0.34896915985E+02  0.49934481641E+02  0.00000000000E+00 0. -1.
<mgrwt>
<rscale>  0 0.16595077E+03</rscale>
<asrwt>0</asrwt>
<pdfrwt beam="2">  1        2 0.14075846E+00 0.17213633E+03</pdfrwt>
<pdfrwt beam="1">  1       -2 0.43388629E-02 0.17213633E+03</pdfrwt>
<totfact> 0.70695578E+03</totfact>
</mgrwt>
</event>
<event>
 7    1  0.5928109E-006  0.1325247E+03  0.7546771E-02  0.1237362E+00
         -1   -1    0    0    0  501 -0.00000000000E+00  0.00000000000E+00  0.64099543602E+02  0.64099543602E+02  0.00000000000E+00 0.  1.
          1   -1    0    0  501    0  0.00000000000E+00 -0.00000000000E+00 -0.21525592748E+03  0.21525592748E+03  0.00000000000E+00 0. -1.
         23    2    1    2    0    0  0.41041502124E+02  0.15931759253E+02 -0.10526799962E+03  0.16924581618E+03  0.12499827479E+03 0.  0.
          5    1    3    3  502    0  0.32732369122E+02 -0.53072475326E+02 -0.55784863830E+02  0.83798190064E+02  0.47000000000E+01 0. -1.
         -5    1    3    3    0  502  0.83091330021E+01  0.69004234579E+02 -0.49483135787E+02  0.85447626113E+02  0.47000000000E+01 0. -1.
        -11    1    1    2    0    0 -0.38078950244E+02 -0.51177387873E+02 -0.36586301718E+02  0.73536990383E+02  0.00000000000E+00 0.  1.
         11    1    1    2    0    0 -0.29625518805E+01  0.35245628620E+02 -0.93020825411E+01  0.36572664520E+02  0.00000000000E+00 0. -1.
<mgrwt>
<rscale>  0 0.12354420E+03</rscale>
<asrwt>0</asrwt>
<pdfrwt beam="2">  1        1 0.33116297E-01 0.13252469E+03</pdfrwt>
<pdfrwt beam="1">  1       -1 0.98614682E-02 0.13252469E+03</pdfrwt>
<totfact> 0.78709378E+03</totfact>
</mgrwt>
</event>
<event>
 7    1  0.5928109E-006  0.2011795E+03  0.7546771E-02  0.1152738E+00
         -2   -1    0    0    0  501 -0.00000000000E+00  0.00000000000E+00  0.84847978852E+02  0.84847978852E+02  0.00000000000E+00 0.  1.
          2   -1    0    0  501    0  0.00000000000E+00 -0.00000000000E+00 -0.16718202653E+04  0.16718202653E+04  0.00000000000E+00 0. -1.
         23    2    1    2    0    0 -0.51358008481E+02  0.14902520150E+03 -0.15584780840E+04  0.15714092849E+04  0.12500818609E+03 0.  0.
          5    1    3    3  502    0  0.37877828371E+02  0.34438042889E+02 -0.27807813499E+03  0.28279011270E+03  0.47000000000E+01 0.  1.
         -5    1    3    3    0  502 -0.89235836852E+02  0.11458715861E+03 -0.12803999490E+04  0.12886191722E+04  0.47000000000E+01 0.  1.
        -11    1    1    2    0    0 -0.18605736509E+02 -0.26364537246E+02  0.17547966176E+02  0.36731367687E+02  0.00000000000E+00 0.  1.
         11    1    1    2    0    0  0.69963744990E+02 -0.12266066425E+03 -0.46042168612E+02  0.14852759157E+03  0.00000000000E+00 0. -1.
<mgrwt>
<rscale>  0 0.19648661E+03</rscale>
<asrwt>0</asrwt>
<pdfrwt beam="2">  1        2 0.25720312E+00 0.20117953E+03</pdfrwt>
<pdfrwt beam="1">  1       -2 0.13053535E-01 0.20117953E+03</pdfrwt>
<totfact> 0.48383651E+02</totfact>
</mgrwt>
</event>
<event>
 7    1  0.5928109E-006  0.1332550E+03  0.7546771E-02  0.1233246E+00
          2   -1    0    0  501    0  0.00000000000E+00  0.00000000000E+00  0.18447800376E+03  0.18447800376E+03  0.00000000000E+00 0. -1.
         -2   -1    0    0    0  501 -0.00000000000E+00 -0.00000000000E+00 -0.94691709421E+02  0.94691709421E+02  0.00000000000E+00 0.  1.
         23    2    1    2    0    0 -0.54559168692E+01 -0.45843182774E+02  0.10673131509E+03  0.17072925950E+03  0.12500216795E+03 0.  0.
          5    1    3    3  502    0 -0.42529391664E+02 -0.19146788055E+02  0.11488872338E+03  0.12408407395E+03  0.47000000000E+01 0. -1.
         -5    1    3    3    0  502  0.37073474795E+02 -0.26696394720E+02 -0.81574082974E+01  0.46645185545E+02  0.47000000000E+01 0. -1.
        -11    1    1    2    0    0 -0.33459055500E+02  0.45096262606E+02 -0.34326008239E+02  0.65813798991E+02  0.00000000000E+00 0.  1.
         11    1    1    2    0    0  0.38914972369E+02  0.74692016867E+00  0.17380987495E+02  0.42626654696E+02  0.00000000000E+00 0. -1.
<mgrwt>
<rscale>  0 0.12617362E+03</rscale>
<asrwt>0</asrwt>
<pdfrwt beam="1">  1        2 0.28381231E-01 0.13325504E+03</pdfrwt>
<pdfrwt beam="2">  1       -2 0.14567955E-01 0.13325504E+03</pdfrwt>
<totfact> 0.63677975E+03</totfact>
</mgrwt>
</event>
<event>
 7    1  0.5928109E-006  0.1379406E+03  0.7546771E-02  0.1228529E+00
         -2   -1    0    0    0  501 -0.00000000000E+00  0.00000000000E+00  0.33693890682E+02  0.33693890682E+02  0.00000000000E+00 0. -1.
          2   -1    0    0  501    0  0.00000000000E+00 -0.00000000000E+00 -0.51998143910E+03  0.51998143910E+03  0.00000000000E+00 0.  1.
         23    2    1    2    0    0 -0.35703975870E+02  0.46122832496E+02 -0.37558357971E+03  0.40011327767E+03  0.12500208018E+03 0.  0.
          5    1    3    3  502    0 -0.53287794836E+02  0.58355515399E+02 -0.12105784789E+03  0.14464455673E+03  0.47000000000E+01 0. -1.
         -5    1    3    3    0  502  0.17583818966E+02 -0.12232682903E+02 -0.25452573182E+03  0.25546872094E+03  0.47000000000E+01 0. -1.
        -11    1    1    2    0    0 -0.24076076723E+02 -0.91541797741E+01 -0.44125859235E+01  0.26132879525E+02  0.00000000000E+00 0. -1.
         11    1    1    2    0    0  0.59780052593E+02 -0.36968652722E+02 -0.10629138279E+03  0.12742917259E+03  0.00000000000E+00 0.  1.
<mgrwt>
<rscale>  0 0.12927911E+03</rscale>
<asrwt>0</asrwt>
<pdfrwt beam="2">  1        2 0.79997137E-01 0.13794060E+03</pdfrwt>
<pdfrwt beam="1">  1       -2 0.51836760E-02 0.13794060E+03</pdfrwt>
<totfact> 0.10514416E+04</totfact>
</mgrwt>
</event>
<event>
 7    1  0.5928109E-006  0.1422016E+03  0.7546771E-02  0.1220510E+00
         -2   -1    0    0    0  501 -0.00000000000E+00  0.00000000000E+00  0.17207579836E+02  0.17207579836E+02  0.00000000000E+00 0.  1.
          2   -1    0    0  501    0  0.00000000000E+00 -0.00000000000E+00 -0.10374327547E+04  0.10374327547E+04  0.00000000000E+00 0. -1.
         23    2    1    2    0    0 -0.63438511380E+02  0.23902714067E+02 -0.70400853342E+03  0.71822649524E+03  0.12500199545E+03 0.  0.
          5    1    3    3  502    0  0.22718134225E+02 -0.28229958427E+02 -0.28129150409E+03  0.28365479803E+03  0.47000000000E+01 0.  1.
         -5    1    3    3    0  502 -0.86156645605E+02  0.52132672495E+02 -0.42271702933E+03  0.43457169720E+03  0.47000000000E+01 0.  1.
        -11    1    1    2    0    0 -0.14966629505E+02 -0.99617506102E+01 -0.11220785759E+02  0.21192982495E+02  0.00000000000E+00 0.  1.
         11    1    1    2    0    0  0.78405140885E+02 -0.13940963457E+02 -0.30499585567E+03  0.31522085679E+03  0.00000000000E+00 0. -1.
<mgrwt>
<rscale>  0 0.13479478E+03</rscale>
<asrwt>0</asrwt>
<pdfrwt beam="2">  1        2 0.15960501E+00 0.14220156E+03</pdfrwt>
<pdfrwt beam="1">  1       -2 0.26473204E-02 0.14220156E+03</pdfrwt>
<totfact> 0.12262451E+04</totfact>
</mgrwt>
</event>
<event>
 7    1  0.5928109E-006  0.1354572E+03  0.7546771E-02  0.1230448E+00
          4   -1    0    0  501    0  0.00000000000E+00  0.00000000000E+00  0.85036685722E+02  0.85036685722E+02  0.00000000000E+00 0. -1.
         -4   -1    0    0    0  501 -0.00000000000E+00 -0.00000000000E+00 -0.17636185354E+03  0.17636185354E+03  0.00000000000E+00 0.  1.
         23    2    1    2    0    0 -0.40524573219E+02  0.32868132063E+02 -0.36623352683E+02  0.14032080922E+03  0.12500441752E+03 0.  0.
          5    1    3    3  502    0 -0.67019665420E+02  0.50097315289E+02 -0.57963197260E+02  0.10189798226E+03  0.47000000000E+01 0. -1.
         -5    1    3    3    0  502  0.26495092200E+02 -0.17229183226E+02  0.21339844577E+02  0.38422826964E+02  0.47000000000E+01 0. -1.
        -11    1    1    2    0    0  0.27832785216E+02 -0.34848797312E+02 -0.80629547875E+02  0.92142425611E+02  0.00000000000E+00 0.  1.
         11    1    1    2    0    0  0.12691788003E+02  0.19806652497E+01  0.25927732737E+02  0.28935304430E+02  0.00000000000E+00 0. -1.
<mgrwt>
<rscale>  0 0.12800413E+03</rscale>
<asrwt>0</asrwt>
<pdfrwt beam="1">  1        4 0.13082567E-01 0.13545722E+03</pdfrwt>
<pdfrwt beam="2">  1       -4 0.27132593E-01 0.13545722E+03</pdfrwt>
<totfact> 0.10153948E+03</totfact>
</mgrwt>
</event>
<event>
 7    1  0.5928109E-006  0.1267748E+03  0.7546771E-02  0.1246805E+00
         -3   -1    0    0    0  501 -0.00000000000E+00  0.00000000000E+00  0.29398995648E+02  0.29398995648E+02  0.00000000000E+00 0.  1.
          3   -1    0    0  501    0  0.00000000000E+00 -0.00000000000E+00 -0.41683474129E+03  0.41683474129E+03  0.00000000000E+00 0. -1.
         23    2    1    2    0    0 -0.31799449339E+00  0.21153077796E+02 -0.23086948547E+03  0.26338673614E+03  0.12499719851E+03 0.  0.
          5    1    3    3  502    0  0.54045232208E+02  0.13629052237E+02 -0.52528456104E+02  0.76733088625E+02  0.47000000000E+01 0. -1.
         -5    1    3    3    0  502 -0.54363226701E+02  0.75240255588E+01 -0.17834102936E+03  0.18665364752E+03  0.47000000000E+01 0. -1.
        -11    1    1    2    0    0 -0.33452229593E+02 -0.86453873734E+01 -0.16618648073E+02  0.38340238019E+02  0.00000000000E+00 0.  1.
         11    1    1    2    0    0  0.33770224086E+02 -0.12507690422E+02 -0.13994761210E+03  0.14450676277E+03  0.00000000000E+00 0. -1.
<mgrwt>
<rscale>  0 0.11777973E+03</rscale>
<asrwt>0</asrwt>
<pdfrwt beam="2">  1        3 0.64128416E-01 0.12677481E+03</pdfrwt>
<pdfrwt beam="1">  1       -3 0.45229228E-02 0.12677481E+03</pdfrwt>
<totfact> 0.14573112E+03</totfact>
</mgrwt>
</event>
<event>
 7    1  0.5928109E-006  0.1261127E+03  0.7546771E-02  0.1247622E+00
          1   -1    0    0  501    0  0.00000000000E+00  0.00000000000E+00  0.31329438241E+03  0.31329438241E+03  0.00000000000E+00 0. -1.
         -1   -1    0    0    0  501 -0.00000000000E+00 -0.00000000000E+00 -0.38802366069E+02  0.38802366069E+02  0.00000000000E+00 0.  1.
         23    2    1    2    0    0 -0.41836366325E+01  0.16203443497E+02  0.15931503973E+03  0.20318881578E+03  0.12499743428E+03 0.  0.
          5    1    3    3  502    0 -0.35696842780E+02 -0.37367831336E+01  0.16153029291E+03  0.16553656291E+03  0.47000000000E+01 0. -1.
         -5    1    3    3    0  502  0.31513206148E+02  0.19940226631E+02 -0.22152531760E+01  0.37652252873E+02  0.47000000000E+01 0. -1.
        -11    1    1    2    0    0 -0.32008000049E+02  0.17269455326E+02  0.19476180109E+02  0.41256123740E+02  0.00000000000E+00 0. -1.
         11    1    1    2    0    0  0.36191636681E+02 -0.33472898824E+02  0.95700796501E+02  0.10765180896E+03  0.00000000000E+00 0.  1.
<mgrwt>
<rscale>  0 0.11729801E+03</rscale>
<asrwt>0</asrwt>
<pdfrwt beam="1">  1        1 0.48199134E-01 0.12611270E+03</pdfrwt>
<pdfrwt beam="2">  1       -1 0.59695950E-02 0.12611270E+03</pdfrwt>
<totfact> 0.10493975E+04</totfact>
</mgrwt>
</event>
<event>
 7    1  0.5928109E-006  0.1602459E+03  0.7546771E-02  0.1195644E+00
         -3   -1    0    0    0  501 -0.00000000000E+00  0.00000000000E+00  0.53898112442E+03  0.53898112442E+03  0.00000000000E+00 0. -1.
          3   -1    0    0  501    0  0.00000000000E+00 -0.00000000000E+00 -0.45359967352E+02  0.45359967352E+02  0.00000000000E+00 0.  1.
         23    2    1    2    0    0  0.55453493980E+00 -0.10026648467E+03  0.17305926073E+03  0.23585645311E+03  0.12500033317E+03 0.  0.
          5    1    3    3  502    0 -0.32147642321E+02 -0.10517173517E+02  0.12351346434E+03  0.12814736719E+03  0.47000000000E+01 0. -1.
         -5    1    3    3    0  502  0.32702177261E+02 -0.89749311149E+02  0.49545796395E+02  0.10770908592E+03  0.47000000000E+01 0. -1.
        -11    1    1    2    0    0  0.14318293123E+02 -0.10900464794E+02  0.16568905292E+02  0.24461444628E+02  0.00000000000E+00 0.  1.
         11    1    1    2    0    0 -0.14872828063E+02  0.11116694946E+03  0.30399299105E+03  0.32402319403E+03  0.00000000000E+00 0. -1.
<mgrwt>
<rscale>  0 0.15399870E+03</rscale>
<asrwt>0</asrwt>
<pdfrwt beam="2">  1        3 0.69784569E-02 0.16024593E+03</pdfrwt>
<pdfrwt beam="1">  1       -3 0.82920168E-01 0.16024593E+03</pdfrwt>
<totfact> 0.43647099E+02</totfact>
</mgrwt>
</event>
<event>
 7    1  0.5928109E-006  0.1412078E+03  0.7546771E-02  0.1222692E+00
         -1   -1    0    0    0  501 -0.00000000000E+00  0.00000000000E+00  0.14137241083E+03  0.14137241083E+03  0.00000000000E+00 0.  1.
          1   -1    0    0  501    0  0.00000000000E+00 -0.00000000000E+00 -0.11625324625E+03  0.11625324625E+03  0.00000000000E+00 0. -1.
         23    2    1    2    0    0  0.50415412950E+02 -0.42105215700E+02 -0.61120860451E+01  0.14134004495E+03  0.12500035064E+03 0.  0.
          5    1    3    3  502    0  0.47201839207E+02  0.16035008000E+02 -0.48073012458E+02  0.69413540702E+02  0.47000000000E+01 0. -1.
         -5    1    3    3    0  502  0.32135737432E+01 -0.58140223701E+02  0.41960926412E+02  0.71926504249E+02  0.47000000000E+01 0. -1.
        -11    1    1    2    0    0 -0.16597671772E+02  0.36255959591E+01 -0.31200746546E+02  0.35526247189E+02  0.00000000000E+00 0. -1.
         11    1    1    2    0    0 -0.33817741178E+02  0.38479619741E+02  0.62431997169E+02  0.80759364932E+02  0.00000000000E+00 0.  1.
<mgrwt>
<rscale>  0 0.13326354E+03</rscale>
<asrwt>0</asrwt>
<pdfrwt beam="2">  1        1 0.17885115E-01 0.14120783E+03</pdfrwt>
<pdfrwt beam="1">  1       -1 0.21749602E-01 0.14120783E+03</pdfrwt>
<totfact> 0.49673504E+03</totfact>
</mgrwt>
</event>
<event>
 7    1  0.5928109E-006  0.1655513E+03  0.7546771E-02  0.1189907E+00
         -2   -1    0    0    0  501 -0.00000000000E+00  0.00000000000E+00  0.13418192432E+03  0.13418192432E+03  0.00000000000E+00 0.  1.
          2   -1    0    0  501    0  0.00000000000E+00 -0.00000000000E+00 -0.17701861444E+03  0.17701861444E+03  0.00000000000E+00 0. -1.
         23    2    1    2    0    0 -0.76437816464E+02  0.77057824944E+02 -0.41060311665E+02  0.17056725643E+03  0.12500636624E+03 0.  0.
          5    1    3    3  502    0 -0.67248704356E+02  0.32934136981E+02 -0.80823915260E+02  0.11027982995E+03  0.47000000000E+01 0. -1.
         -5    1    3    3    0  502 -0.91891121083E+01  0.44123687963E+02  0.39763603594E+02  0.60287426480E+02  0.47000000000E+01 0. -1.
        -11    1    1    2    0    0  0.94358307612E+01  0.15465845952E+02  0.17023948448E+02  0.24860452810E+02  0.00000000000E+00 0.  1.
         11    1    1    2    0    0  0.67001985703E+02 -0.92523670897E+02 -0.18800326899E+02  0.11577282952E+03  0.00000000000E+00 0. -1.
<mgrwt>
<rscale>  0 0.15893255E+03</rscale>
<asrwt>0</asrwt>
<pdfrwt beam="2">  1        2 0.27233633E-01 0.16555132E+03</pdfrwt>
<pdfrwt beam="1">  1       -2 0.20643373E-01 0.16555132E+03</pdfrwt>
<totfact> 0.37757499E+03</totfact>
</mgrwt>
</event>
<event>
 7    1  0.5928109E-006  0.1422001E+03  0.7546771E-02  0.1222471E+00
         -2   -1    0    0    0  501 -0.00000000000E+00  0.00000000000E+00  0.54419772852E+02  0.54419772852E+02  0.00000000000E+00 0.  1.
          2   -1    0    0  501    0  0.00000000000E+00 -0.00000000000E+00 -0.29274767616E+03  0.29274767616E+03  0.00000000000E+00 0. -1.
         23    2    1    2    0    0 -0.60610358798E+02  0.30363202151E+02 -0.13755564000E+03  0.19784446679E+03  0.12500135721E+03 0.  0.
          5    1    3    3  502    0 -0.36398202152E+02  0.65876766373E+02 -0.13487315717E+03  0.15452325389E+03  0.47000000000E+01 0. -1.
         -5    1    3    3    0  502 -0.24212156646E+02 -0.35513564222E+02 -0.26824828347E+01  0.43321212902E+02  0.47000000000E+01 0. -1.
        -11    1    1    2    0    0  0.33087788408E+02 -0.51209667369E+02 -0.24700272257E+02  0.65782484168E+02  0.00000000000E+00 0.  1.
         11    1    1    2    0    0  0.27522570391E+02  0.20846465217E+02 -0.76071991051E+02  0.83540498056E+02  0.00000000000E+00 0. -1.
<mgrwt>
<rscale>  0 0.13341745E+03</rscale>
<asrwt>0</asrwt>
<pdfrwt beam="2">  1        2 0.45038104E-01 0.14220014E+03</pdfrwt>
<pdfrwt beam="1">  1       -2 0.83722728E-02 0.14220014E+03</pdfrwt>
<totfact> 0.93919403E+03</totfact>
</mgrwt>
</event>
<event>
 7    1  0.5928109E-006  0.1357482E+03  0.7546771E-02  0.1230777E+00
          2   -1    0    0  501    0  0.00000000000E+00  0.00000000000E+00  0.27236782323E+03  0.27236782323E+03  0.00000000000E+00 0. -1.
         -2   -1    0    0    0  501 -0.00000000000E+00 -0.00000000000E+00 -0.54727005311E+02  0.54727005311E+02  0.00000000000E+00 0.  1.
         23    2    1    2    0    0 -0.12158635213E+02 -0.51371587288E+02  0.14157896209E+03  0.19614328622E+03  0.12506283954E+03 0.  0.
          5    1    3    3  502    0 -0.63433532745E+02 -0.29205035547E+02  0.11374667618E+03  0.13355576932E+03  0.47000000000E+01 0.  1.
         -5    1    3    3    0  502  0.51274897532E+02 -0.22166551740E+02  0.27832285914E+02  0.62587516904E+02  0.47000000000E+01 0.  1.
        -11    1    1    2    0    0  0.17961521048E+02  0.75644548759E+02  0.40946954511E+02  0.87871309760E+02  0.00000000000E+00 0.  1.
         11    1    1    2    0    0 -0.58028858352E+01 -0.24272961471E+02  0.35114901320E+02  0.43080232559E+02  0.00000000000E+00 0. -1.
<mgrwt>
<rscale>  0 0.12778704E+03</rscale>
<asrwt>0</asrwt>
<pdfrwt beam="1">  1        2 0.41902741E-01 0.13574825E+03</pdfrwt>
<pdfrwt beam="2">  1       -2 0.84195394E-02 0.13574825E+03</pdfrwt>
<totfact> 0.10017019E+04</totfact>
</mgrwt>
</event>
<event>
 7    1  0.5928109E-006  0.1593132E+03  0.7546771E-02  0.1197898E+00
          2   -1    0    0  501    0  0.00000000000E+00  0.00000000000E+00  0.20723600254E+03  0.20723600254E+03  0.00000000000E+00 0. -1.
         -2   -1    0    0    0  501 -0.00000000000E+00 -0.00000000000E+00 -0.10310342124E+03  0.10310342124E+03  0.00000000000E+00 0.  1.
         23    2    1    2    0    0  0.34475353818E+02  0.92553436694E+02  0.66918761437E+02  0.17279700170E+03  0.12500397794E+03 0.  0.
          5    1    3    3  502    0 -0.42659605658E+02  0.45074546093E+02  0.51531173791E+02  0.80802899283E+02  0.47000000000E+01 0.  1.
         -5    1    3    3    0  502  0.77134959476E+02  0.47478890601E+02  0.15387587647E+02  0.91994102418E+02  0.47000000000E+01 0.  1.
        -11    1    1    2    0    0 -0.32375034225E+02 -0.50534316352E+02  0.63944672252E+02  0.87697098468E+02  0.00000000000E+00 0. -1.
         11    1    1    2    0    0 -0.21003195935E+01 -0.42019120342E+02 -0.26730852382E+02  0.49845323610E+02  0.00000000000E+00 0.  1.
<mgrwt>
<rscale>  0 0.15211461E+03</rscale>
<asrwt>0</asrwt>
<pdfrwt beam="1">  1        2 0.31882462E-01 0.15931316E+03</pdfrwt>
<pdfrwt beam="2">  1       -2 0.15862065E-01 0.15931316E+03</pdfrwt>
<totfact> 0.49363944E+03</totfact>
</mgrwt>
</event>
<event>
 7    1  0.5928109E-006  0.1777503E+03  0.7546771E-02  0.1175965E+00
          1   -1    0    0  501    0  0.00000000000E+00  0.00000000000E+00  0.18859769844E+04  0.18859769844E+04  0.00000000000E+00 0. -1.
         -1   -1    0    0    0  501 -0.00000000000E+00 -0.00000000000E+00 -0.14858806246E+02  0.14858806246E+02  0.00000000000E+00 0.  1.
         23    2    1    2    0    0  0.86468073764E+02  0.92178033690E+02  0.10983686198E+04  0.11126584389E+04  0.12498663618E+03 0.  0.
          5    1    3    3  502    0  0.68546554420E+02 -0.12941142557E+02  0.37578726234E+03  0.38223586937E+03  0.47000000000E+01 0. -1.
         -5    1    3    3    0  502  0.17921519344E+02  0.10511917625E+03  0.72258135741E+03  0.73042256958E+03  0.47000000000E+01 0. -1.
        -11    1    1    2    0    0 -0.35711277381E+02 -0.93051992485E+02  0.59623045926E+03  0.60450370486E+03  0.00000000000E+00 0. -1.
         11    1    1    2    0    0 -0.50756796383E+02  0.87395879505E+00  0.17651909918E+03  0.18367364688E+03  0.00000000000E+00 0.  1.
<mgrwt>
<rscale>  0 0.17181797E+03</rscale>
<asrwt>0</asrwt>
<pdfrwt beam="1">  1        1 0.29015012E+00 0.17775032E+03</pdfrwt>
<pdfrwt beam="2">  1       -1 0.22859717E-02 0.17775032E+03</pdfrwt>
<totfact> 0.22556299E+03</totfact>
</mgrwt>
</event>
<event>
 7    1  0.5928109E-006  0.1309801E+03  0.7546771E-02  0.1256889E+00
         -3   -1    0    0    0  501 -0.00000000000E+00  0.00000000000E+00  0.30620788110E+02  0.30620788110E+02  0.00000000000E+00 0.  1.
          3   -1    0    0  501    0  0.00000000000E+00 -0.00000000000E+00 -0.33093088286E+03  0.33093088286E+03  0.00000000000E+00 0. -1.
         23    2    1    2    0    0  0.38103270707E+02  0.88335507614E+01 -0.20482623173E+03  0.24312462553E+03  0.12500362985E+03 0.  0.
          5    1    3    3  502    0 -0.33097500976E+02 -0.19686457620E+02 -0.21523367980E+02  0.44366051816E+02  0.47000000000E+01 0. -1.
         -5    1    3    3    0  502  0.71200771683E+02  0.28520008382E+02 -0.18330286375E+03  0.19875857371E+03  0.47000000000E+01 0. -1.
        -11    1    1    2    0    0 -0.23075671932E+01  0.17724060237E+02 -0.67092386868E+01  0.19091387100E+02  0.00000000000E+00 0.  1.
         11    1    1    2    0    0 -0.35795703514E+02 -0.26557610999E+02 -0.88774624334E+02  0.99335658340E+02  0.00000000000E+00 0. -1.
<mgrwt>
<rscale>  0 0.11201210E+03</rscale>
<asrwt>0</asrwt>
<pdfrwt beam="2">  1        3 0.50912443E-01 0.13098014E+03</pdfrwt>
<pdfrwt beam="1">  1       -3 0.47108905E-02 0.13098014E+03</pdfrwt>
<totfact> 0.22004203E+03</totfact>
</mgrwt>
</event>
<event>
 7    1  0.6274573E-006  0.1783902E+03  0.7546771E-02  0.1175307E+00
          1   -1    0    0  501    0  0.00000000000E+00  0.00000000000E+00  0.13510398412E+03  0.13510398412E+03  0.00000000000E+00 0. -1.
         -1   -1    0    0    0  501 -0.00000000000E+00 -0.00000000000E+00 -0.25006829110E+03  0.25006829110E+03  0.00000000000E+00 0.  1.
         23    2    1    2    0    0  0.11976097767E+03  0.43076840810E+02  0.19366960330E+02  0.17943839486E+03  0.12499900964E+03 0.  0.
          5    1    3    3  502    0  0.57256249328E+02 -0.42347011671E+02 -0.17942861329E+01  0.71392275124E+02  0.47000000000E+01 0.  1.
         -5    1    3    3    0  502  0.62504728345E+02  0.85423852481E+02  0.21161246463E+02  0.10804611974E+03  0.47000000000E+01 0.  1.
        -11    1    1    2    0    0  0.49520341876E+01 -0.24170193083E+02 -0.44485447396E+02  0.50869203909E+02  0.00000000000E+00 0.  1.
         11    1    1    2    0    0 -0.12471301186E+03 -0.18906647727E+02 -0.89845819910E+02  0.15486467645E+03  0.00000000000E+00 0. -1.
<mgrwt>
<rscale>  0 0.17245975E+03</rscale>
<asrwt>0</asrwt>
<pdfrwt beam="1">  1        1 0.20785228E-01 0.17839019E+03</pdfrwt>
<pdfrwt beam="2">  1       -1 0.38472045E-01 0.17839019E+03</pdfrwt>
<totfact> 0.15877688E+03</totfact>
</mgrwt>
</event>
<event>
 7    1  0.5928109E-006  0.1424822E+03  0.7546771E-02  0.1220696E+00
         -1   -1    0    0    0  501 -0.00000000000E+00  0.00000000000E+00  0.15400192163E+03  0.15400192163E+03  0.00000000000E+00 0.  1.
          1   -1    0    0  501    0  0.00000000000E+00 -0.00000000000E+00 -0.10827412490E+03  0.10827412490E+03  0.00000000000E+00 0. -1.
         23    2    1    2    0    0  0.63733310822E+02  0.24664104681E+02  0.88458385210E+01  0.14275656166E+03  0.12502373403E+03 0.  0.
          5    1    3    3  502    0  0.10437700189E+01  0.66688633374E+02  0.38007402013E+01  0.66970134413E+02  0.47000000000E+01 0. -1.
         -5    1    3    3    0  502  0.62689540803E+02 -0.42024528693E+02  0.50450983197E+01  0.75786427248E+02  0.47000000000E+01 0. -1.
        -11    1    1    2    0    0  0.22423465501E+02  0.42092256256E+01  0.69424541213E+01  0.23847998966E+02  0.00000000000E+00 0.  1.
         11    1    1    2    0    0 -0.86156776323E+02 -0.28873330307E+02  0.29939504085E+02  0.95671485899E+02  0.00000000000E+00 0. -1.
<mgrwt>
<rscale>  0 0.13466285E+03</rscale>
<asrwt>0</asrwt>
<pdfrwt beam="2">  1        1 0.16657558E-01 0.14248223E+03</pdfrwt>
<pdfrwt beam="1">  1       -1 0.23692603E-01 0.14248223E+03</pdfrwt>
<totfact> 0.47375338E+03</totfact>
</mgrwt>
</event>
<event>
 7    1  0.5928109E-006  0.1598381E+03  0.7546771E-02  0.1196481E+00
         -4   -1    0    0    0  501 -0.00000000000E+00  0.00000000000E+00  0.14121237456E+03  0.14121237456E+03  0.00000000000E+00 0.  1.
          4   -1    0    0  501    0  0.00000000000E+00 -0.00000000000E+00 -0.15632524679E+03  0.15632524679E+03  0.00000000000E+00 0. -1.
         23    2    1    2    0    0 -0.51682041239E+02 -0.85105194918E+02 -0.25704840149E+02  0.16189178877E+03  0.12503713399E+03 0.  0.
          5    1    3    3  502    0  0.18748129935E+02 -0.57314124615E+02  0.30249311349E+02  0.67627746477E+02  0.47000000000E+01 0. -1.
         -5    1    3    3    0  502 -0.70430171174E+02 -0.27791070302E+02 -0.55954151498E+02  0.94264042296E+02  0.47000000000E+01 0. -1.
        -11    1    1    2    0    0  0.31259258453E+02  0.22273882672E+02 -0.37707497396E+02  0.53806342082E+02  0.00000000000E+00 0. -1.
         11    1    1    2    0    0  0.20422782786E+02  0.62831312245E+02  0.48299465313E+02  0.81839490496E+02  0.00000000000E+00 0.  1.
<mgrwt>
<rscale>  0 0.15329564E+03</rscale>
<asrwt>0</asrwt>
<pdfrwt beam="2">  1        4 0.24050038E-01 0.15983808E+03</pdfrwt>
<pdfrwt beam="1">  1       -4 0.21724981E-01 0.15983808E+03</pdfrwt>
<totfact> 0.53447341E+02</totfact>
</mgrwt>
</event>
<event>
 7    1  0.5928109E-006  0.1325858E+03  0.7546771E-02  0.1237771E+00
         -2   -1    0    0    0  501 -0.00000000000E+00  0.00000000000E+00  0.89396926203E+02  0.89396926203E+02  0.00000000000E+00 0.  1.
          2   -1    0    0  501    0  0.00000000000E+00 -0.00000000000E+00 -0.16029302268E+03  0.16029302268E+03  0.00000000000E+00 0. -1.
         23    2    1    2    0    0 -0.41595854598E+02  0.14902217090E+02 -0.71348196909E+02  0.15056410729E+03  0.12500677584E+03 0.  0.
          5    1    3    3  502    0 -0.12071201311E+02  0.24602873821E+02 -0.10256393995E+03  0.10626602035E+03  0.47000000000E+01 0. -1.
         -5    1    3    3    0  502 -0.29524653287E+02 -0.97006567309E+01  0.31215743044E+02  0.44298086940E+02  0.47000000000E+01 0. -1.
        -11    1    1    2    0    0  0.13333701577E+01 -0.33308388089E+02 -0.30440405297E+02  0.45142495142E+02  0.00000000000E+00 0. -1.
         11    1    1    2    0    0  0.40262484440E+02  0.18406170999E+02  0.30892505730E+02  0.53983346455E+02  0.00000000000E+00 0.  1.
<mgrwt>
<rscale>  0 0.12328728E+03</rscale>
<asrwt>0</asrwt>
<pdfrwt beam="2">  1        2 0.24660465E-01 0.13258577E+03</pdfrwt>
<pdfrwt beam="1">  1       -2 0.13753373E-01 0.13258577E+03</pdfrwt>
<totfact> 0.81522296E+03</totfact>
</mgrwt>
</event>
<event>
 6    1  0.5928109E-006  0.1885326E+03  0.7546771E-02  0.1168415E+00
         -2   -1    0    0    0  501 -0.00000000000E+00  0.00000000000E+00  0.24278235052E+02  0.24278235052E+02  0.00000000000E+00 0.  1.
          2   -1    0    0  501    0  0.00000000000E+00 -0.00000000000E+00 -0.12472750779E+04  0.12472750779E+04  0.00000000000E+00 0. -1.
          5    1    1    2  502    0 -0.52934874941E+01  0.60238764312E+02 -0.21678001198E+03  0.22510529387E+03  0.47000000000E+01 0. -1.
         -5    1    1    2    0  502 -0.11940424591E+03 -0.43048475647E+02 -0.56094107482E+03  0.57514130839E+03  0.47000000000E+01 0.  1.
        -11    1    1    2    0    0  0.84422343185E+02  0.29055940156E+02 -0.31339641176E+03  0.32586606235E+03  0.00000000000E+00 0. -1.
         11    1    1    2    0    0  0.40275390221E+02 -0.46246228822E+02 -0.13187934424E+03  0.14544064829E+03  0.00000000000E+00 0.  1.
<mgrwt>
<rscale>  0 0.17936906E+03</rscale>
<asrwt>0</asrwt>
<pdfrwt beam="2">  1        2 0.19188844E+00 0.18853258E+03</pdfrwt>
<pdfrwt beam="1">  1       -2 0.37351137E-02 0.18853258E+03</pdfrwt>
<totfact> 0.56652365E+03</totfact>
</mgrwt>
</event>
<event>
 7    1  0.5928109E-006  0.1335789E+03  0.7546771E-02  0.1235142E+00
         -2   -1    0    0    0  501 -0.00000000000E+00  0.00000000000E+00  0.31987737384E+02  0.31987737384E+02  0.00000000000E+00 0.  1.
          2   -1    0    0  501    0  0.00000000000E+00 -0.00000000000E+00 -0.48370149603E+03  0.48370149603E+03  0.00000000000E+00 0. -1.
         23    2    1    2    0    0 -0.33081154574E+01 -0.46983511493E+02 -0.33416670443E+03  0.35987596301E+03  0.12499971370E+03 0.  0.
          5    1    3    3  502    0  0.47582153046E+02 -0.12310843742E+02 -0.54787512906E+02  0.73752150697E+02  0.47000000000E+01 0.  1.
         -5    1    3    3    0  502 -0.50890268503E+02 -0.34672667752E+02 -0.27937919153E+03  0.28612381232E+03  0.47000000000E+01 0.  1.
        -11    1    1    2    0    0  0.28657400038E+02  0.61283246841E+02 -0.10311480803E+03  0.12332699037E+03  0.00000000000E+00 0. -1.
         11    1    1    2    0    0 -0.25349284580E+02 -0.14299735348E+02 -0.14432246183E+02  0.32486280022E+02  0.00000000000E+00 0.  1.
<mgrwt>
<rscale>  0 0.12495317E+03</rscale>
<asrwt>0</asrwt>
<pdfrwt beam="2">  1        2 0.74415612E-01 0.13357890E+03</pdfrwt>
<pdfrwt beam="1">  1       -2 0.49211905E-02 0.13357890E+03</pdfrwt>
<totfact> 0.12280334E+04</totfact>
</mgrwt>
</event>
<event>
 6    1  0.5928109E-006  0.1916261E+03  0.7546771E-02  0.1171717E+00
         -2   -1    0    0    0  501 -0.00000000000E+00  0.00000000000E+00  0.26677528904E+03  0.26677528904E+03  0.00000000000E+00 0.  1.
          2   -1    0    0  501    0  0.00000000000E+00 -0.00000000000E+00 -0.27832753020E+03  0.27832753020E+03  0.00000000000E+00 0. -1.
          5    1    1    2  502    0  0.39047949133E+01  0.65837891866E+02 -0.19572352058E+03  0.20659056594E+03  0.47000000000E+01 0. -1.
         -5    1    1    2    0  502  0.82036553304E+02 -0.11023736382E+02 -0.26933302314E+02  0.87172309912E+02  0.47000000000E+01 0.  1.
        -11    1    1    2    0    0 -0.51739588347E+02  0.11608652829E+02  0.13336419432E+03  0.14351917694E+03  0.00000000000E+00 0.  1.
         11    1    1    2    0    0 -0.34201759871E+02 -0.66422808312E+02  0.77740387415E+02  0.10782076645E+03  0.00000000000E+00 0. -1.
<mgrwt>
<rscale>  0 0.17601491E+03</rscale>
<asrwt>0</asrwt>
<pdfrwt beam="2">  1        2 0.42819620E-01 0.19162611E+03</pdfrwt>
<pdfrwt beam="1">  1       -2 0.41042352E-01 0.19162611E+03</pdfrwt>
<totfact> 0.67296616E+02</totfact>
</mgrwt>
</event>
<event>
 7    1  0.5928109E-006  0.1251152E+03  0.7546771E-02  0.1250232E+00
         -3   -1    0    0    0  501 -0.00000000000E+00  0.00000000000E+00  0.23515833290E+03  0.23515833290E+03  0.00000000000E+00 0.  1.
          3   -1    0    0  501    0  0.00000000000E+00 -0.00000000000E+00 -0.68581383393E+02  0.68581383393E+02  0.00000000000E+00 0. -1.
         23    2    1    2    0    0  0.33954733678E+01  0.39376097905E+01  0.14253747628E+02  0.12592448247E+03  0.12500708762E+03 0.  0.
          5    1    3    3  502    0  0.43859933743E+02 -0.16775562504E+02  0.49364635039E+02  0.68294000306E+02  0.47000000000E+01 0. -1.
         -5    1    3    3    0  502 -0.40464460375E+02  0.20713172295E+02 -0.35110887411E+02  0.57630482167E+02  0.47000000000E+01 0. -1.
        -11    1    1    2    0    0 -0.19922403945E+02 -0.24078432763E+02  0.95413774921E+01  0.32675847162E+02  0.00000000000E+00 0. -1.
         11    1    1    2    0    0  0.16526930577E+02  0.20140822973E+02  0.14278182439E+03  0.14513938666E+03  0.00000000000E+00 0.  1.
<mgrwt>
<rscale>  0 0.11577640E+03</rscale>
<asrwt>0</asrwt>
<pdfrwt beam="2">  1        3 0.10550982E-01 0.12511517E+03</pdfrwt>
<pdfrwt beam="1">  1       -3 0.36178205E-01 0.12511517E+03</pdfrwt>
<totfact> 0.11553298E+03</totfact>
</mgrwt>
</event>
<event>
 7    1  0.5928109E-006  0.2169103E+03  0.7546771E-02  0.1140038E+00
         -1   -1    0    0    0  501 -0.00000000000E+00  0.00000000000E+00  0.21947421715E+02  0.21947421715E+02  0.00000000000E+00 0.  1.
          1   -1    0    0  501    0  0.00000000000E+00 -0.00000000000E+00 -0.19622527238E+04  0.19622527238E+04  0.00000000000E+00 0. -1.
         23    2    1    2    0    0  0.15405675168E+03 -0.87709099578E+02 -0.10603045570E+04  0.10822642198E+04  0.12499487633E+03 0.  0.
          5    1    3    3  502    0  0.32259129889E+02 -0.87812641951E+02 -0.40176779835E+03  0.41254231945E+03  0.47000000000E+01 0.  1.
         -5    1    3    3    0  502  0.12179762179E+03  0.10354237285E+00 -0.65853675860E+03  0.66972190036E+03  0.47000000000E+01 0.  1.
        -11    1    1    2    0    0 -0.12696268147E+03  0.39018747959E+02 -0.72858171436E+03  0.74058983228E+03  0.00000000000E+00 0. -1.
         11    1    1    2    0    0 -0.27094070207E+02  0.48690351618E+02 -0.15141903073E+03  0.16134609338E+03  0.00000000000E+00 0.  1.
<mgrwt>
<rscale>  0 0.21194069E+03</rscale>
<asrwt>0</asrwt>
<pdfrwt beam="2">  1        1 0.30188506E+00 0.21691032E+03</pdfrwt>
<pdfrwt beam="1">  1       -1 0.33765261E-02 0.21691032E+03</pdfrwt>
<totfact> 0.11346256E+03</totfact>
</mgrwt>
</event>
<event>
 7    1  0.5928109E-006  0.1591393E+03  0.7546771E-02  0.1196673E+00
          1   -1    0    0  501    0  0.00000000000E+00  0.00000000000E+00  0.29038267427E+03  0.29038267427E+03  0.00000000000E+00 0. -1.
         -1   -1    0    0    0  501 -0.00000000000E+00 -0.00000000000E+00 -0.80673720478E+02  0.80673720478E+02  0.00000000000E+00 0.  1.
         23    2    1    2    0    0 -0.57569853049E+02 -0.79912397396E+02  0.16046516951E+03  0.22599643791E+03  0.12500016033E+03 0.  0.
          5    1    3    3  502    0 -0.46977367732E+02  0.25113639047E+02  0.53793237311E+02  0.75850974454E+02  0.47000000000E+01 0. -1.
         -5    1    3    3    0  502 -0.10592485317E+02 -0.10502603644E+03  0.10667193220E+03  0.15014546346E+03  0.47000000000E+01 0. -1.
        -11    1    1    2    0    0  0.37664428686E+01 -0.18272073799E+02  0.23808454270E+02  0.30247268761E+02  0.00000000000E+00 0. -1.
         11    1    1    2    0    0  0.53803410180E+02  0.98184471195E+02  0.25435330006E+02  0.11481268808E+03  0.00000000000E+00 0.  1.
<mgrwt>
<rscale>  0 0.15313452E+03</rscale>
<asrwt>0</asrwt>
<pdfrwt beam="1">  1        1 0.44674257E-01 0.15913931E+03</pdfrwt>
<pdfrwt beam="2">  1       -1 0.12411342E-01 0.15913931E+03</pdfrwt>
<totfact> 0.38548090E+03</totfact>
</mgrwt>
</event>
<event>
 7    1  0.5928109E-006  0.1786556E+03  0.7546771E-02  0.1174339E+00
         -2   -1    0    0    0  501 -0.00000000000E+00  0.00000000000E+00  0.15603718645E+02  0.15603718645E+02  0.00000000000E+00 0.  1.
          2   -1    0    0  501    0  0.00000000000E+00 -0.00000000000E+00 -0.20441980178E+04  0.20441980178E+04  0.00000000000E+00 0. -1.
         23    2    1    2    0    0 -0.10030967724E+03  0.78939695405E+02 -0.14070865201E+04  0.14183829841E+04  0.12499723054E+03 0.  0.
          5    1    3    3  502    0 -0.59879583990E+02 -0.22780128009E+02 -0.37106186000E+03  0.37658132290E+03  0.47000000000E+01 0. -1.
         -5    1    3    3    0  502 -0.40430093247E+02  0.10171982341E+03 -0.10360246601E+04  0.10418016612E+04  0.47000000000E+01 0. -1.
        -11    1    1    2    0    0 -0.18418115416E+02 -0.67445320376E+01 -0.75019481518E+02  0.77541203854E+02  0.00000000000E+00 0.  1.
         11    1    1    2    0    0  0.11872779265E+03 -0.72195163367E+02 -0.54648829755E+03  0.56387754851E+03  0.00000000000E+00 0. -1.
<mgrwt>
<rscale>  0 0.17340885E+03</rscale>
<asrwt>0</asrwt>
<pdfrwt beam="2">  1        2 0.31449208E+00 0.17865558E+03</pdfrwt>
<pdfrwt beam="1">  1       -2 0.24005715E-02 0.17865558E+03</pdfrwt>
<totfact> 0.41511199E+03</totfact>
</mgrwt>
</event>
<event>
 7    1  0.5928109E-006  0.1553296E+03  0.7546771E-02  0.1202435E+00
         -2   -1    0    0    0  501 -0.00000000000E+00  0.00000000000E+00  0.67858162043E+02  0.67858162043E+02  0.00000000000E+00 0.  1.
          2   -1    0    0  501    0  0.00000000000E+00 -0.00000000000E+00 -0.31391272024E+03  0.31391272024E+03  0.00000000000E+00 0. -1.
         23    2    1    2    0    0 -0.76730652730E+02  0.51133714023E+02 -0.17537197139E+03  0.23427036749E+03  0.12500010784E+03 0.  0.
          5    1    3    3  502    0 -0.68283220741E+02  0.78497188956E+02 -0.71267340963E+02  0.12619639772E+03  0.47000000000E+01 0. -1.
         -5    1    3    3    0  502 -0.84474319892E+01 -0.27363474932E+02 -0.10410463043E+03  0.10807396978E+03  0.47000000000E+01 0. -1.
        -11    1    1    2    0    0  0.83994882053E+02 -0.67947284158E+02 -0.70827901791E+02  0.12918423010E+03  0.00000000000E+00 0. -1.
         11    1    1    2    0    0 -0.72642293232E+01  0.16813570135E+02  0.14531497785E+00  0.18316284688E+02  0.00000000000E+00 0.  1.
<mgrwt>
<rscale>  0 0.14841441E+03</rscale>
<asrwt>0</asrwt>
<pdfrwt beam="2">  1        2 0.48294264E-01 0.15532957E+03</pdfrwt>
<pdfrwt beam="1">  1       -2 0.10439717E-01 0.15532957E+03</pdfrwt>
<totfact> 0.62080244E+03</totfact>
</mgrwt>
</event>
<event>
 7    1  0.5928109E-006  0.1482190E+03  0.7546771E-02  0.1215505E+00
         -2   -1    0    0    0  501 -0.00000000000E+00  0.00000000000E+00  0.28083417797E+02  0.28083417797E+02  0.00000000000E+00 0.  1.
          2   -1    0    0  501    0  0.00000000000E+00 -0.00000000000E+00 -0.61278511074E+03  0.61278511074E+03  0.00000000000E+00 0. -1.
         23    2    1    2    0    0  0.33043312802E+02 -0.72582909327E+02 -0.36551252344E+03  0.39442144999E+03  0.12493492775E+03 0.  0.
          5    1    3    3  502    0  0.59930729067E+02 -0.22137431160E+02 -0.30252072877E+03  0.30922910516E+03  0.47000000000E+01 0.  1.
         -5    1    3    3    0  502 -0.26887416264E+02 -0.50445478166E+02 -0.62991794673E+02  0.85192344826E+02  0.47000000000E+01 0.  1.
        -11    1    1    2    0    0  0.12510649744E+02  0.42527717658E+02 -0.42086074947E+02  0.61125778774E+02  0.00000000000E+00 0.  1.
         11    1    1    2    0    0 -0.45553962547E+02  0.30055191668E+02 -0.17710309455E+03  0.18532129978E+03  0.00000000000E+00 0. -1.
<mgrwt>
<rscale>  0 0.13839498E+03</rscale>
<asrwt>0</asrwt>
<pdfrwt beam="2">  1        2 0.94274627E-01 0.14821901E+03</pdfrwt>
<pdfrwt beam="1">  1       -2 0.43205260E-02 0.14821901E+03</pdfrwt>
<totfact> 0.11541291E+04</totfact>
</mgrwt>
</event>
<event>
 7    1  0.5928109E-006  0.1898919E+03  0.7546771E-02  0.1163369E+00
         -2   -1    0    0    0  501 -0.00000000000E+00  0.00000000000E+00  0.43349414175E+02  0.43349414175E+02  0.00000000000E+00 0.  1.
          2   -1    0    0  501    0  0.00000000000E+00 -0.00000000000E+00 -0.79826931737E+03  0.79826931737E+03  0.00000000000E+00 0. -1.
         23    2    1    2    0    0  0.31116259089E+02 -0.13952502762E+03 -0.50450679112E+03  0.53906031641E+03  0.12499386999E+03 0.  0.
          5    1    3    3  502    0 -0.46725302311E+02 -0.32308435938E+02 -0.16620961092E+03  0.17571230370E+03  0.47000000000E+01 0. -1.
         -5    1    3    3    0  502  0.77841561400E+02 -0.10721659168E+03 -0.33829718020E+03  0.36334801271E+03  0.47000000000E+01 0. -1.
        -11    1    1    2    0    0  0.12997237046E+02  0.91152726542E+02 -0.87651721228E+02  0.12712423829E+03  0.00000000000E+00 0.  1.
         11    1    1    2    0    0 -0.44113496135E+02  0.48372301080E+02 -0.16276139085E+03  0.17543417684E+03  0.00000000000E+00 0. -1.
<mgrwt>
<rscale>  0 0.18465859E+03</rscale>
<asrwt>0</asrwt>
<pdfrwt beam="2">  1        2 0.12281066E+00 0.18989187E+03</pdfrwt>
<pdfrwt beam="1">  1       -2 0.66691407E-02 0.18989187E+03</pdfrwt>
<totfact> 0.44078887E+03</totfact>
</mgrwt>
</event>
<event>
 7    1  0.5928109E-006  0.1519581E+03  0.7546771E-02  0.1206527E+00
         -1   -1    0    0    0  501 -0.00000000000E+00  0.00000000000E+00  0.10209225820E+03  0.10209225820E+03  0.00000000000E+00 0.  1.
          1   -1    0    0  501    0  0.00000000000E+00 -0.00000000000E+00 -0.20747055617E+03  0.20747055617E+03  0.00000000000E+00 0. -1.
         23    2    1    2    0    0  0.47702598342E+02  0.72034819394E+02 -0.10181512666E+03  0.18291417106E+03  0.12500688326E+03 0.  0.
          5    1    3    3  502    0  0.37982803418E+02  0.40457143313E+02  0.18007788025E+02  0.58530711853E+02  0.47000000000E+01 0. -1.
         -5    1    3    3    0  502  0.97197949245E+01  0.31577676081E+02 -0.11982291469E+03  0.12438345920E+03  0.47000000000E+01 0. -1.
        -11    1    1    2    0    0 -0.33972543380E+02 -0.87272887460E+02  0.19629640807E+02  0.95687059666E+02  0.00000000000E+00 0.  1.
         11    1    1    2    0    0 -0.13730054963E+02  0.15238068066E+02 -0.23192812115E+02  0.30961583639E+02  0.00000000000E+00 0. -1.
<mgrwt>
<rscale>  0 0.14517777E+03</rscale>
<asrwt>0</asrwt>
<pdfrwt beam="2">  1        1 0.31918547E-01 0.15195813E+03</pdfrwt>
<pdfrwt beam="1">  1       -1 0.15706501E-01 0.15195813E+03</pdfrwt>
<totfact> 0.40404576E+03</totfact>
</mgrwt>
</event>
<event>
 7    1  0.5928109E-006  0.1777706E+03  0.7546771E-02  0.1172595E+00
         -1   -1    0    0    0  501 -0.00000000000E+00  0.00000000000E+00  0.30263453087E+03  0.30263453087E+03  0.00000000000E+00 0.  1.
          1   -1    0    0  501    0  0.00000000000E+00 -0.00000000000E+00 -0.16733261577E+03  0.16733261577E+03  0.00000000000E+00 0. -1.
         23    2    1    2    0    0  0.18453130581E+02  0.13356283709E+03 -0.81877872753E+02  0.19572010661E+03  0.11585691437E+03 0.  0.
          5    1    3    3  502    0 -0.30753995843E+02  0.70570803430E+02 -0.86032478010E+02  0.11554100497E+03  0.47000000000E+01 0. -1.
         -5    1    3    3    0  502  0.49207126424E+02  0.62992033661E+02  0.41546052574E+01  0.80179101644E+02  0.47000000000E+01 0.  1.
        -11    1    1    2    0    0  0.67589366998E+01 -0.14071044381E+03  0.18955583609E+03  0.23617054689E+03  0.00000000000E+00 0.  1.
         11    1    1    2    0    0 -0.25212067281E+02  0.71476067210E+01  0.27623951773E+02  0.38076493141E+02  0.00000000000E+00 0. -1.
<mgrwt>
<rscale>  0 0.17513608E+03</rscale>
<asrwt>0</asrwt>
<pdfrwt beam="2">  1        1 0.25743479E-01 0.17777057E+03</pdfrwt>
<pdfrwt beam="1">  1       -1 0.46559158E-01 0.17777057E+03</pdfrwt>
<totfact> 0.86110486E+02</totfact>
</mgrwt>
</event>
<event>
 7    1  0.5928109E-006  0.1270170E+03  0.7546771E-02  0.1244683E+00
          2   -1    0    0  501    0  0.00000000000E+00  0.00000000000E+00  0.49323067113E+03  0.49323067113E+03  0.00000000000E+00 0. -1.
         -2   -1    0    0    0  501 -0.00000000000E+00 -0.00000000000E+00 -0.30597210611E+02  0.30597210611E+02  0.00000000000E+00 0.  1.
         23    2    1    2    0    0 -0.28156684183E+02  0.33965027664E+02  0.36075805069E+03  0.38246527973E+03  0.11910876162E+03 0.  0.
          5    1    3    3  502    0  0.50162436268E+01  0.55132755929E+02  0.32294387852E+03  0.32768830029E+03  0.47000000000E+01 0. -1.
         -5    1    3    3    0  502 -0.33172927810E+02 -0.21167728265E+02  0.37814172174E+02  0.54776979440E+02  0.47000000000E+01 0.  1.
        -11    1    1    2    0    0  0.51427852815E+02 -0.38112996062E+02  0.40890736638E+02  0.75957072461E+02  0.00000000000E+00 0.  1.
         11    1    1    2    0    0 -0.23271168632E+02  0.41479683984E+01  0.60984673195E+02  0.65405529552E+02  0.00000000000E+00 0. -1.
<mgrwt>
<rscale>  0 0.11904396E+03</rscale>
<asrwt>0</asrwt>
<pdfrwt beam="1">  1        2 0.75881636E-01 0.12701700E+03</pdfrwt>
<pdfrwt beam="2">  1       -2 0.47072635E-02 0.12701700E+03</pdfrwt>
<totfact> 0.12798865E+04</totfact>
</mgrwt>
</event>
<event>
 7    1  0.5928109E-006  0.1250587E+03  0.7546771E-02  0.1250917E+00
          1   -1    0    0  501    0  0.00000000000E+00  0.00000000000E+00  0.56100288571E+03  0.56100288571E+03  0.00000000000E+00 0. -1.
         -1   -1    0    0    0  501 -0.00000000000E+00 -0.00000000000E+00 -0.23138287456E+02  0.23138287456E+02  0.00000000000E+00 0.  1.
         23    2    1    2    0    0  0.12583721227E+01 -0.36984750675E+01  0.40058045528E+03  0.41964793163E+03  0.12499769258E+03 0.  0.
          5    1    3    3  502    0  0.16862610295E+02 -0.60511598000E+02  0.25174226938E+03  0.25950387533E+03  0.47000000000E+01 0. -1.
         -5    1    3    3    0  502 -0.15604238172E+02  0.56813122933E+02  0.14883818590E+03  0.16014405630E+03  0.47000000000E+01 0. -1.
        -11    1    1    2    0    0  0.31176380540E+02 -0.15709360231E+01  0.96151269380E+01  0.32663208808E+02  0.00000000000E+00 0.  1.
         11    1    1    2    0    0 -0.32434752663E+02  0.52694110906E+01  0.12766901603E+03  0.13183003272E+03  0.00000000000E+00 0. -1.
<mgrwt>
<rscale>  0 0.11538135E+03</rscale>
<asrwt>0</asrwt>
<pdfrwt beam="1">  1        1 0.86308126E-01 0.12505873E+03</pdfrwt>
<pdfrwt beam="2">  1       -1 0.35597370E-02 0.12505873E+03</pdfrwt>
<totfact> 0.10704615E+04</totfact>
</mgrwt>
</event>
<event>
 7    1  0.5928109E-006  0.1340932E+03  0.7546771E-02  0.1234132E+00
         -2   -1    0    0    0  501 -0.00000000000E+00  0.00000000000E+00  0.87199798212E+02  0.87199798212E+02  0.00000000000E+00 0.  1.
          2   -1    0    0  501    0  0.00000000000E+00 -0.00000000000E+00 -0.16302440129E+03  0.16302440129E+03  0.00000000000E+00 0. -1.
         23    2    1    2    0    0  0.30387360347E+02 -0.37861453012E+02 -0.54943251050E+02  0.14491287935E+03  0.12499640184E+03 0.  0.
          5    1    3    3  502    0 -0.25098870544E+02 -0.66284060672E+02 -0.22717351932E+02  0.74576793178E+02  0.47000000000E+01 0.  1.
         -5    1    3    3    0  502  0.55486230891E+02  0.28422607661E+02 -0.32225899118E+02  0.70336086177E+02  0.47000000000E+01 0.  1.
        -11    1    1    2    0    0 -0.48007826006E+02  0.40026812136E+02  0.15877256027E+02  0.64490187676E+02  0.00000000000E+00 0.  1.
         11    1    1    2    0    0  0.17620465659E+02 -0.21653591246E+01 -0.36758608054E+02  0.40821132471E+02  0.00000000000E+00 0. -1.
<mgrwt>
<rscale>  0 0.12560195E+03</rscale>
<asrwt>0</asrwt>
<pdfrwt beam="2">  1        2 0.25080677E-01 0.13409318E+03</pdfrwt>
<pdfrwt beam="1">  1       -2 0.13415354E-01 0.13409318E+03</pdfrwt>
<totfact> 0.83369223E+03</totfact>
</mgrwt>
</event>
<event>
 7    1  0.5928109E-006  0.1260258E+03  0.7546771E-02  0.1250624E+00
         -3   -1    0    0    0  501 -0.00000000000E+00  0.00000000000E+00  0.13384443454E+03  0.13384443454E+03  0.00000000000E+00 0.  1.
          3   -1    0    0  501    0  0.00000000000E+00 -0.00000000000E+00 -0.86465659166E+02  0.86465659166E+02  0.00000000000E+00 0. -1.
         23    2    1    2    0    0 -0.15640856080E+02  0.36835819717E+01  0.30451673101E+02  0.12965261716E+03  0.12499716632E+03 0.  0.
          5    1    3    3  502    0  0.48926321586E+01 -0.27091043608E+02 -0.40676332002E+02  0.49340819595E+02  0.47000000000E+01 0.  1.
         -5    1    3    3    0  502 -0.20533488238E+02  0.30774625580E+02  0.71128005103E+02  0.80311797569E+02  0.47000000000E+01 0.  1.
        -11    1    1    2    0    0 -0.31674120158E+02  0.17837005031E+02  0.12780903075E+01  0.36373646382E+02  0.00000000000E+00 0. -1.
         11    1    1    2    0    0  0.47314976238E+02 -0.21520587003E+02  0.15649011964E+02  0.54283830159E+02  0.00000000000E+00 0.  1.
<mgrwt>
<rscale>  0 0.11554977E+03</rscale>
<asrwt>0</asrwt>
<pdfrwt beam="2">  1        3 0.13302409E-01 0.12602578E+03</pdfrwt>
<pdfrwt beam="1">  1       -3 0.20591452E-01 0.12602578E+03</pdfrwt>
<totfact> 0.21965539E+03</totfact>
</mgrwt>
</event>
<event>
 7    1  0.5928109E-006  0.2087190E+03  0.7546771E-02  0.1146538E+00
         -2   -1    0    0    0  501 -0.00000000000E+00  0.00000000000E+00  0.16363351869E+03  0.16363351869E+03  0.00000000000E+00 0.  1.
          2   -1    0    0  501    0  0.00000000000E+00 -0.00000000000E+00 -0.32742194470E+03  0.32742194470E+03  0.00000000000E+00 0. -1.
         23    2    1    2    0    0 -0.16407087245E+03  0.32019677102E+02 -0.20952399053E+03  0.29574296991E+03  0.12497636070E+03 0.  0.
          5    1    3    3  502    0 -0.74421130698E+02 -0.13273055097E+02 -0.17284267150E+03  0.18870971829E+03  0.47000000000E+01 0. -1.
         -5    1    3    3    0  502 -0.89649741756E+02  0.45292732199E+02 -0.36681319033E+02  0.10703325162E+03  0.47000000000E+01 0. -1.
        -11    1    1    2    0    0  0.10913573967E+03 -0.59989573949E+02  0.12192846300E+02  0.12513202690E+03  0.00000000000E+00 0.  1.
         11    1    1    2    0    0  0.54935132788E+02  0.27969896847E+02  0.33542718218E+02  0.70180466580E+02  0.00000000000E+00 0. -1.
<mgrwt>
<rscale>  0 0.20384143E+03</rscale>
<asrwt>0</asrwt>
<pdfrwt beam="2">  1        2 0.50372606E-01 0.20871895E+03</pdfrwt>
<pdfrwt beam="1">  1       -2 0.25174388E-01 0.20871895E+03</pdfrwt>
<totfact> 0.13881851E+03</totfact>
</mgrwt>
</event>
<event>
 7    1  0.5928109E-006  0.1410528E+03  0.7546771E-02  0.1222871E+00
         -2   -1    0    0    0  501 -0.00000000000E+00  0.00000000000E+00  0.17238236473E+02  0.17238236473E+02  0.00000000000E+00 0.  1.
          2   -1    0    0  501    0  0.00000000000E+00 -0.00000000000E+00 -0.98909858689E+03  0.98909858689E+03  0.00000000000E+00 0. -1.
         23    2    1    2    0    0  0.80523659185E+01  0.64852453635E+02 -0.66222597636E+03  0.67708133445E+03  0.12500083342E+03 0.  0.
          5    1    3    3  502    0 -0.36783896440E+02  0.72211741504E+02 -0.26279818473E+03  0.27505011642E+03  0.47000000000E+01 0.  1.
         -5    1    3    3    0  502  0.44836262359E+02 -0.73592878688E+01 -0.39942779163E+03  0.40203121803E+03  0.47000000000E+01 0.  1.
        -11    1    1    2    0    0 -0.28839387671E+02  0.24274053377E+01 -0.33436203226E+02  0.44221965855E+02  0.00000000000E+00 0.  1.
         11    1    1    2    0    0  0.20787021752E+02 -0.67279858973E+02 -0.27619817083E+03  0.28503352306E+03  0.00000000000E+00 0. -1.
<mgrwt>
<rscale>  0 0.13313890E+03</rscale>
<asrwt>0</asrwt>
<pdfrwt beam="2">  1        2 0.15216898E+00 0.14105279E+03</pdfrwt>
<pdfrwt beam="1">  1       -2 0.26520369E-02 0.14105279E+03</pdfrwt>
<totfact> 0.13061220E+04</totfact>
</mgrwt>
</event>
<event>
 7    1  0.5928109E-006  0.1275306E+03  0.7546771E-02  0.1246226E+00
          2   -1    0    0  501    0  0.00000000000E+00  0.00000000000E+00  0.33126967376E+03  0.33126967376E+03  0.00000000000E+00 0. -1.
         -2   -1    0    0    0  501 -0.00000000000E+00 -0.00000000000E+00 -0.53060566188E+02  0.53060566188E+02  0.00000000000E+00 0.  1.
         23    2    1    2    0    0  0.22718813197E+02  0.11099720008E+02  0.25874953662E+03  0.28847073724E+03  0.12499878114E+03 0.  0.
          5    1    3    3  502    0  0.58527309281E+02  0.48020900112E+02  0.15082677614E+03  0.16882612114E+03  0.47000000000E+01 0. -1.
         -5    1    3    3    0  502 -0.35808496084E+02 -0.36921180103E+02  0.10792276048E+03  0.11964461610E+03  0.47000000000E+01 0. -1.
        -11    1    1    2    0    0 -0.16573121681E+02  0.22897623429E+02  0.44829458922E+02  0.52996697144E+02  0.00000000000E+00 0. -1.
         11    1    1    2    0    0 -0.61456915160E+01 -0.33997343437E+02 -0.25369887971E+02  0.42862805562E+02  0.00000000000E+00 0.  1.
<mgrwt>
<rscale>  0 0.11812313E+03</rscale>
<asrwt>0</asrwt>
<pdfrwt beam="1">  1        2 0.50964564E-01 0.12753056E+03</pdfrwt>
<pdfrwt beam="2">  1       -2 0.81631643E-02 0.12753056E+03</pdfrwt>
<totfact> 0.85016494E+03</totfact>
</mgrwt>
</event>
<event>
 7    1  0.5928109E-006  0.1636457E+03  0.7546771E-02  0.1185637E+00
         -1   -1    0    0    0  501 -0.00000000000E+00  0.00000000000E+00  0.27438430873E+02  0.27438430873E+02  0.00000000000E+00 0.  1.
          1   -1    0    0  501    0  0.00000000000E+00 -0.00000000000E+00 -0.98980583453E+03  0.98980583453E+03  0.00000000000E+00 0. -1.
         23    2    1    2    0    0 -0.99384748350E+02 -0.10694948260E+02 -0.57181914670E+03  0.59379667058E+03  0.12500255733E+03 0.  0.
          5    1    3    3  502    0  0.14568432770E+02  0.82199018955E+01 -0.27055255091E+03  0.27110990174E+03  0.47000000000E+01 0.  1.
         -5    1    3    3    0  502 -0.11395318112E+03 -0.18914850155E+02 -0.30126659579E+03  0.32268676884E+03  0.47000000000E+01 0.  1.
        -11    1    1    2    0    0  0.90354171394E+00 -0.48609565775E+02 -0.11053435705E+03  0.12075409045E+03  0.00000000000E+00 0. -1.
         11    1    1    2    0    0  0.98481206637E+02  0.59304514034E+02 -0.28001389992E+03  0.30269350438E+03  0.00000000000E+00 0.  1.
<mgrwt>
<rscale>  0 0.16274036E+03</rscale>
<asrwt>0</asrwt>
<pdfrwt beam="2">  1        1 0.15227785E+00 0.16364573E+03</pdfrwt>
<pdfrwt beam="1">  1       -1 0.42212963E-02 0.16364573E+03</pdfrwt>
<totfact> 0.36444617E+03</totfact>
</mgrwt>
</event>
<event>
 7    1  0.5928109E-006  0.1543750E+03  0.7546771E-02  0.1204204E+00
          1   -1    0    0  501    0  0.00000000000E+00  0.00000000000E+00  0.15869500940E+03  0.15869500940E+03  0.00000000000E+00 0. -1.
         -1   -1    0    0    0  501 -0.00000000000E+00 -0.00000000000E+00 -0.12662352736E+03  0.12662352736E+03  0.00000000000E+00 0.  1.
         23    2    1    2    0    0  0.22410801722E+02  0.87780058969E+02  0.35234518771E+02  0.15834489111E+03  0.12499620171E+03 0.  0.
          5    1    3    3  502    0  0.25871642848E+02  0.83420176351E+02  0.76646343377E+02  0.11629711810E+03  0.47000000000E+01 0.  1.
         -5    1    3    3    0  502 -0.34608411257E+01  0.43598826181E+01 -0.41411824605E+02  0.42047773008E+02  0.47000000000E+01 0.  1.
        -11    1    1    2    0    0 -0.42895980377E+02 -0.70679340149E+01 -0.43723209025E+01  0.43693683912E+02  0.00000000000E+00 0. -1.
         11    1    1    2    0    0  0.20485178655E+02 -0.80712124954E+02  0.12092841664E+01  0.83279961739E+02  0.00000000000E+00 0.  1.
<mgrwt>
<rscale>  0 0.14700340E+03</rscale>
<asrwt>0</asrwt>
<pdfrwt beam="1">  1        1 0.24414617E-01 0.15437498E+03</pdfrwt>
<pdfrwt beam="2">  1       -1 0.19480543E-01 0.15437498E+03</pdfrwt>
<totfact> 0.40157974E+03</totfact>
</mgrwt>
</event>
<event>
 7    1  0.5928109E-006  0.1688518E+03  0.7546771E-02  0.1185532E+00
          2   -1    0    0  501    0  0.00000000000E+00  0.00000000000E+00  0.86878979881E+03  0.86878979881E+03  0.00000000000E+00 0.  1.
         -2   -1    0    0    0  501 -0.00000000000E+00 -0.00000000000E+00 -0.28614322263E+02  0.28614322263E+02  0.00000000000E+00 0. -1.
         23    2    1    2    0    0 -0.84033987008E+02  0.76317747675E+02  0.42667949094E+03  0.45887506119E+03  0.12499929684E+03 0.  0.
          5    1    3    3  502    0 -0.48037546646E+02  0.45516935522E+02  0.61048653600E+02  0.90157780660E+02  0.47000000000E+01 0.  1.
         -5    1    3    3    0  502 -0.35996440362E+02  0.30800812153E+02  0.36563083734E+03  0.36871728053E+03  0.47000000000E+01 0.  1.
        -11    1    1    2    0    0 -0.17522543301E+02 -0.11923774327E+02  0.30822118901E+02  0.37406134944E+02  0.00000000000E+00 0. -1.
         11    1    1    2    0    0  0.10155653031E+03 -0.64393973348E+02  0.38267386671E+03  0.40112292494E+03  0.00000000000E+00 0.  1.
<mgrwt>
<rscale>  0 0.16283588E+03</rscale>
<asrwt>0</asrwt>
<pdfrwt beam="1">  1        2 0.13365995E+00 0.16885181E+03</pdfrwt>
<pdfrwt beam="2">  1       -2 0.44022041E-02 0.16885181E+03</pdfrwt>
<totfact> 0.73978296E+03</totfact>
</mgrwt>
</event>
<event>
 7    1  0.5928109E-006  0.1318399E+03  0.7546771E-02  0.1238533E+00
         -2   -1    0    0    0  501 -0.00000000000E+00  0.00000000000E+00  0.94034497707E+02  0.94034497707E+02  0.00000000000E+00 0.  1.
          2   -1    0    0  501    0  0.00000000000E+00 -0.00000000000E+00 -0.14524839936E+03  0.14524839936E+03  0.00000000000E+00 0. -1.
         23    2    1    2    0    0  0.41039963346E+02 -0.85037557875E+01 -0.46873596562E+02  0.13992455366E+03  0.12500061684E+03 0.  0.
          5    1    3    3  502    0  0.55865667584E+01  0.54683138871E+02 -0.33437414437E+01  0.55269575824E+02  0.47000000000E+01 0. -1.
         -5    1    3    3    0  502  0.35453396588E+02 -0.63186894659E+02 -0.43529855118E+02  0.84654977839E+02  0.47000000000E+01 0. -1.
        -11    1    1    2    0    0 -0.20685767186E+02  0.43665172335E+02  0.19668256306E+02  0.52166929613E+02  0.00000000000E+00 0.  1.
         11    1    1    2    0    0 -0.20354196160E+02 -0.35161416548E+02 -0.24008561393E+02  0.47191413786E+02  0.00000000000E+00 0. -1.
<mgrwt>
<rscale>  0 0.12280963E+03</rscale>
<asrwt>0</asrwt>
<pdfrwt beam="2">  1        2 0.22345907E-01 0.13183985E+03</pdfrwt>
<pdfrwt beam="1">  1       -2 0.14466846E-01 0.13183985E+03</pdfrwt>
<totfact> 0.83743595E+03</totfact>
</mgrwt>
</event>
<event>
 7    1  0.5928109E-006  0.1424591E+03  0.7546771E-02  0.1221096E+00
         -1   -1    0    0    0  501 -0.00000000000E+00  0.00000000000E+00  0.40215370620E+02  0.40215370620E+02  0.00000000000E+00 0.  1.
          1   -1    0    0  501    0  0.00000000000E+00 -0.00000000000E+00 -0.45199417964E+03  0.45199417964E+03  0.00000000000E+00 0. -1.
         23    2    1    2    0    0  0.60929599404E+02 -0.30948612802E+02 -0.30618148320E+03  0.33770058295E+03  0.12499740140E+03 0.  0.
          5    1    3    3  502    0  0.76552864365E+02 -0.39709915634E+01 -0.29405984635E+03  0.30392333417E+03  0.47000000000E+01 0.  1.
         -5    1    3    3    0  502 -0.15623264961E+02 -0.26977621239E+02 -0.12121636845E+02  0.33777248786E+02  0.47000000000E+01 0.  1.
        -11    1    1    2    0    0 -0.41338619293E+02 -0.28472618823E+02 -0.45236847817E+02  0.67571768277E+02  0.00000000000E+00 0.  1.
         11    1    1    2    0    0 -0.19590980111E+02  0.59421231625E+02 -0.60360478004E+02  0.86937199026E+02  0.00000000000E+00 0. -1.
<mgrwt>
<rscale>  0 0.13438102E+03</rscale>
<asrwt>0</asrwt>
<pdfrwt beam="2">  1        1 0.69537566E-01 0.14245906E+03</pdfrwt>
<pdfrwt beam="1">  1       -1 0.61869801E-02 0.14245906E+03</pdfrwt>
<totfact> 0.63322764E+03</totfact>
</mgrwt>
</event>
<event>
 7    1  0.5928109E-006  0.2375926E+03  0.7546771E-02  0.1124229E+00
         -2   -1    0    0    0  501 -0.00000000000E+00  0.00000000000E+00  0.61410717828E+02  0.61410717828E+02  0.00000000000E+00 0.  1.
          2   -1    0    0  501    0  0.00000000000E+00 -0.00000000000E+00 -0.96521965994E+03  0.96521965994E+03  0.00000000000E+00 0. -1.
         23    2    1    2    0    0  0.19607059443E+03  0.48806191653E+02 -0.63703370462E+03  0.67989865992E+03  0.12499809835E+03 0.  0.
          5    1    3    3  502    0  0.15148419920E+03 -0.14869746130E+02 -0.33503261088E+03  0.36801835865E+03  0.47000000000E+01 0. -1.
         -5    1    3    3    0  502  0.44586395233E+02  0.63675937783E+02 -0.30200109374E+03  0.31188030126E+03  0.47000000000E+01 0. -1.
        -11    1    1    2    0    0 -0.54578285903E+02 -0.57965779442E+02 -0.10031219005E+03  0.12806778030E+03  0.00000000000E+00 0.  1.
         11    1    1    2    0    0 -0.14149230853E+03  0.91595877890E+01 -0.16646304744E+03  0.21866393755E+03  0.00000000000E+00 0. -1.
<mgrwt>
<rscale>  0 0.23345804E+03</rscale>
<asrwt>0</asrwt>
<pdfrwt beam="2">  1        2 0.14849532E+00 0.23759261E+03</pdfrwt>
<pdfrwt beam="1">  1       -2 0.94478033E-02 0.23759261E+03</pdfrwt>
<totfact> 0.20019828E+03</totfact>
</mgrwt>
</event>
<event>
 7    1  0.5928109E-006  0.1982739E+03  0.7546771E-02  0.1155648E+00
          1   -1    0    0  501    0  0.00000000000E+00  0.00000000000E+00  0.18507380818E+03  0.18507380818E+03  0.00000000000E+00 0. -1.
         -1   -1    0    0    0  501 -0.00000000000E+00 -0.00000000000E+00 -0.31187946114E+03  0.31187946114E+03  0.00000000000E+00 0.  1.
         23    2    1    2    0    0 -0.15250008412E+03  0.20767448539E+02  0.88588698489E+02  0.21716463416E+03  0.12499983302E+03 0.  0.
          5    1    3    3  502    0  0.17342905361E+02  0.40420192028E+01  0.32683182475E+02  0.37515259593E+02  0.47000000000E+01 0. -1.
         -5    1    3    3    0  502 -0.16984298948E+03  0.16725429336E+02  0.55905516014E+02  0.17964937457E+03  0.47000000000E+01 0. -1.
        -11    1    1    2    0    0  0.12882865575E+03 -0.35461287635E+02 -0.11725962195E+03  0.17777554501E+03  0.00000000000E+00 0.  1.
         11    1    1    2    0    0  0.23671428362E+02  0.14693839096E+02 -0.98134729509E+02  0.10201309016E+03  0.00000000000E+00 0. -1.
<mgrwt>
<rscale>  0 0.19315267E+03</rscale>
<asrwt>0</asrwt>
<pdfrwt beam="1">  1        1 0.28472894E-01 0.19827385E+03</pdfrwt>
<pdfrwt beam="2">  1       -1 0.47981455E-01 0.19827385E+03</pdfrwt>
<totfact> 0.71865659E+02</totfact>
</mgrwt>
</event>
<event>
 7    1  0.1730727E-005  0.1919021E+03  0.7546771E-02  0.1156919E+00
          1   -1    0    0  501    0  0.00000000000E+00  0.00000000000E+00  0.13864196083E+04  0.13864196083E+04  0.00000000000E+00 0. -1.
         -1   -1    0    0    0  501 -0.00000000000E+00 -0.00000000000E+00 -0.27494039496E+02  0.27494039496E+02  0.00000000000E+00 0.  1.
         23    2    1    2    0    0 -0.14459926598E+03 -0.36212776406E+01  0.81522216659E+03  0.83733770815E+03  0.12500078088E+03 0.  0.
          5    1    3    3  502    0 -0.80972999740E+02 -0.12819061398E+02  0.16884367254E+03  0.18775311124E+03  0.47000000000E+01 0.  1.
         -5    1    3    3    0  502 -0.63626266240E+02  0.91977837570E+01  0.64637849405E+03  0.64958459691E+03  0.47000000000E+01 0.  1.
        -11    1    1    2    0    0  0.12886427955E+03  0.53233357745E+02  0.37822742654E+03  0.40310765200E+03  0.00000000000E+00 0.  1.
         11    1    1    2    0    0  0.15734986433E+02 -0.49612080105E+02  0.16547597570E+03  0.17346828766E+03  0.00000000000E+00 0. -1.
<mgrwt>
<rscale>  0 0.19171967E+03</rscale>
<asrwt>0</asrwt>
<pdfrwt beam="1">  1        1 0.21329527E+00 0.19190212E+03</pdfrwt>
<pdfrwt beam="2">  1       -1 0.42298533E-02 0.19190212E+03</pdfrwt>
<totfact> 0.19281609E+03</totfact>
</mgrwt>
</event>
<event>
 7    1  0.5928109E-006  0.1579872E+03  0.7546771E-02  0.1199154E+00
         -2   -1    0    0    0  501 -0.00000000000E+00  0.00000000000E+00  0.37093075053E+02  0.37093075053E+02  0.00000000000E+00 0.  1.
          2   -1    0    0  501    0  0.00000000000E+00 -0.00000000000E+00 -0.58002259800E+03  0.58002259800E+03  0.00000000000E+00 0. -1.
         23    2    1    2    0    0 -0.27984764150E+02  0.92454635890E+02 -0.34082007144E+03  0.37565712179E+03  0.12501578033E+03 0.  0.
          5    1    3    3  502    0  0.78723545229E+01 -0.27970684491E+01  0.78599606273E+01  0.12396230827E+02  0.47000000000E+01 0. -1.
         -5    1    3    3    0  502 -0.35857118673E+02  0.95251704339E+02 -0.34868003207E+03  0.36326089096E+03  0.47000000000E+01 0. -1.
        -11    1    1    2    0    0 -0.55492612522E+01 -0.36733747105E+02 -0.15935918520E+03  0.16363224738E+03  0.00000000000E+00 0. -1.
         11    1    1    2    0    0  0.33534025402E+02 -0.55720888785E+02 -0.42750266310E+02  0.77826303884E+02  0.00000000000E+00 0.  1.
<mgrwt>
<rscale>  0 0.15107871E+03</rscale>
<asrwt>0</asrwt>
<pdfrwt beam="2">  1        2 0.89234249E-01 0.15798719E+03</pdfrwt>
<pdfrwt beam="1">  1       -2 0.57066267E-02 0.15798719E+03</pdfrwt>
<totfact> 0.81151825E+03</totfact>
</mgrwt>
</event>
<event>
 7    1  0.5928109E-006  0.1558993E+03  0.7546771E-02  0.1201188E+00
          1   -1    0    0  501    0  0.00000000000E+00  0.00000000000E+00  0.99678696234E+03  0.99678696234E+03  0.00000000000E+00 0. -1.
         -1   -1    0    0    0  501 -0.00000000000E+00 -0.00000000000E+00 -0.27388421512E+02  0.27388421512E+02  0.00000000000E+00 0.  1.
         23    2    1    2    0    0 -0.50695498457E+02 -0.78145466391E+02  0.76768529041E+03  0.78335515932E+03  0.12501141163E+03 0.  0.
          5    1    3    3  502    0 -0.78991347008E+02 -0.14154319642E+02  0.30638585763E+03  0.31675599666E+03  0.47000000000E+01 0.  1.
         -5    1    3    3    0  502  0.28295848550E+02 -0.63991146749E+02  0.46129943278E+03  0.46659916266E+03  0.47000000000E+01 0.  1.
        -11    1    1    2    0    0 -0.12010408757E+02  0.17511956202E+02  0.11809120907E+03  0.11998521654E+03  0.00000000000E+00 0. -1.
         11    1    1    2    0    0  0.62705907215E+02  0.60633510189E+02  0.83622041348E+02  0.12083500799E+03  0.00000000000E+00 0.  1.
<mgrwt>
<rscale>  0 0.14941983E+03</rscale>
<asrwt>0</asrwt>
<pdfrwt beam="1">  1        1 0.15335181E+00 0.15589933E+03</pdfrwt>
<pdfrwt beam="2">  1       -1 0.42136041E-02 0.15589933E+03</pdfrwt>
<totfact> 0.36061740E+03</totfact>
</mgrwt>
</event>
<event>
 7    1  0.5928109E-006  0.1498225E+03  0.7546771E-02  0.1209752E+00
          3   -1    0    0  501    0  0.00000000000E+00  0.00000000000E+00  0.23090718127E+03  0.23090718127E+03  0.00000000000E+00 0. -1.
         -3   -1    0    0    0  501 -0.00000000000E+00 -0.00000000000E+00 -0.80895476461E+02  0.80895476461E+02  0.00000000000E+00 0.  1.
         23    2    1    2    0    0 -0.11895404313E+02  0.81713413362E+02  0.88919933470E+02  0.17422265942E+03  0.12501279102E+03 0.  0.
          5    1    3    3  502    0  0.10521950978E+02  0.61479492807E+01  0.94185407604E+02  0.95086748490E+02  0.47000000000E+01 0. -1.
         -5    1    3    3    0  502 -0.22417355291E+02  0.75565464082E+02 -0.52654741347E+01  0.79135910925E+02  0.47000000000E+01 0. -1.
        -11    1    1    2    0    0  0.45400231482E+02 -0.49758604911E+02  0.91148187628E+01  0.67971903772E+02  0.00000000000E+00 0.  1.
         11    1    1    2    0    0 -0.33504827169E+02 -0.31954808451E+02  0.51976952576E+02  0.69608094543E+02  0.00000000000E+00 0. -1.
<mgrwt>
<rscale>  0 0.14269183E+03</rscale>
<asrwt>0</asrwt>
<pdfrwt beam="1">  1        3 0.35524181E-01 0.14982250E+03</pdfrwt>
<pdfrwt beam="2">  1       -3 0.12445458E-01 0.14982250E+03</pdfrwt>
<totfact> 0.93412278E+02</totfact>
</mgrwt>
</event>
<event>
 7    1  0.5928109E-006  0.1724976E+03  0.7546771E-02  0.1178367E+00
          1   -1    0    0  501    0  0.00000000000E+00  0.00000000000E+00  0.11610669229E+03  0.11610669229E+03  0.00000000000E+00 0. -1.
         -1   -1    0    0    0  501 -0.00000000000E+00 -0.00000000000E+00 -0.35369920248E+03  0.35369920248E+03  0.00000000000E+00 0.  1.
         23    2    1    2    0    0 -0.13213160208E+03 -0.44450746811E+01  0.11968062042E+02  0.17291232574E+03  0.11080125869E+03 0.  0.
          5    1    3    3  502    0 -0.14258128907E+03 -0.27277467622E+02  0.13553839600E+01  0.14524947951E+03  0.47000000000E+01 0. -1.
         -5    1    3    3    0  502  0.10449686988E+02  0.22832392941E+02  0.10612678082E+02  0.27662846231E+02  0.47000000000E+01 0.  1.
        -11    1    1    2    0    0 -0.84816087331E+01 -0.12167004971E+02 -0.78902611583E+01  0.16799699932E+02  0.00000000000E+00 0. -1.
         11    1    1    2    0    0  0.14061321081E+03  0.16612079652E+02 -0.24167031108E+03  0.28009386909E+03  0.00000000000E+00 0.  1.
<mgrwt>
<rscale>  0 0.16950289E+03</rscale>
<asrwt>0</asrwt>
<pdfrwt beam="1">  1        1 0.17862568E-01 0.17249765E+03</pdfrwt>
<pdfrwt beam="2">  1       -1 0.54415261E-01 0.17249765E+03</pdfrwt>
<totfact> 0.10297163E+03</totfact>
</mgrwt>
</event>
<event>
 7    1  0.5928109E-006  0.1301368E+03  0.7546771E-02  0.1240851E+00
          3   -1    0    0  501    0  0.00000000000E+00  0.00000000000E+00  0.39925047937E+03  0.39925047937E+03  0.00000000000E+00 0.  1.
         -3   -1    0    0    0  501 -0.00000000000E+00 -0.00000000000E+00 -0.32801713867E+02  0.32801713867E+02  0.00000000000E+00 0. -1.
         23    2    1    2    0    0 -0.27762150736E+02  0.23237033835E+02  0.21908315158E+03  0.25481956195E+03  0.12499954037E+03 0.  0.
          5    1    3    3  502    0  0.26947534572E+02  0.62039141124E+01 -0.27702304096E+00  0.28050399490E+02  0.47000000000E+01 0. -1.
         -5    1    3    3    0  502 -0.54709685307E+02  0.17033119723E+02  0.21936017462E+03  0.22676916246E+03  0.47000000000E+01 0. -1.
        -11    1    1    2    0    0 -0.17258218994E+02 -0.45006343475E+02  0.78681117626E+02  0.92272072409E+02  0.00000000000E+00 0.  1.
         11    1    1    2    0    0  0.45020369730E+02  0.21769309640E+02  0.68684496295E+02  0.84960558874E+02  0.00000000000E+00 0. -1.
<mgrwt>
<rscale>  0 0.12137166E+03</rscale>
<asrwt>0</asrwt>
<pdfrwt beam="1">  1        3 0.61423147E-01 0.13013678E+03</pdfrwt>
<pdfrwt beam="2">  1       -3 0.50464178E-02 0.13013678E+03</pdfrwt>
<totfact> 0.13468104E+03</totfact>
</mgrwt>
</event>
<event>
 7    1  0.5928109E-006  0.1646238E+03  0.7546771E-02  0.1189346E+00
         -2   -1    0    0    0  501 -0.00000000000E+00  0.00000000000E+00  0.11106976821E+04  0.11106976821E+04  0.00000000000E+00 0.  1.
          2   -1    0    0  501    0  0.00000000000E+00 -0.00000000000E+00 -0.21601282179E+02  0.21601282179E+02  0.00000000000E+00 0. -1.
         23    2    1    2    0    0  0.55120379897E+02 -0.91861088389E+02  0.55183699094E+03  0.57586896937E+03  0.12499715787E+03 0.  0.
          5    1    3    3  502    0  0.26062461648E+02 -0.11102557732E+03  0.50253648567E+03  0.51533575478E+03  0.47000000000E+01 0.  1.
         -5    1    3    3    0  502  0.29057918249E+02  0.19164488931E+02  0.49300505277E+02  0.60533214598E+02  0.47000000000E+01 0.  1.
        -11    1    1    2    0    0 -0.18209316434E+02 -0.19970995689E+02  0.98261427089E+02  0.10191039166E+03  0.00000000000E+00 0. -1.
         11    1    1    2    0    0 -0.36911063463E+02  0.11183208408E+03  0.43899798193E+03  0.45451960329E+03  0.00000000000E+00 0.  1.
<mgrwt>
<rscale>  0 0.15942657E+03</rscale>
<asrwt>0</asrwt>
<pdfrwt beam="2">  1        2 0.33232750E-02 0.16462383E+03</pdfrwt>
<pdfrwt beam="1">  1       -2 0.17087652E+00 0.16462383E+03</pdfrwt>
<totfact> 0.60144086E+02</totfact>
</mgrwt>
</event>
<event>
 7    1  0.5928109E-006  0.1945217E+03  0.7546771E-02  0.1158728E+00
          1   -1    0    0  501    0  0.00000000000E+00  0.00000000000E+00  0.11879131140E+04  0.11879131140E+04  0.00000000000E+00 0. -1.
         -1   -1    0    0    0  501 -0.00000000000E+00 -0.00000000000E+00 -0.32553617254E+02  0.32553617254E+02  0.00000000000E+00 0.  1.
         23    2    1    2    0    0  0.14013545214E+03  0.50812594119E+02  0.80797180653E+03  0.83105783176E+03  0.12497525721E+03 0.  0.
          5    1    3    3  502    0  0.32792478859E+02  0.71077171395E+02  0.23476104179E+03  0.24751191427E+03  0.47000000000E+01 0. -1.
         -5    1    3    3    0  502  0.10734297328E+03 -0.20264577276E+02  0.57321076474E+03  0.58354591749E+03  0.47000000000E+01 0. -1.
        -11    1    1    2    0    0 -0.64647306749E+02 -0.59997089127E+02  0.25458054043E+03  0.26942564195E+03  0.00000000000E+00 0.  1.
         11    1    1    2    0    0 -0.75488145387E+02  0.91844950078E+01  0.92807149835E+02  0.11998325759E+03  0.00000000000E+00 0. -1.
<mgrwt>
<rscale>  0 0.18970466E+03</rscale>
<asrwt>0</asrwt>
<pdfrwt beam="1">  1        1 0.18275583E+00 0.19452167E+03</pdfrwt>
<pdfrwt beam="2">  1       -1 0.50082497E-02 0.19452167E+03</pdfrwt>
<totfact> 0.20459855E+03</totfact>
</mgrwt>
</event>
<event>
 7    1  0.5928109E-006  0.1332181E+03  0.7546771E-02  0.1234554E+00
         -2   -1    0    0    0  501 -0.00000000000E+00  0.00000000000E+00  0.11078387328E+03  0.11078387328E+03  0.00000000000E+00 0.  1.
          2   -1    0    0  501    0  0.00000000000E+00 -0.00000000000E+00 -0.12884770662E+03  0.12884770662E+03  0.00000000000E+00 0. -1.
         23    2    1    2    0    0  0.44977485315E+02 -0.99665655852E+01 -0.22841383230E+02  0.13516209841E+03  0.12499902977E+03 0.  0.
          5    1    3    3  502    0 -0.98045490414E+01  0.31053481862E+02 -0.51259075973E+02  0.60910022059E+02  0.47000000000E+01 0. -1.
         -5    1    3    3    0  502  0.54782034357E+02 -0.41020047447E+02  0.28417692743E+02  0.74252076346E+02  0.47000000000E+01 0. -1.
        -11    1    1    2    0    0 -0.34277870592E+02  0.12048876163E+02  0.47826096985E+02  0.60062329142E+02  0.00000000000E+00 0.  1.
         11    1    1    2    0    0 -0.10699614723E+02 -0.20823105775E+01 -0.43048547098E+02  0.44407152350E+02  0.00000000000E+00 0. -1.
<mgrwt>
<rscale>  0 0.12533032E+03</rscale>
<asrwt>0</asrwt>
<pdfrwt beam="2">  1        2 0.19822724E-01 0.13321811E+03</pdfrwt>
<pdfrwt beam="1">  1       -2 0.17043673E-01 0.13321811E+03</pdfrwt>
<totfact> 0.73262550E+03</totfact>
</mgrwt>
</event>
<event>
 6    1  0.5928109E-006  0.1424697E+03  0.7546771E-02  0.1227689E+00
          1   -1    0    0  501    0  0.00000000000E+00  0.00000000000E+00  0.69168802485E+03  0.69168802485E+03  0.00000000000E+00 0. -1.
         -1   -1    0    0    0  501 -0.00000000000E+00 -0.00000000000E+00 -0.47695971537E+02  0.47695971537E+02  0.00000000000E+00 0.  1.
          5    1    1    2  502    0 -0.42726841739E+02  0.40021098325E+02  0.52695270490E+03  0.53021553591E+03  0.47000000000E+01 0. -1.
         -5    1    1    2    0  502  0.50465404705E+02 -0.72599265805E+01  0.95779047617E+02  0.10860561481E+03  0.47000000000E+01 0.  1.
        -11    1    1    2    0    0 -0.41361354304E+02 -0.45757970631E+02  0.82058175680E+01  0.62224504402E+02  0.00000000000E+00 0.  1.
         11    1    1    2    0    0  0.33622791339E+02  0.12996798887E+02  0.13054483228E+02  0.38338341267E+02  0.00000000000E+00 0. -1.
<mgrwt>
<rscale>  0 0.12984316E+03</rscale>
<asrwt>0</asrwt>
<pdfrwt beam="1">  1        1 0.10641354E+00 0.14246974E+03</pdfrwt>
<pdfrwt beam="2">  1       -1 0.73378423E-02 0.14246974E+03</pdfrwt>
<totfact> 0.27679721E+03</totfact>
</mgrwt>
</event>
<event>
 7    1  0.5928109E-006  0.1295240E+03  0.7546771E-02  0.1241648E+00
         -1   -1    0    0    0  501 -0.00000000000E+00  0.00000000000E+00  0.11918034462E+02  0.11918034462E+02  0.00000000000E+00 0.  1.
          1   -1    0    0  501    0  0.00000000000E+00 -0.00000000000E+00 -0.14171833988E+04  0.14171833988E+04  0.00000000000E+00 0. -1.
         23    2    1    2    0    0 -0.59301924113E+01 -0.33408615896E+02 -0.11183356245E+04  0.11258112808E+04  0.12500067249E+03 0.  0.
          5    1    3    3  502    0  0.36583229623E+02 -0.53024786485E+02 -0.90715203216E+03  0.90944865723E+03  0.47000000000E+01 0. -1.
         -5    1    3    3    0  502 -0.42513422035E+02  0.19616170589E+02 -0.21118359232E+03  0.21636262354E+03  0.47000000000E+01 0. -1.
        -11    1    1    2    0    0 -0.39530000156E+02  0.44447495660E+01 -0.78505324809E+02  0.88008310598E+02  0.00000000000E+00 0.  1.
         11    1    1    2    0    0  0.45460192567E+02  0.28963866330E+02 -0.20842441500E+03  0.21528184185E+03  0.00000000000E+00 0. -1.
<mgrwt>
<rscale>  0 0.12088259E+03</rscale>
<asrwt>0</asrwt>
<pdfrwt beam="2">  1        1 0.21802815E+00 0.12952402E+03</pdfrwt>
<pdfrwt beam="1">  1       -1 0.18335443E-02 0.12952402E+03</pdfrwt>
<totfact> 0.61848543E+03</totfact>
</mgrwt>
</event>
<event>
 7    1  0.5928109E-006  0.1268734E+03  0.7546771E-02  0.1246984E+00
         -2   -1    0    0    0  501 -0.00000000000E+00  0.00000000000E+00  0.68688449600E+02  0.68688449600E+02  0.00000000000E+00 0.  1.
          2   -1    0    0  501    0  0.00000000000E+00 -0.00000000000E+00 -0.19396607474E+03  0.19396607474E+03  0.00000000000E+00 0. -1.
         23    2    1    2    0    0 -0.16158013370E+02 -0.14501624222E+02 -0.10920789813E+03  0.16740137649E+03  0.12500190933E+03 0.  0.
          5    1    3    3  502    0  0.52021911450E+01 -0.31502350354E+02 -0.12924459072E+03  0.13321304403E+03  0.47000000000E+01 0. -1.
         -5    1    3    3    0  502 -0.21360204515E+02  0.17000726133E+02  0.20036692592E+02  0.34188332454E+02  0.47000000000E+01 0. -1.
        -11    1    1    2    0    0  0.16165351672E+02  0.32490612840E+02  0.29175092678E+02  0.46563339122E+02  0.00000000000E+00 0.  1.
         11    1    1    2    0    0 -0.73383011264E-02 -0.17988988618E+02 -0.45244819697E+02  0.48689808736E+02  0.00000000000E+00 0. -1.
<mgrwt>
<rscale>  0 0.11767392E+03</rscale>
<asrwt>0</asrwt>
<pdfrwt beam="2">  1        2 0.29840934E-01 0.12687339E+03</pdfrwt>
<pdfrwt beam="1">  1       -2 0.10567454E-01 0.12687339E+03</pdfrwt>
<totfact> 0.10045477E+04</totfact>
</mgrwt>
</event>
<event>
 6    1  0.5928109E-006  0.1331108E+03  0.7546771E-02  0.1235989E+00
         -1   -1    0    0    0  501 -0.00000000000E+00  0.00000000000E+00  0.95472601053E+02  0.95472601053E+02  0.00000000000E+00 0.  1.
          1   -1    0    0  501    0  0.00000000000E+00 -0.00000000000E+00 -0.85588580338E+03  0.85588580338E+03  0.00000000000E+00 0. -1.
          5    1    1    2  502    0  0.74516557591E+01 -0.29510616230E+02 -0.76294689861E+03  0.76356824432E+03  0.47000000000E+01 0. -1.
         -5    1    1    2    0  502 -0.19967499534E+02  0.29503807318E+02 -0.58957337914E+02  0.69045154629E+02  0.47000000000E+01 0.  1.
        -11    1    1    2    0    0  0.21141956145E+02  0.47790639443E+02  0.24570043461E+02  0.57746121633E+02  0.00000000000E+00 0.  1.
         11    1    1    2    0    0 -0.86261123700E+01 -0.47783830531E+02  0.36920990729E+02  0.60998883853E+02  0.00000000000E+00 0. -1.
<mgrwt>
<rscale>  0 0.12441307E+03</rscale>
<asrwt>0</asrwt>
<pdfrwt beam="2">  1        1 0.13167474E+00 0.13311085E+03</pdfrwt>
<pdfrwt beam="1">  1       -1 0.14688092E-01 0.13311085E+03</pdfrwt>
<totfact> 0.69652164E+02</totfact>
</mgrwt>
</event>
<event>
 7    1  0.5928109E-006  0.1131969E+03  0.7546771E-02  0.1264870E+00
          1   -1    0    0  501    0  0.00000000000E+00  0.00000000000E+00  0.54075755727E+03  0.54075755727E+03  0.00000000000E+00 0. -1.
         -1   -1    0    0    0  501 -0.00000000000E+00 -0.00000000000E+00 -0.23552480015E+02  0.23552480015E+02  0.00000000000E+00 0.  1.
         23    2    1    2    0    0 -0.10428728781E+02 -0.11855617495E+01  0.39479821998E+03  0.41070571019E+03  0.11270928065E+03 0.  0.
          5    1    3    3  502    0  0.43447349581E+02  0.24116879706E+02  0.23187725543E+03  0.23718863307E+03  0.47000000000E+01 0. -1.
         -5    1    3    3    0  502 -0.53876078362E+02 -0.25302441456E+02  0.16292096455E+03  0.17351707712E+03  0.47000000000E+01 0.  1.
        -11    1    1    2    0    0 -0.26444515270E+02 -0.33104802159E+02  0.58934587215E+02  0.72584611896E+02  0.00000000000E+00 0.  1.
         11    1    1    2    0    0  0.36873244050E+02  0.34290363909E+02  0.63472270058E+02  0.81019715194E+02  0.00000000000E+00 0. -1.
<mgrwt>
<rscale>  0 0.10771018E+03</rscale>
<asrwt>0</asrwt>
<pdfrwt beam="1">  1        1 0.83193461E-01 0.11319693E+03</pdfrwt>
<pdfrwt beam="2">  1       -1 0.36234589E-02 0.11319693E+03</pdfrwt>
<totfact> 0.10871342E+04</totfact>
</mgrwt>
</event>
<event>
 6    1  0.5928109E-006  0.1822900E+03  0.7546771E-02  0.1210364E+00
          2   -1    0    0  501    0  0.00000000000E+00  0.00000000000E+00  0.60055059935E+02  0.60055059935E+02  0.00000000000E+00 0. -1.
         -2   -1    0    0    0  501 -0.00000000000E+00 -0.00000000000E+00 -0.33045412414E+03  0.33045412414E+03  0.00000000000E+00 0.  1.
          5    1    1    2  502    0 -0.90139013663E+02  0.35162518497E+02 -0.16154529915E+02  0.98206432213E+02  0.47000000000E+01 0. -1.
         -5    1    1    2    0  502  0.69885347176E+02 -0.72785068616E+00 -0.85437290581E+02  0.11048127506E+03  0.47000000000E+01 0.  1.
        -11    1    1    2    0    0  0.15406155108E+02 -0.48908229171E+02 -0.14198005587E+03  0.15095595636E+03  0.00000000000E+00 0. -1.
         11    1    1    2    0    0  0.48475113788E+01  0.14473561360E+02 -0.26827187836E+02  0.30865520442E+02  0.00000000000E+00 0.  1.
<mgrwt>
<rscale>  0 0.14222648E+03</rscale>
<asrwt>0</asrwt>
<pdfrwt beam="1">  1        2 0.92392400E-02 0.18229005E+03</pdfrwt>
<pdfrwt beam="2">  1       -2 0.50839096E-01 0.18229005E+03</pdfrwt>
<totfact> 0.25703681E+03</totfact>
</mgrwt>
</event>
<event>
 7    1  0.5928109E-006  0.1620925E+03  0.7546771E-02  0.1192765E+00
         -2   -1    0    0    0  501 -0.00000000000E+00  0.00000000000E+00  0.74886261297E+02  0.74886261297E+02  0.00000000000E+00 0.  1.
          2   -1    0    0  501    0  0.00000000000E+00 -0.00000000000E+00 -0.30667382091E+03  0.30667382091E+03  0.00000000000E+00 0. -1.
         23    2    1    2    0    0  0.76182494773E+02  0.69624864520E+02 -0.13290039251E+03  0.20961030264E+03  0.12499028112E+03 0.  0.
          5    1    3    3  502    0 -0.27040174883E+02 -0.98409141279E+01 -0.40184000437E+02  0.49647341718E+02  0.47000000000E+01 0. -1.
         -5    1    3    3    0  502  0.10322266966E+03  0.79465778648E+02 -0.92716392073E+02  0.15996296092E+03  0.47000000000E+01 0. -1.
        -11    1    1    2    0    0 -0.50528579993E+02 -0.92708734787E+02 -0.81024431843E+02  0.13309021548E+03  0.00000000000E+00 0. -1.
         11    1    1    2    0    0 -0.25653914780E+02  0.23083870266E+02 -0.17862735262E+02  0.38859564087E+02  0.00000000000E+00 0.  1.
<mgrwt>
<rscale>  0 0.15644889E+03</rscale>
<asrwt>0</asrwt>
<pdfrwt beam="2">  1        2 0.47180589E-01 0.16209246E+03</pdfrwt>
<pdfrwt beam="1">  1       -2 0.11520963E-01 0.16209246E+03</pdfrwt>
<totfact> 0.54547913E+03</totfact>
</mgrwt>
</event>
<event>
 7    1  0.5928109E-006  0.1268751E+03  0.7546771E-02  0.1243570E+00
          2   -1    0    0  501    0  0.00000000000E+00  0.00000000000E+00  0.13177252274E+03  0.13177252274E+03  0.00000000000E+00 0. -1.
         -2   -1    0    0    0  501 -0.00000000000E+00 -0.00000000000E+00 -0.10455429319E+03  0.10455429319E+03  0.00000000000E+00 0.  1.
         23    2    1    2    0    0 -0.20500013837E+02  0.71871915414E+01  0.44166952112E+02  0.13434284826E+03  0.12500149971E+03 0.  0.
          5    1    3    3  502    0 -0.54652935610E+02 -0.40384998142E+02  0.24423314650E+02  0.72363524958E+02  0.47000000000E+01 0.  1.
         -5    1    3    3    0  502  0.34152921774E+02  0.47572189684E+02  0.19743637462E+02  0.61979323304E+02  0.47000000000E+01 0.  1.
        -11    1    1    2    0    0  0.39450674608E+02  0.67380153929E+01 -0.48342104491E+02  0.62759187734E+02  0.00000000000E+00 0.  1.
         11    1    1    2    0    0 -0.18950660771E+02 -0.13925206934E+02  0.31393381925E+02  0.39224779929E+02  0.00000000000E+00 0. -1.
<mgrwt>
<rscale>  0 0.11971394E+03</rscale>
<asrwt>0</asrwt>
<pdfrwt beam="1">  1        2 0.20272696E-01 0.12687506E+03</pdfrwt>
<pdfrwt beam="2">  1       -2 0.16085276E-01 0.12687506E+03</pdfrwt>
<totfact> 0.78297622E+03</totfact>
</mgrwt>
</event>
<event>
 7    1  0.5928109E-006  0.1582457E+03  0.7546771E-02  0.1198316E+00
         -2   -1    0    0    0  501 -0.00000000000E+00  0.00000000000E+00  0.44364938357E+02  0.44364938357E+02  0.00000000000E+00 0.  1.
          2   -1    0    0  501    0  0.00000000000E+00 -0.00000000000E+00 -0.48263733581E+03  0.48263733581E+03  0.00000000000E+00 0. -1.
         23    2    1    2    0    0  0.72840052689E+02 -0.64132735629E+02 -0.25306450082E+03  0.29846833288E+03  0.12499209215E+03 0.  0.
          5    1    3    3  502    0  0.44402125880E+02  0.36771892290E+01 -0.20650471523E+03  0.21130867923E+03  0.47000000000E+01 0. -1.
         -5    1    3    3    0  502  0.28437926809E+02 -0.67809924858E+02 -0.46559785593E+02  0.87159653653E+02  0.47000000000E+01 0. -1.
        -11    1    1    2    0    0  0.21933084389E+02  0.18507500366E+02 -0.38866564250E+02  0.48313534100E+02  0.00000000000E+00 0. -1.
         11    1    1    2    0    0 -0.94773137079E+02  0.45625235263E+02 -0.14634133237E+03  0.18022040718E+03  0.00000000000E+00 0.  1.
<mgrwt>
<rscale>  0 0.15176924E+03</rscale>
<asrwt>0</asrwt>
<pdfrwt beam="2">  1        2 0.74251899E-01 0.15824571E+03</pdfrwt>
<pdfrwt beam="1">  1       -2 0.68253750E-02 0.15824571E+03</pdfrwt>
<totfact> 0.75820943E+03</totfact>
</mgrwt>
</event>
<event>
 7    1  0.5928109E-006  0.1367648E+03  0.7546771E-02  0.1228933E+00
         -2   -1    0    0    0  501 -0.00000000000E+00  0.00000000000E+00  0.20909694884E+02  0.20909694884E+02  0.00000000000E+00 0.  1.
          2   -1    0    0  501    0  0.00000000000E+00 -0.00000000000E+00 -0.72058377001E+03  0.72058377001E+03  0.00000000000E+00 0. -1.
         23    2    1    2    0    0 -0.12704566133E+02 -0.54025639827E+02 -0.41262296024E+03  0.43469796314E+03  0.12499774433E+03 0.  0.
          5    1    3    3  502    0 -0.48928849067E+02 -0.17821286626E+02 -0.34896634384E+03  0.35286148793E+03  0.47000000000E+01 0.  1.
         -5    1    3    3    0  502  0.36224282935E+02 -0.36204353201E+02 -0.63656616396E+02  0.81836475216E+02  0.47000000000E+01 0.  1.
        -11    1    1    2    0    0  0.34236388932E+01 -0.25202141246E+02 -0.10497234917E+03  0.10800955197E+03  0.00000000000E+00 0. -1.
         11    1    1    2    0    0  0.92809272393E+01  0.79227781073E+02 -0.18207876572E+03  0.19878594978E+03  0.00000000000E+00 0.  1.
<mgrwt>
<rscale>  0 0.12900915E+03</rscale>
<asrwt>0</asrwt>
<pdfrwt beam="2">  1        2 0.11085904E+00 0.13676480E+03</pdfrwt>
<pdfrwt beam="1">  1       -2 0.32168763E-02 0.13676480E+03</pdfrwt>
<totfact> 0.14703466E+04</totfact>
</mgrwt>
</event>
<event>
 7    1  0.5928109E-006  0.1523022E+03  0.7546771E-02  0.1206915E+00
          1   -1    0    0  501    0  0.00000000000E+00  0.00000000000E+00  0.54061454413E+03  0.54061454413E+03  0.00000000000E+00 0. -1.
         -1   -1    0    0    0  501 -0.00000000000E+00 -0.00000000000E+00 -0.35616480194E+02  0.35616480194E+02  0.00000000000E+00 0.  1.
         23    2    1    2    0    0 -0.87008340144E+02 -0.21174278234E+01  0.25999983341E+03  0.30132354669E+03  0.12498412563E+03 0.  0.
          5    1    3    3  502    0 -0.87267869009E+01  0.50728486839E+02  0.54518037125E+02  0.75125512036E+02  0.47000000000E+01 0.  1.
         -5    1    3    3    0  502 -0.78281553243E+02 -0.52845914663E+02  0.20548179629E+03  0.22619803465E+03  0.47000000000E+01 0.  1.
        -11    1    1    2    0    0  0.49844381729E+02  0.26496855132E+02  0.51639577355E+02  0.76506154466E+02  0.00000000000E+00 0.  1.
         11    1    1    2    0    0  0.37163958415E+02 -0.24379427309E+02  0.19335865317E+03  0.19840132318E+03  0.00000000000E+00 0. -1.
<mgrwt>
<rscale>  0 0.14487583E+03</rscale>
<asrwt>0</asrwt>
<pdfrwt beam="1">  1        1 0.83171463E-01 0.15230222E+03</pdfrwt>
<pdfrwt beam="2">  1       -1 0.54794589E-02 0.15230222E+03</pdfrwt>
<totfact> 0.60295298E+03</totfact>
</mgrwt>
</event>
<event>
 7    1  0.5928109E-006  0.2728954E+03  0.7546771E-02  0.1101623E+00
         -1   -1    0    0    0  501 -0.00000000000E+00  0.00000000000E+00  0.95115239647E+02  0.95115239647E+02  0.00000000000E+00 0.  1.
          1   -1    0    0  501    0  0.00000000000E+00 -0.00000000000E+00 -0.75594885374E+03  0.75594885374E+03  0.00000000000E+00 0. -1.
         23    2    1    2    0    0 -0.71500366751E+01  0.24248150330E+03 -0.39201252406E+03  0.47764601851E+03  0.12499398991E+03 0.  0.
          5    1    3    3  502    0  0.92972372824E+01  0.24725749260E+03 -0.32604053131E+03  0.40932532822E+03  0.47000000000E+01 0.  1.
         -5    1    3    3    0  502 -0.16447273957E+02 -0.47759893001E+01 -0.65971992747E+02  0.68320690288E+02  0.47000000000E+01 0.  1.
        -11    1    1    2    0    0  0.22429977624E+02 -0.91923647297E+02 -0.49034969490E+02  0.10657152087E+03  0.00000000000E+00 0.  1.
         11    1    1    2    0    0 -0.15279940949E+02 -0.15055785600E+03 -0.21978612054E+03  0.26684655400E+03  0.00000000000E+00 0. -1.
<mgrwt>
<rscale>  0 0.26940097E+03</rscale>
<asrwt>0</asrwt>
<pdfrwt beam="2">  1        1 0.11629982E+00 0.27289540E+03</pdfrwt>
<pdfrwt beam="1">  1       -1 0.14633114E-01 0.27289540E+03</pdfrwt>
<totfact> 0.84252680E+02</totfact>
</mgrwt>
</event>
<event>
 7    1  0.5928109E-006  0.1499751E+03  0.7546771E-02  0.1209057E+00
          1   -1    0    0  501    0  0.00000000000E+00  0.00000000000E+00  0.64549839996E+03  0.64549839996E+03  0.00000000000E+00 0. -1.
         -1   -1    0    0    0  501 -0.00000000000E+00 -0.00000000000E+00 -0.29966739118E+02  0.29966739118E+02  0.00000000000E+00 0.  1.
         23    2    1    2    0    0  0.67640667745E+02 -0.47857110043E+02  0.38816812522E+03  0.41613343595E+03  0.12500792041E+03 0.  0.
          5    1    3    3  502    0  0.72385999929E+02 -0.66291861847E+01  0.35610909663E+03  0.36348240370E+03  0.47000000000E+01 0.  1.
         -5    1    3    3    0  502 -0.47453321838E+01 -0.41227923858E+02  0.32059028592E+02  0.52651032255E+02  0.47000000000E+01 0.  1.
        -11    1    1    2    0    0 -0.21038430537E+02  0.41435367295E+02  0.19910057522E+03  0.20445181406E+03  0.00000000000E+00 0. -1.
         11    1    1    2    0    0 -0.46602237208E+02  0.64217427481E+01  0.28262960402E+02  0.54879889061E+02  0.00000000000E+00 0.  1.
<mgrwt>
<rscale>  0 0.14322252E+03</rscale>
<asrwt>0</asrwt>
<pdfrwt beam="1">  1        1 0.99307435E-01 0.14997514E+03</pdfrwt>
<pdfrwt beam="2">  1       -1 0.46102681E-02 0.14997514E+03</pdfrwt>
<totfact> 0.61144578E+03</totfact>
</mgrwt>
</event>
<event>
 7    1  0.5928109E-006  0.1386638E+03  0.7546771E-02  0.1227020E+00
          2   -1    0    0  501    0  0.00000000000E+00  0.00000000000E+00  0.12368813300E+04  0.12368813300E+04  0.00000000000E+00 0. -1.
         -2   -1    0    0    0  501 -0.00000000000E+00 -0.00000000000E+00 -0.12751961090E+02  0.12751961090E+02  0.00000000000E+00 0.  1.
         23    2    1    2    0    0  0.35027103335E+02  0.48737041475E+02  0.80105956861E+03  0.81297237207E+03  0.12500179243E+03 0.  0.
          5    1    3    3  502    0  0.45975312354E+01  0.67095648588E+02  0.20428049046E+03  0.21511757747E+03  0.47000000000E+01 0. -1.
         -5    1    3    3    0  502  0.30429572100E+02 -0.18358607113E+02  0.59677907815E+03  0.59785479460E+03  0.47000000000E+01 0. -1.
        -11    1    1    2    0    0 -0.60104389709E+02 -0.85306767799E+01  0.23925918286E+03  0.24684056938E+03  0.00000000000E+00 0.  1.
         11    1    1    2    0    0  0.25077286374E+02 -0.40206364695E+02  0.18381061744E+03  0.18982034964E+03  0.00000000000E+00 0. -1.
<mgrwt>
<rscale>  0 0.13029402E+03</rscale>
<asrwt>0</asrwt>
<pdfrwt beam="1">  1        2 0.19028934E+00 0.13866379E+03</pdfrwt>
<pdfrwt beam="2">  1       -2 0.19618411E-02 0.13866379E+03</pdfrwt>
<totfact> 0.14613890E+04</totfact>
</mgrwt>
</event>
<event>
 7    1  0.5928109E-006  0.1406997E+03  0.7546771E-02  0.1222539E+00
          1   -1    0    0  501    0  0.00000000000E+00  0.00000000000E+00  0.91999799484E+02  0.91999799484E+02  0.00000000000E+00 0. -1.
         -1   -1    0    0    0  501 -0.00000000000E+00 -0.00000000000E+00 -0.34446228871E+03  0.34446228871E+03  0.00000000000E+00 0.  1.
         23    2    1    2    0    0  0.40606718507E+02  0.50217105288E+02  0.19202753888E+02  0.14200408737E+03  0.12500300725E+03 0.  0.
          5    1    3    3  502    0  0.64550444585E+02 -0.17578114547E+02  0.19872801433E+02  0.69948325526E+02  0.47000000000E+01 0. -1.
         -5    1    3    3    0  502 -0.23943726078E+02  0.67795219835E+02 -0.67004754591E+00  0.72055761842E+02  0.47000000000E+01 0. -1.
        -11    1    1    2    0    0  0.21093900797E+01  0.26049145871E+02 -0.59087972089E+02  0.64609565644E+02  0.00000000000E+00 0. -1.
         11    1    1    2    0    0 -0.42716108587E+02 -0.76266251160E+02 -0.21257727102E+03  0.22984843518E+03  0.00000000000E+00 0.  1.
<mgrwt>
<rscale>  0 0.13337009E+03</rscale>
<asrwt>0</asrwt>
<pdfrwt beam="1">  1        1 0.14153816E-01 0.14069973E+03</pdfrwt>
<pdfrwt beam="2">  1       -1 0.52994197E-01 0.14069973E+03</pdfrwt>
<totfact> 0.14543563E+03</totfact>
</mgrwt>
</event>
<event>
 7    1  0.5928109E-006  0.1282021E+03  0.7546771E-02  0.1243198E+00
          2   -1    0    0  501    0  0.00000000000E+00  0.00000000000E+00  0.52629331922E+03  0.52629331922E+03  0.00000000000E+00 0. -1.
         -2   -1    0    0    0  501 -0.00000000000E+00 -0.00000000000E+00 -0.27669004444E+02  0.27669004444E+02  0.00000000000E+00 0.  1.
         23    2    1    2    0    0 -0.30855983162E+02 -0.23004717490E+02  0.37355601330E+03  0.39494285867E+03  0.12228842063E+03 0.  0.
          5    1    3    3  502    0  0.10257304897E+02 -0.41076678757E+02  0.40295857434E+02  0.58637462153E+02  0.47000000000E+01 0. -1.
         -5    1    3    3    0  502 -0.41113288059E+02  0.18071961267E+02  0.33326015587E+03  0.33630539652E+03  0.47000000000E+01 0.  1.
        -11    1    1    2    0    0  0.11932694692E+02 -0.25538420258E+02  0.94496210785E+02  0.98611023545E+02  0.00000000000E+00 0. -1.
         11    1    1    2    0    0  0.18923288470E+02  0.48543137747E+02  0.30572090687E+02  0.60408441445E+02  0.00000000000E+00 0.  1.
<mgrwt>
<rscale>  0 0.11993878E+03</rscale>
<asrwt>0</asrwt>
<pdfrwt beam="1">  1        2 0.80968196E-01 0.12820205E+03</pdfrwt>
<pdfrwt beam="2">  1       -2 0.42567703E-02 0.12820205E+03</pdfrwt>
<totfact> 0.13857079E+04</totfact>
</mgrwt>
</event>
<event>
 7    1  0.5928109E-006  0.1632012E+03  0.7546771E-02  0.1188479E+00
          2   -1    0    0  501    0  0.00000000000E+00  0.00000000000E+00  0.30520852293E+03  0.30520852293E+03  0.00000000000E+00 0. -1.
         -2   -1    0    0    0  501 -0.00000000000E+00 -0.00000000000E+00 -0.82202719316E+02  0.82202719316E+02  0.00000000000E+00 0.  1.
         23    2    1    2    0    0  0.60229359832E+02 -0.85921158262E+02  0.13780685532E+03  0.21360093378E+03  0.12499843325E+03 0.  0.
          5    1    3    3  502    0  0.92576628427E+02 -0.31340664752E+02  0.98370350071E+02  0.13874972134E+03  0.47000000000E+01 0.  1.
         -5    1    3    3    0  502 -0.32347268595E+02 -0.54580493510E+02  0.39436505250E+02  0.74851212439E+02  0.47000000000E+01 0.  1.
        -11    1    1    2    0    0 -0.32603240813E+02  0.61631978636E+02  0.10943445608E+03  0.12975890058E+03  0.00000000000E+00 0. -1.
         11    1    1    2    0    0 -0.27626119019E+02  0.24289179625E+02 -0.24235507791E+02  0.44051407887E+02  0.00000000000E+00 0.  1.
<mgrwt>
<rscale>  0 0.16019283E+03</rscale>
<asrwt>0</asrwt>
<pdfrwt beam="1">  1        2 0.46955157E-01 0.16320119E+03</pdfrwt>
<pdfrwt beam="2">  1       -2 0.12646572E-01 0.16320119E+03</pdfrwt>
<totfact> 0.47227626E+03</totfact>
</mgrwt>
</event>
<event>
 7    1  0.5928109E-006  0.1369187E+03  0.7546771E-02  0.1227556E+00
         -2   -1    0    0    0  501 -0.00000000000E+00  0.00000000000E+00  0.94549317589E+02  0.94549317589E+02  0.00000000000E+00 0. -1.
          2   -1    0    0  501    0  0.00000000000E+00 -0.00000000000E+00 -0.16552104767E+03  0.16552104767E+03  0.00000000000E+00 0.  1.
         23    2    1    2    0    0 -0.34311586684E+02  0.44115399103E+02 -0.56387558438E+02  0.14807529005E+03  0.12499312525E+03 0.  0.
          5    1    3    3  502    0 -0.74510090118E+02  0.14053297617E+02 -0.61028478241E+02  0.97446466635E+02  0.47000000000E+01 0. -1.
         -5    1    3    3    0  502  0.40198503434E+02  0.30062101486E+02  0.46409198031E+01  0.50628823418E+02  0.47000000000E+01 0. -1.
        -11    1    1    2    0    0  0.66349366926E+02 -0.38626021976E+02 -0.10381369418E+01  0.76780764475E+02  0.00000000000E+00 0. -1.
         11    1    1    2    0    0 -0.32037780242E+02 -0.54893771274E+01 -0.13546034699E+02  0.35214310729E+02  0.00000000000E+00 0.  1.
<mgrwt>
<rscale>  0 0.12993267E+03</rscale>
<asrwt>0</asrwt>
<pdfrwt beam="2">  1        2 0.25464777E-01 0.13691872E+03</pdfrwt>
<pdfrwt beam="1">  1       -2 0.14546049E-01 0.13691872E+03</pdfrwt>
<totfact> 0.72010342E+03</totfact>
</mgrwt>
</event>
<event>
 7    1  0.5928109E-006  0.1463662E+03  0.7546771E-02  0.1214731E+00
         -1   -1    0    0    0  501 -0.00000000000E+00  0.00000000000E+00  0.41509934292E+02  0.41509934292E+02  0.00000000000E+00 0.  1.
          1   -1    0    0  501    0  0.00000000000E+00 -0.00000000000E+00 -0.43667293238E+03  0.43667293238E+03  0.00000000000E+00 0. -1.
         23    2    1    2    0    0 -0.88650100238E+00  0.76139356416E+02 -0.17669502131E+03  0.22944321161E+03  0.12500027728E+03 0.  0.
          5    1    3    3  502    0  0.16340539671E+02 -0.68167545287E+01  0.12441025644E+02  0.22143859151E+02  0.47000000000E+01 0. -1.
         -5    1    3    3    0  502 -0.17227040673E+02  0.82956110945E+02 -0.18913604695E+03  0.20729935246E+03  0.47000000000E+01 0. -1.
        -11    1    1    2    0    0  0.21297208298E+01 -0.97012049841E+02 -0.19082095945E+03  0.21407594935E+03  0.00000000000E+00 0.  1.
         11    1    1    2    0    0 -0.12432198274E+01  0.20872693425E+02 -0.27647017337E+02  0.34663705717E+02  0.00000000000E+00 0. -1.
<mgrwt>
<rscale>  0 0.13896289E+03</rscale>
<asrwt>0</asrwt>
<pdfrwt beam="2">  1        1 0.67180455E-01 0.14636617E+03</pdfrwt>
<pdfrwt beam="1">  1       -1 0.63861434E-02 0.14636617E+03</pdfrwt>
<totfact> 0.63219649E+03</totfact>
</mgrwt>
</event>
<event>
 7    1  0.5928109E-006  0.1812360E+03  0.7546771E-02  0.1170913E+00
          2   -1    0    0  501    0  0.00000000000E+00  0.00000000000E+00  0.11001163108E+04  0.11001163108E+04  0.00000000000E+00 0.  1.
         -2   -1    0    0    0  501 -0.00000000000E+00 -0.00000000000E+00 -0.36232334532E+02  0.36232334532E+02  0.00000000000E+00 0. -1.
         23    2    1    2    0    0 -0.92189297916E+02 -0.11021270561E+03  0.83623731789E+03  0.85565140215E+03  0.11045706427E+03 0.  0.
          5    1    3    3  502    0  0.22749080804E+02 -0.15491230340E+02  0.76446767637E+02  0.81386099409E+02  0.47000000000E+01 0. -1.
         -5    1    3    3    0  502 -0.11493837872E+03 -0.94721475268E+02  0.75979055025E+03  0.77426530274E+03  0.47000000000E+01 0.  1.
        -11    1    1    2    0    0  0.64228182589E+02  0.11040001870E+03  0.21484667756E+03  0.24994503081E+03  0.00000000000E+00 0.  1.
         11    1    1    2    0    0  0.27961115327E+02 -0.18731308707E+00  0.12799980809E+02  0.30752212363E+02  0.00000000000E+00 0. -1.
<mgrwt>
<rscale>  0 0.17682320E+03</rscale>
<asrwt>0</asrwt>
<pdfrwt beam="1">  1        2 0.16924864E+00 0.18123595E+03</pdfrwt>
<pdfrwt beam="2">  1       -2 0.55742062E-02 0.18123595E+03</pdfrwt>
<totfact> 0.37506576E+03</totfact>
</mgrwt>
</event>
<event>
 7    1  0.5928109E-006  0.1904374E+03  0.7546771E-02  0.1162974E+00
          1   -1    0    0  501    0  0.00000000000E+00  0.00000000000E+00  0.30716750114E+03  0.30716750114E+03  0.00000000000E+00 0. -1.
         -1   -1    0    0    0  501 -0.00000000000E+00 -0.00000000000E+00 -0.13045744605E+03  0.13045744605E+03  0.00000000000E+00 0.  1.
         23    2    1    2    0    0  0.93347865738E+01 -0.14336870893E+03  0.18767291983E+03  0.26737154342E+03  0.12499876981E+03 0.  0.
          5    1    3    3  502    0  0.39574224026E+02  0.20937097141E+01  0.56183295242E+02  0.68914116782E+02  0.47000000000E+01 0.  1.
         -5    1    3    3    0  502 -0.30239437453E+02 -0.14546241864E+03  0.13148962459E+03  0.19845742664E+03  0.47000000000E+01 0.  1.
        -11    1    1    2    0    0 -0.35481722541E+02  0.13884539655E+03 -0.76400774885E+01  0.14351086217E+03  0.00000000000E+00 0. -1.
         11    1    1    2    0    0  0.26146935968E+02  0.45233123809E+01 -0.33227872535E+01  0.26742541587E+02  0.00000000000E+00 0.  1.
<mgrwt>
<rscale>  0 0.18508134E+03</rscale>
<asrwt>0</asrwt>
<pdfrwt beam="1">  1        1 0.47256538E-01 0.19043744E+03</pdfrwt>
<pdfrwt beam="2">  1       -1 0.20070376E-01 0.19043744E+03</pdfrwt>
<totfact> 0.16892841E+03</totfact>
</mgrwt>
</event>
<event>
 7    1  0.5928109E-006  0.1447526E+03  0.7546771E-02  0.1214053E+00
          2   -1    0    0  501    0  0.00000000000E+00  0.00000000000E+00  0.40887878169E+03  0.40887878169E+03  0.00000000000E+00 0. -1.
         -2   -1    0    0    0  501 -0.00000000000E+00 -0.00000000000E+00 -0.48516221143E+02  0.48516221143E+02  0.00000000000E+00 0.  1.
         23    2    1    2    0    0 -0.56785954655E+02  0.45860894736E+02  0.25886939707E+03  0.29659177885E+03  0.12500180892E+03 0.  0.
          5    1    3    3  502    0 -0.72693090314E+02 -0.30442402946E+00  0.68464313186E+02  0.99969146407E+02  0.47000000000E+01 0. -1.
         -5    1    3    3    0  502  0.15907135658E+02  0.46165318765E+02  0.19040508388E+03  0.19662263244E+03  0.47000000000E+01 0. -1.
        -11    1    1    2    0    0  0.54988857676E+02  0.19605150347E+02  0.38479364642E+02  0.69919939158E+02  0.00000000000E+00 0.  1.
         11    1    1    2    0    0  0.17970969797E+01 -0.65466045083E+02  0.63013798836E+02  0.90883284822E+02  0.00000000000E+00 0. -1.
<mgrwt>
<rscale>  0 0.13946328E+03</rscale>
<asrwt>0</asrwt>
<pdfrwt beam="1">  1        2 0.62904426E-01 0.14475261E+03</pdfrwt>
<pdfrwt beam="2">  1       -2 0.74640343E-02 0.14475261E+03</pdfrwt>
<totfact> 0.78674374E+03</totfact>
</mgrwt>
</event>
<event>
 7    1  0.5928109E-006  0.1553596E+03  0.7546771E-02  0.1202172E+00
          2   -1    0    0  501    0  0.00000000000E+00  0.00000000000E+00  0.42317907014E+03  0.42317907014E+03  0.00000000000E+00 0. -1.
         -2   -1    0    0    0  501 -0.00000000000E+00 -0.00000000000E+00 -0.48149405142E+02  0.48149405142E+02  0.00000000000E+00 0.  1.
         23    2    1    2    0    0  0.83152394709E+02 -0.39972196141E+02  0.20316222811E+03  0.25575668466E+03  0.12499797442E+03 0.  0.
          5    1    3    3  502    0 -0.21468641625E+02 -0.14105076002E+02  0.11051590936E+03  0.11355928832E+03  0.47000000000E+01 0.  1.
         -5    1    3    3    0  502  0.10462103633E+03 -0.25867120139E+02  0.92646318745E+02  0.14219739634E+03  0.47000000000E+01 0.  1.
        -11    1    1    2    0    0  0.17311171319E+02  0.26902475796E+01  0.51588947647E+02  0.54482415547E+02  0.00000000000E+00 0.  1.
         11    1    1    2    0    0 -0.10046356603E+03  0.37281948561E+02  0.12027848924E+03  0.16108937507E+03  0.00000000000E+00 0. -1.
<mgrwt>
<rscale>  0 0.14862590E+03</rscale>
<asrwt>0</asrwt>
<pdfrwt beam="1">  1        2 0.65104470E-01 0.15535955E+03</pdfrwt>
<pdfrwt beam="2">  1       -2 0.74076011E-02 0.15535955E+03</pdfrwt>
<totfact> 0.77050761E+03</totfact>
</mgrwt>
</event>
<event>
 7    1  0.5928109E-006  0.1579846E+03  0.7546771E-02  0.1198669E+00
          1   -1    0    0  501    0  0.00000000000E+00  0.00000000000E+00  0.75283742036E+03  0.75283742036E+03  0.00000000000E+00 0. -1.
         -1   -1    0    0    0  501 -0.00000000000E+00 -0.00000000000E+00 -0.59396062830E+02  0.59396062830E+02  0.00000000000E+00 0.  1.
         23    2    1    2    0    0  0.84434169364E+02 -0.47512689230E+02  0.65428671332E+03  0.67309005588E+03  0.12478996553E+03 0.  0.
          5    1    3    3  502    0  0.78816999473E+01 -0.73938321991E+02  0.37152062971E+03  0.37891775487E+03  0.47000000000E+01 0.  1.
         -5    1    3    3    0  502  0.76552469417E+02  0.26425632761E+02  0.28276608361E+03  0.29417230101E+03  0.47000000000E+01 0.  1.
        -11    1    1    2    0    0 -0.63079618871E+02  0.63951538218E+02  0.57398848212E+02  0.10659955597E+03  0.00000000000E+00 0. -1.
         11    1    1    2    0    0 -0.21354550494E+02 -0.16438848988E+02 -0.18244203997E+02  0.32543871348E+02  0.00000000000E+00 0.  1.
<mgrwt>
<rscale>  0 0.15147753E+03</rscale>
<asrwt>0</asrwt>
<pdfrwt beam="1">  1        1 0.11582114E+00 0.15798456E+03</pdfrwt>
<pdfrwt beam="2">  1       -1 0.91378563E-02 0.15798456E+03</pdfrwt>
<totfact> 0.17603048E+03</totfact>
</mgrwt>
</event>
<event>
 7    1  0.5928109E-006  0.1586726E+03  0.7546771E-02  0.1198025E+00
          1   -1    0    0  501    0  0.00000000000E+00  0.00000000000E+00  0.43243713093E+02  0.43243713093E+02  0.00000000000E+00 0. -1.
         -1   -1    0    0    0  501 -0.00000000000E+00 -0.00000000000E+00 -0.51733156732E+03  0.51733156732E+03  0.00000000000E+00 0.  1.
         23    2    1    2    0    0  0.46178518847E+02 -0.86125944725E+02 -0.19713898066E+03  0.25306280222E+03  0.12500748062E+03 0.  0.
          5    1    3    3  502    0  0.40915445974E+02 -0.11183194097E+03 -0.11087979133E+03  0.16277860691E+03  0.47000000000E+01 0. -1.
         -5    1    3    3    0  502  0.52630728730E+01  0.25705996245E+02 -0.86259189332E+02  0.90284195312E+02  0.47000000000E+01 0. -1.
        -11    1    1    2    0    0  0.89700256293E+01 -0.12854364090E+02 -0.13336531106E+02  0.20580551447E+02  0.00000000000E+00 0. -1.
         11    1    1    2    0    0 -0.55148544476E+02  0.98980308815E+02 -0.26361234246E+03  0.28693192675E+03  0.00000000000E+00 0.  1.
<mgrwt>
<rscale>  0 0.15200979E+03</rscale>
<asrwt>0</asrwt>
<pdfrwt beam="1">  1        1 0.66528788E-02 0.15867263E+03</pdfrwt>
<pdfrwt beam="2">  1       -1 0.79589473E-01 0.15867263E+03</pdfrwt>
<totfact> 0.18096659E+03</totfact>
</mgrwt>
</event>
<event>
 7    1  0.5928109E-006  0.1273366E+03  0.7546771E-02  0.1247430E+00
          2   -1    0    0  501    0  0.00000000000E+00  0.00000000000E+00  0.60371503626E+02  0.60371503626E+02  0.00000000000E+00 0. -1.
         -2   -1    0    0    0  501 -0.00000000000E+00 -0.00000000000E+00 -0.22506238886E+03  0.22506238886E+03  0.00000000000E+00 0.  1.
         23    2    1    2    0    0 -0.24130430989E+02  0.31747666500E+01 -0.46340082128E+02  0.13550649642E+03  0.12498900159E+03 0.  0.
          5    1    3    3  502    0  0.19775992241E+01  0.33018236020E+02 -0.77801595662E+02  0.84671678241E+02  0.47000000000E+01 0.  1.
         -5    1    3    3    0  502 -0.26108030213E+02 -0.29843469371E+02  0.31461513535E+02  0.50834818182E+02  0.47000000000E+01 0.  1.
        -11    1    1    2    0    0  0.16658450378E+02 -0.24009622235E+02  0.30549706076E+00  0.29224292247E+02  0.00000000000E+00 0. -1.
         11    1    1    2    0    0  0.74719806116E+01  0.20834855586E+02 -0.11865630017E+03  0.12070310382E+03  0.00000000000E+00 0.  1.
<mgrwt>
<rscale>  0 0.11741099E+03</rscale>
<asrwt>0</asrwt>
<pdfrwt beam="1">  1        2 0.92879236E-02 0.12733659E+03</pdfrwt>
<pdfrwt beam="2">  1       -2 0.34624983E-01 0.12733659E+03</pdfrwt>
<totfact> 0.52116194E+03</totfact>
</mgrwt>
</event>
<event>
 6    1  0.5928109E-006  0.2477702E+03  0.7546771E-02  0.1127271E+00
         -2   -1    0    0    0  501 -0.00000000000E+00  0.00000000000E+00  0.57685006387E+02  0.57685006387E+02  0.00000000000E+00 0.  1.
          2   -1    0    0  501    0  0.00000000000E+00 -0.00000000000E+00 -0.14800147914E+04  0.14800147914E+04  0.00000000000E+00 0. -1.
          5    1    1    2  502    0 -0.91868452595E+02  0.17710452183E+02 -0.11952646536E+04  0.11989300042E+04  0.47000000000E+01 0. -1.
         -5    1    1    2    0  502 -0.56627870797E+02  0.30371212551E+02 -0.94219921201E+02  0.11414293607E+03  0.47000000000E+01 0.  1.
        -11    1    1    2    0    0  0.15300597628E+03 -0.62603082642E+02 -0.11612896223E+03  0.20202947954E+03  0.00000000000E+00 0.  1.
         11    1    1    2    0    0 -0.45096528868E+01  0.14521417908E+02 -0.16716247960E+02  0.22597378013E+02  0.00000000000E+00 0. -1.
<mgrwt>
<rscale>  0 0.22910605E+03</rscale>
<asrwt>0</asrwt>
<pdfrwt beam="2">  1        2 0.22769456E+00 0.24777021E+03</pdfrwt>
<pdfrwt beam="1">  1       -2 0.88746173E-02 0.24777021E+03</pdfrwt>
<totfact> 0.11260010E+03</totfact>
</mgrwt>
</event>
<event>
 7    1  0.5928109E-006  0.2065504E+03  0.7546771E-02  0.1148364E+00
          1   -1    0    0  501    0  0.00000000000E+00  0.00000000000E+00  0.88283417965E+02  0.88283417965E+02  0.00000000000E+00 0. -1.
         -1   -1    0    0    0  501 -0.00000000000E+00 -0.00000000000E+00 -0.44264502544E+03  0.44264502544E+03  0.00000000000E+00 0.  1.
         23    2    1    2    0    0 -0.69555211522E+02  0.14899100566E+03 -0.20647066658E+03  0.29204998329E+03  0.12500723724E+03 0.  0.
          5    1    3    3  502    0 -0.88754484467E+02  0.16006314903E+03 -0.19124427857E+03  0.26475277954E+03  0.47000000000E+01 0. -1.
         -5    1    3    3    0  502  0.19199272945E+02 -0.11072143370E+02 -0.15226388013E+02  0.27297203746E+02  0.47000000000E+01 0. -1.
        -11    1    1    2    0    0  0.67615854262E+02 -0.10149293608E+03 -0.53459303487E+02  0.13315636279E+03  0.00000000000E+00 0.  1.
         11    1    1    2    0    0  0.19393572598E+01 -0.47498069578E+02 -0.94431637406E+02  0.10572209733E+03  0.00000000000E+00 0. -1.
<mgrwt>
<rscale>  0 0.20163863E+03</rscale>
<asrwt>0</asrwt>
<pdfrwt beam="1">  1        1 0.13582064E-01 0.20655037E+03</pdfrwt>
<pdfrwt beam="2">  1       -1 0.68099236E-01 0.20655037E+03</pdfrwt>
<totfact> 0.95927966E+02</totfact>
</mgrwt>
</event>
<event>
 7    1  0.5928109E-006  0.2289492E+03  0.7546771E-02  0.1130498E+00
         -1   -1    0    0    0  501 -0.00000000000E+00  0.00000000000E+00  0.44579609329E+02  0.44579609329E+02  0.00000000000E+00 0.  1.
          1   -1    0    0  501    0  0.00000000000E+00 -0.00000000000E+00 -0.10925621043E+04  0.10925621043E+04  0.00000000000E+00 0. -1.
         23    2    1    2    0    0  0.64422740147E+02 -0.18068852348E+03 -0.52011380732E+03  0.56827466394E+03  0.12497635434E+03 0.  0.
          5    1    3    3  502    0  0.88627897212E+02 -0.66305448922E+02 -0.28149374255E+03  0.30250972516E+03  0.47000000000E+01 0. -1.
         -5    1    3    3    0  502 -0.24205157064E+02 -0.11438307456E+03 -0.23862006477E+03  0.26576493878E+03  0.47000000000E+01 0. -1.
        -11    1    1    2    0    0  0.27906093492E+00  0.98013367206E+02 -0.33779821116E+03  0.35173047847E+03  0.00000000000E+00 0.  1.
         11    1    1    2    0    0 -0.64701801082E+02  0.82675156273E+02 -0.19007047655E+03  0.21713657127E+03  0.00000000000E+00 0. -1.
<mgrwt>
<rscale>  0 0.22460161E+03</rscale>
<asrwt>0</asrwt>
<pdfrwt beam="2">  1        1 0.16808648E+00 0.22894917E+03</pdfrwt>
<pdfrwt beam="1">  1       -1 0.68584014E-02 0.22894917E+03</pdfrwt>
<totfact> 0.14898666E+03</totfact>
</mgrwt>
</event>
<event>
 7    1  0.5928109E-006  0.1343728E+03  0.7546771E-02  0.1233809E+00
          2   -1    0    0  501    0  0.00000000000E+00  0.00000000000E+00  0.90339570670E+03  0.90339570670E+03  0.00000000000E+00 0. -1.
         -2   -1    0    0    0  501 -0.00000000000E+00 -0.00000000000E+00 -0.16807643784E+02  0.16807643784E+02  0.00000000000E+00 0.  1.
         23    2    1    2    0    0  0.47656069078E+01  0.49067315898E+02  0.61823305848E+03  0.63266748832E+03  0.12500289472E+03 0.  0.
          5    1    3    3  502    0 -0.12073000220E+00 -0.42105877513E+02  0.16941092280E+03  0.17462837759E+03  0.47000000000E+01 0. -1.
         -5    1    3    3    0  502  0.48863369100E+01  0.91173193412E+02  0.44882213568E+03  0.45803911073E+03  0.47000000000E+01 0. -1.
        -11    1    1    2    0    0 -0.34303136367E+02 -0.29131550207E+02  0.23311159290E+03  0.23741602121E+03  0.00000000000E+00 0.  1.
         11    1    1    2    0    0  0.29537529459E+02 -0.19935765691E+02  0.35243411541E+02  0.50119840955E+02  0.00000000000E+00 0. -1.
<mgrwt>
<rscale>  0 0.12581013E+03</rscale>
<asrwt>0</asrwt>
<pdfrwt beam="1">  1        2 0.13898392E+00 0.13437275E+03</pdfrwt>
<pdfrwt beam="2">  1       -2 0.25857921E-02 0.13437275E+03</pdfrwt>
<totfact> 0.15253943E+04</totfact>
</mgrwt>
</event>
<event>
 7    1  0.5928109E-006  0.1528367E+03  0.7546771E-02  0.1205756E+00
          1   -1    0    0  501    0  0.00000000000E+00  0.00000000000E+00  0.14039816291E+04  0.14039816291E+04  0.00000000000E+00 0. -1.
         -1   -1    0    0    0  501 -0.00000000000E+00 -0.00000000000E+00 -0.15982619912E+02  0.15982619912E+02  0.00000000000E+00 0.  1.
         23    2    1    2    0    0 -0.87937327677E+02 -0.10519218637E+01  0.10064872264E+04  0.10180253430E+04  0.12499992766E+03 0.  0.
          5    1    3    3  502    0 -0.41072186560E+02 -0.56244197297E+02  0.67997241991E+03  0.68354584050E+03  0.47000000000E+01 0. -1.
         -5    1    3    3    0  502 -0.46865141117E+02  0.55192275434E+02  0.32651480650E+03  0.33447950248E+03  0.47000000000E+01 0. -1.
        -11    1    1    2    0    0  0.91283897151E+02 -0.26583910671E+02  0.24898869090E+03  0.26652358691E+03  0.00000000000E+00 0.  1.
         11    1    1    2    0    0 -0.33465694736E+01  0.27635832535E+02  0.13252309190E+03  0.13541531913E+03  0.00000000000E+00 0. -1.
<mgrwt>
<rscale>  0 0.14578006E+03</rscale>
<asrwt>0</asrwt>
<pdfrwt beam="1">  1        1 0.21599708E+00 0.15283672E+03</pdfrwt>
<pdfrwt beam="2">  1       -1 0.24588657E-02 0.15283672E+03</pdfrwt>
<totfact> 0.41495146E+03</totfact>
</mgrwt>
</event>
<event>
 7    1  0.5928109E-006  0.1577574E+03  0.7546771E-02  0.1199244E+00
          1   -1    0    0  501    0  0.00000000000E+00  0.00000000000E+00  0.34234789494E+03  0.34234789494E+03  0.00000000000E+00 0. -1.
         -1   -1    0    0    0  501 -0.00000000000E+00 -0.00000000000E+00 -0.64824393452E+02  0.64824393452E+02  0.00000000000E+00 0.  1.
         23    2    1    2    0    0  0.95134148985E+02 -0.14551287759E+02  0.19622847731E+03  0.25177970484E+03  0.12500063273E+03 0.  0.
          5    1    3    3  502    0  0.12098803125E+03 -0.30129939950E+02  0.17348870598E+03  0.21369683687E+03  0.47000000000E+01 0.  1.
         -5    1    3    3    0  502 -0.25853882267E+02  0.15578652192E+02  0.22739771336E+02  0.38082867969E+02  0.47000000000E+01 0.  1.
        -11    1    1    2    0    0 -0.29601419398E+02  0.56042290629E+01 -0.18732054313E+02  0.35475925253E+02  0.00000000000E+00 0.  1.
         11    1    1    2    0    0 -0.65532729587E+02  0.89470586956E+01  0.10002707849E+03  0.11991665830E+03  0.00000000000E+00 0. -1.
<mgrwt>
<rscale>  0 0.15100446E+03</rscale>
<asrwt>0</asrwt>
<pdfrwt beam="1">  1        1 0.52668906E-01 0.15775742E+03</pdfrwt>
<pdfrwt beam="2">  1       -1 0.99729838E-02 0.15775742E+03</pdfrwt>
<totfact> 0.43968704E+03</totfact>
</mgrwt>
</event>
<event>
 7    1  0.5928109E-006  0.1515060E+03  0.7546771E-02  0.1207686E+00
         -1   -1    0    0    0  501 -0.00000000000E+00  0.00000000000E+00  0.49060781913E+02  0.49060781913E+02  0.00000000000E+00 0.  1.
          1   -1    0    0  501    0  0.00000000000E+00 -0.00000000000E+00 -0.38904617168E+03  0.38904617168E+03  0.00000000000E+00 0. -1.
         23    2    1    2    0    0 -0.39241829216E+02  0.76073070904E+02 -0.17807154511E+03  0.23380234582E+03  0.12500811355E+03 0.  0.
          5    1    3    3  502    0  0.44941105434E+02  0.21822619084E+02 -0.72881210996E+02  0.88485538805E+02  0.47000000000E+01 0. -1.
         -5    1    3    3    0  502 -0.84182934651E+02  0.54250451820E+02 -0.10519033411E+03  0.14531680701E+03  0.47000000000E+01 0. -1.
        -11    1    1    2    0    0  0.77470421618E+01 -0.81667906964E+02 -0.14842977318E+03  0.16959086430E+03  0.00000000000E+00 0. -1.
         11    1    1    2    0    0  0.31494787055E+02  0.55948360601E+01 -0.13484071482E+02  0.34713743472E+02  0.00000000000E+00 0.  1.
<mgrwt>
<rscale>  0 0.14427755E+03</rscale>
<asrwt>0</asrwt>
<pdfrwt beam="2">  1        1 0.59853257E-01 0.15150598E+03</pdfrwt>
<pdfrwt beam="1">  1       -1 0.75478127E-02 0.15150598E+03</pdfrwt>
<totfact> 0.57059604E+03</totfact>
</mgrwt>
</event>
<event>
 6    1  0.5928109E-006  0.1382305E+03  0.7546771E-02  0.1234811E+00
         -2   -1    0    0    0  501 -0.00000000000E+00  0.00000000000E+00  0.17041943901E+02  0.17041943901E+02  0.00000000000E+00 0.  1.
          2   -1    0    0  501    0  0.00000000000E+00 -0.00000000000E+00 -0.97249787683E+03  0.97249787683E+03  0.00000000000E+00 0. -1.
          5    1    1    2  502    0  0.20130148344E+02  0.54091272010E+01 -0.74952457727E+03  0.74982908950E+03  0.47000000000E+01 0. -1.
         -5    1    1    2    0  502 -0.74939323413E+01 -0.22469785396E+02 -0.18195129841E+02  0.30235790508E+02  0.47000000000E+01 0.  1.
        -11    1    1    2    0    0  0.35056806895E+02 -0.45961814399E+01 -0.11155288113E+03  0.11702200598E+03  0.00000000000E+00 0.  1.
         11    1    1    2    0    0 -0.47693022897E+02  0.21656839635E+02 -0.76183344687E+02  0.92452934749E+02  0.00000000000E+00 0. -1.
<mgrwt>
<rscale>  0 0.12516555E+03</rscale>
<asrwt>0</asrwt>
<pdfrwt beam="2">  1        2 0.14961505E+00 0.13823049E+03</pdfrwt>
<pdfrwt beam="1">  1       -2 0.26218377E-02 0.13823049E+03</pdfrwt>
<totfact> 0.13575228E+04</totfact>
</mgrwt>
</event>
<event>
 7    1  0.5928109E-006  0.1656155E+03  0.7546771E-02  0.1189582E+00
         -2   -1    0    0    0  501 -0.00000000000E+00  0.00000000000E+00  0.41688125513E+02  0.41688125513E+02  0.00000000000E+00 0.  1.
          2   -1    0    0  501    0  0.00000000000E+00 -0.00000000000E+00 -0.57056674110E+03  0.57056674110E+03  0.00000000000E+00 0. -1.
         23    2    1    2    0    0 -0.10801483956E+03 -0.11675272097E+02 -0.31373726682E+03  0.35476690473E+03  0.12499986623E+03 0.  0.
          5    1    3    3  502    0 -0.90581950299E+02 -0.24117571595E+02 -0.31874435363E+03  0.33227518708E+03  0.47000000000E+01 0.  1.
         -5    1    3    3    0  502 -0.17432889257E+02  0.12442299498E+02  0.50070868063E+01  0.22491717652E+02  0.47000000000E+01 0.  1.
        -11    1    1    2    0    0  0.75011827803E+02  0.43219756749E+02 -0.92827567825E+02  0.12693178889E+03  0.00000000000E+00 0.  1.
         11    1    1    2    0    0  0.33003011753E+02 -0.31544484652E+02 -0.12231378094E+03  0.13055617299E+03  0.00000000000E+00 0. -1.
<mgrwt>
<rscale>  0 0.15921834E+03</rscale>
<asrwt>0</asrwt>
<pdfrwt beam="2">  1        2 0.87779492E-01 0.16561547E+03</pdfrwt>
<pdfrwt beam="1">  1       -2 0.64135583E-02 0.16561547E+03</pdfrwt>
<totfact> 0.69382607E+03</totfact>
</mgrwt>
</event>
<event>
 7    1  0.5928109E-006  0.2151403E+03  0.7546771E-02  0.1140626E+00
          3   -1    0    0  501    0  0.00000000000E+00  0.00000000000E+00  0.12547442615E+04  0.12547442615E+04  0.00000000000E+00 0. -1.
         -3   -1    0    0    0  501 -0.00000000000E+00 -0.00000000000E+00 -0.36271845941E+02  0.36271845941E+02  0.00000000000E+00 0.  1.
         23    2    1    2    0    0 -0.30519542448E+02 -0.17241969498E+03  0.78096826543E+03  0.81005974465E+03  0.12500145842E+03 0.  0.
          5    1    3    3  502    0  0.27663012254E+02 -0.20789299749E+02  0.48361403935E+02  0.59651928901E+02  0.47000000000E+01 0.  1.
         -5    1    3    3    0  502 -0.58182554701E+02 -0.15163039523E+03  0.73260686150E+03  0.75040781575E+03  0.47000000000E+01 0.  1.
        -11    1    1    2    0    0  0.62312135364E+01 -0.10105347837E+02  0.57218178923E+02  0.58436855463E+02  0.00000000000E+00 0. -1.
         11    1    1    2    0    0  0.24288328911E+02  0.18252504282E+03  0.38028597120E+03  0.42251950732E+03  0.00000000000E+00 0.  1.
<mgrwt>
<rscale>  0 0.21119100E+03</rscale>
<asrwt>0</asrwt>
<pdfrwt beam="1">  1        3 0.19303755E+00 0.21514032E+03</pdfrwt>
<pdfrwt beam="2">  1       -3 0.55802850E-02 0.21514032E+03</pdfrwt>
<totfact> 0.83491781E+01</totfact>
</mgrwt>
</event>
<event>
 7    1  0.5928109E-006  0.1748911E+03  0.7546771E-02  0.1178940E+00
          2   -1    0    0  501    0  0.00000000000E+00  0.00000000000E+00  0.83553340334E+03  0.83553340334E+03  0.00000000000E+00 0. -1.
         -2   -1    0    0    0  501 -0.00000000000E+00 -0.00000000000E+00 -0.32038821283E+02  0.32038821283E+02  0.00000000000E+00 0.  1.
         23    2    1    2    0    0  0.78525754611E+02 -0.93802894138E+02  0.43075856778E+03  0.46490841500E+03  0.12498645338E+03 0.  0.
          5    1    3    3  502    0  0.52686743766E+02 -0.12374267268E+03  0.31711132552E+03  0.34448486873E+03  0.47000000000E+01 0. -1.
         -5    1    3    3    0  502  0.25839010844E+02  0.29939778547E+02  0.11364724227E+03  0.12042354627E+03  0.47000000000E+01 0. -1.
        -11    1    1    2    0    0 -0.65856388777E+01  0.24174473599E+02  0.11062523179E+02  0.27388961869E+02  0.00000000000E+00 0.  1.
         11    1    1    2    0    0 -0.71940115733E+02  0.69628420540E+02  0.36167349109E+03  0.37527484775E+03  0.00000000000E+00 0. -1.
<mgrwt>
<rscale>  0 0.16895685E+03</rscale>
<asrwt>0</asrwt>
<pdfrwt beam="1">  1        2 0.12854358E+00 0.17489108E+03</pdfrwt>
<pdfrwt beam="2">  1       -2 0.49290501E-02 0.17489108E+03</pdfrwt>
<totfact> 0.65725781E+03</totfact>
</mgrwt>
</event>
<event>
 7    1  0.5928109E-006  0.1311765E+03  0.7546771E-02  0.1237846E+00
         -1   -1    0    0    0  501 -0.00000000000E+00  0.00000000000E+00  0.29528366027E+02  0.29528366027E+02  0.00000000000E+00 0.  1.
          1   -1    0    0  501    0  0.00000000000E+00 -0.00000000000E+00 -0.47760816166E+03  0.47760816166E+03  0.00000000000E+00 0. -1.
         23    2    1    2    0    0 -0.35956748206E+02 -0.17008788039E+02 -0.29768010212E+03  0.32530098381E+03  0.12500040104E+03 0.  0.
          5    1    3    3  502    0  0.97404952805E+01 -0.19015781822E+02 -0.27151667033E+03  0.27239652985E+03  0.47000000000E+01 0.  1.
         -5    1    3    3    0  502 -0.45697243487E+02  0.20069937830E+01 -0.26163431787E+02  0.52904453964E+02  0.47000000000E+01 0.  1.
        -11    1    1    2    0    0  0.60732694317E+02 -0.23121769735E+01 -0.57116180647E+02  0.83403024005E+02  0.00000000000E+00 0.  1.
         11    1    1    2    0    0 -0.24775946111E+02  0.19320965013E+02 -0.93283512867E+02  0.98432519868E+02  0.00000000000E+00 0. -1.
<mgrwt>
<rscale>  0 0.12323981E+03</rscale>
<asrwt>0</asrwt>
<pdfrwt beam="2">  1        1 0.73478182E-01 0.13117655E+03</pdfrwt>
<pdfrwt beam="1">  1       -1 0.45428253E-02 0.13117655E+03</pdfrwt>
<totfact> 0.92769754E+03</totfact>
</mgrwt>
</event>
<event>
 7    1  0.5928109E-006  0.1337577E+03  0.7546771E-02  0.1238879E+00
          2   -1    0    0  501    0  0.00000000000E+00  0.00000000000E+00  0.24327748317E+03  0.24327748317E+03  0.00000000000E+00 0. -1.
         -2   -1    0    0    0  501 -0.00000000000E+00 -0.00000000000E+00 -0.53761809150E+02  0.53761809150E+02  0.00000000000E+00 0.  1.
         23    2    1    2    0    0  0.41154362159E+02 -0.23931038532E+02  0.12146803505E+03  0.18068096172E+03  0.12499900104E+03 0.  0.
          5    1    3    3  502    0  0.19922077585E+02  0.51322058587E+02  0.54782185081E+02  0.77807587516E+02  0.47000000000E+01 0.  1.
         -5    1    3    3    0  502  0.21232284574E+02 -0.75253097119E+02  0.66685849966E+02  0.10287337420E+03  0.47000000000E+01 0.  1.
        -11    1    1    2    0    0 -0.12630527136E+02  0.51170767805E+02  0.51162872217E+02  0.73454864964E+02  0.00000000000E+00 0.  1.
         11    1    1    2    0    0 -0.28523835023E+02 -0.27239729273E+02  0.16884766759E+02  0.42903465638E+02  0.00000000000E+00 0. -1.
<mgrwt>
<rscale>  0 0.12259321E+03</rscale>
<asrwt>0</asrwt>
<pdfrwt beam="1">  1        2 0.37427304E-01 0.13375772E+03</pdfrwt>
<pdfrwt beam="2">  1       -2 0.82710477E-02 0.13375772E+03</pdfrwt>
<totfact> 0.11597935E+04</totfact>
</mgrwt>
</event>
<event>
 7    1  0.5928109E-006  0.1302661E+03  0.7546771E-02  0.1242124E+00
          1   -1    0    0  501    0  0.00000000000E+00  0.00000000000E+00  0.11570778966E+03  0.11570778966E+03  0.00000000000E+00 0. -1.
         -1   -1    0    0    0  501 -0.00000000000E+00 -0.00000000000E+00 -0.12619004041E+03  0.12619004041E+03  0.00000000000E+00 0.  1.
         23    2    1    2    0    0 -0.35568009604E+02 -0.88844667698E+01  0.36543254550E+02  0.13529471074E+03  0.12500092897E+03 0.  0.
          5    1    3    3  502    0 -0.42972903657E+02  0.22732816865E+02 -0.32626768132E+02  0.58737104202E+02  0.47000000000E+01 0.  1.
         -5    1    3    3    0  502  0.74048940527E+01 -0.31617283635E+02  0.69170022682E+02  0.76557606534E+02  0.47000000000E+01 0.  1.
        -11    1    1    2    0    0  0.48278214523E+02  0.37167757906E+02 -0.44586139768E+02  0.75499351551E+02  0.00000000000E+00 0.  1.
         11    1    1    2    0    0 -0.12710204918E+02 -0.28283291136E+02 -0.24393655325E+01  0.31103767790E+02  0.00000000000E+00 0. -1.
<mgrwt>
<rscale>  0 0.12059183E+03</rscale>
<asrwt>0</asrwt>
<pdfrwt beam="1">  1        1 0.17801198E-01 0.13026607E+03</pdfrwt>
<pdfrwt beam="2">  1       -1 0.19413852E-01 0.13026607E+03</pdfrwt>
<totfact> 0.59689961E+03</totfact>
</mgrwt>
</event>
<event>
 7    1  0.5928109E-006  0.3152456E+03  0.7546771E-02  0.1079260E+00
         -1   -1    0    0    0  501 -0.00000000000E+00  0.00000000000E+00  0.10671914331E+03  0.10671914331E+03  0.00000000000E+00 0.  1.
          1   -1    0    0  501    0  0.00000000000E+00 -0.00000000000E+00 -0.10666082594E+04  0.10666082594E+04  0.00000000000E+00 0. -1.
         23    2    1    2    0    0 -0.19254970505E+03  0.21605147119E+03 -0.72151301080E+03  0.78737589869E+03  0.12500461575E+03 0.  0.
          5    1    3    3  502    0  0.44495950220E+01  0.22638299685E+02 -0.15917304397E+03  0.16090506342E+03  0.47000000000E+01 0.  1.
         -5    1    3    3    0  502 -0.19699930008E+03  0.19341317150E+03 -0.56233996684E+03  0.62647083527E+03  0.47000000000E+01 0.  1.
        -11    1    1    2    0    0  0.16798181961E+03 -0.14792837970E+03 -0.14078369450E+03  0.26442531247E+03  0.00000000000E+00 0.  1.
         11    1    1    2    0    0  0.24567885446E+02 -0.68123091488E+02 -0.97592410813E+02  0.12152619157E+03  0.00000000000E+00 0. -1.
<mgrwt>
<rscale>  0 0.31227706E+03</rscale>
<asrwt>0</asrwt>
<pdfrwt beam="2">  1        1 0.16409358E+00 0.31524559E+03</pdfrwt>
<pdfrwt beam="1">  1       -1 0.16418330E-01 0.31524559E+03</pdfrwt>
<totfact> 0.39693700E+02</totfact>
</mgrwt>
</event>
<event>
 7    1  0.5928109E-006  0.1272844E+03  0.7546771E-02  0.1245706E+00
          1   -1    0    0  501    0  0.00000000000E+00  0.00000000000E+00  0.17503466386E+03  0.17503466386E+03  0.00000000000E+00 0. -1.
         -1   -1    0    0    0  501 -0.00000000000E+00 -0.00000000000E+00 -0.10279602577E+03  0.10279602577E+03  0.00000000000E+00 0.  1.
         23    2    1    2    0    0 -0.25659089223E+02  0.68321443920E+01  0.11660249586E+03  0.17261942433E+03  0.12448396105E+03 0.  0.
          5    1    3    3  502    0 -0.75948856734E+02 -0.84591197925E+00  0.73041068742E+02  0.10548000820E+03  0.47000000000E+01 0. -1.
         -5    1    3    3    0  502  0.50289767511E+02  0.76780563713E+01  0.43561427122E+02  0.67139416134E+02  0.47000000000E+01 0.  1.
        -11    1    1    2    0    0 -0.11347356406E+02 -0.26723286272E+02 -0.54715791529E+02  0.61941217047E+02  0.00000000000E+00 0.  1.
         11    1    1    2    0    0  0.37006445629E+02  0.19891141880E+02  0.10351933760E+02  0.43270048255E+02  0.00000000000E+00 0. -1.
<mgrwt>
<rscale>  0 0.11843201E+03</rscale>
<asrwt>0</asrwt>
<pdfrwt beam="1">  1        1 0.26928410E-01 0.12728442E+03</pdfrwt>
<pdfrwt beam="2">  1       -1 0.15814773E-01 0.12728442E+03</pdfrwt>
<totfact> 0.48904684E+03</totfact>
</mgrwt>
</event>
<event>
 7    1  0.5928109E-006  0.1347829E+03  0.7546771E-02  0.1233703E+00
          2   -1    0    0  501    0  0.00000000000E+00  0.00000000000E+00  0.36702045203E+03  0.36702045203E+03  0.00000000000E+00 0. -1.
         -2   -1    0    0    0  501 -0.00000000000E+00 -0.00000000000E+00 -0.45451604569E+02  0.45451604569E+02  0.00000000000E+00 0.  1.
         23    2    1    2    0    0 -0.48959039833E+02  0.12202997219E+02  0.26002148220E+03  0.29287813370E+03  0.12498211580E+03 0.  0.
          5    1    3    3  502    0  0.19755247628E+02 -0.30798437346E+02  0.25895153486E+02  0.45071748644E+02  0.47000000000E+01 0.  1.
         -5    1    3    3    0  502 -0.68714287461E+02  0.43001434565E+02  0.23412632871E+03  0.24780638505E+03  0.47000000000E+01 0.  1.
        -11    1    1    2    0    0  0.37702730829E+02  0.11171801207E+02 -0.12396496266E+02  0.41230791575E+02  0.00000000000E+00 0.  1.
         11    1    1    2    0    0  0.11256309004E+02 -0.23374798425E+02  0.73943861525E+02  0.78363131325E+02  0.00000000000E+00 0. -1.
<mgrwt>
<rscale>  0 0.12587815E+03</rscale>
<asrwt>0</asrwt>
<pdfrwt beam="1">  1        2 0.56464683E-01 0.13478290E+03</pdfrwt>
<pdfrwt beam="2">  1       -2 0.69925548E-02 0.13478290E+03</pdfrwt>
<totfact> 0.97123269E+03</totfact>
</mgrwt>
</event>
<event>
 7    1  0.5928109E-006  0.1273432E+03  0.7546771E-02  0.1249377E+00
         -4   -1    0    0    0  501 -0.00000000000E+00  0.00000000000E+00  0.24807934192E+03  0.24807934192E+03  0.00000000000E+00 0.  1.
          4   -1    0    0  501    0  0.00000000000E+00 -0.00000000000E+00 -0.88797692537E+02  0.88797692537E+02  0.00000000000E+00 0. -1.
         23    2    1    2    0    0 -0.22968674051E+02  0.79711004440E+01 -0.27417548469E+02  0.13026135382E+03  0.12500079962E+03 0.  0.
          5    1    3    3  502    0  0.31557588877E+02 -0.22709180105E+02 -0.50060719815E+02  0.63559058718E+02  0.47000000000E+01 0. -1.
         -5    1    3    3    0  502 -0.54526262927E+02  0.30680280549E+02  0.22643171347E+02  0.66702295103E+02  0.47000000000E+01 0. -1.
        -11    1    1    2    0    0 -0.24751336405E+02  0.15477264668E+02  0.10622357182E+03  0.11016179731E+03  0.00000000000E+00 0.  1.
         11    1    1    2    0    0  0.47720010456E+02 -0.23448365112E+02  0.80475626034E+02  0.96453883332E+02  0.00000000000E+00 0. -1.
<mgrwt>
<rscale>  0 0.11627224E+03</rscale>
<asrwt>0</asrwt>
<pdfrwt beam="2">  1        4 0.13661184E-01 0.12734323E+03</pdfrwt>
<pdfrwt beam="1">  1       -4 0.38166052E-01 0.12734323E+03</pdfrwt>
<totfact> 0.48536236E+02</totfact>
</mgrwt>
</event>
<event>
 7    1  0.5928109E-006  0.1268329E+03  0.7546771E-02  0.1245985E+00
         -2   -1    0    0    0  501 -0.00000000000E+00  0.00000000000E+00  0.13295333440E+02  0.13295333440E+02  0.00000000000E+00 0.  1.
          2   -1    0    0  501    0  0.00000000000E+00 -0.00000000000E+00 -0.93722555413E+03  0.93722555413E+03  0.00000000000E+00 0. -1.
         23    2    1    2    0    0 -0.12853975952E+02  0.17226851812E+02 -0.55848868790E+03  0.57270951991E+03  0.12499836225E+03 0.  0.
          5    1    3    3  502    0 -0.12566674567E+02  0.42814718554E+02 -0.67618481405E+02  0.81150295514E+02  0.47000000000E+01 0. -1.
         -5    1    3    3    0  502 -0.28730138568E+00 -0.25587866742E+02 -0.49087020649E+03  0.49155922439E+03  0.47000000000E+01 0. -1.
        -11    1    1    2    0    0 -0.39091916740E+02 -0.16459776649E+02 -0.13152720467E+03  0.13819735081E+03  0.00000000000E+00 0.  1.
         11    1    1    2    0    0  0.51945892692E+02 -0.76707516305E+00 -0.23391432812E+03  0.23961401686E+03  0.00000000000E+00 0. -1.
<mgrwt>
<rscale>  0 0.11826642E+03</rscale>
<asrwt>0</asrwt>
<pdfrwt beam="2">  1        2 0.14418857E+00 0.12683288E+03</pdfrwt>
<pdfrwt beam="1">  1       -2 0.20454356E-02 0.12683288E+03</pdfrwt>
<totfact> 0.20358388E+04</totfact>
</mgrwt>
</event>
<event>
 7    1  0.5928109E-006  0.1433106E+03  0.7546771E-02  0.1218844E+00
         -2   -1    0    0    0  501 -0.00000000000E+00  0.00000000000E+00  0.94163605662E+02  0.94163605662E+02  0.00000000000E+00 0. -1.
          2   -1    0    0  501    0  0.00000000000E+00 -0.00000000000E+00 -0.17880968281E+03  0.17880968281E+03  0.00000000000E+00 0.  1.
         23    2    1    2    0    0 -0.67313697984E+02 -0.19542232366E+02 -0.44129107710E+02  0.14995099724E+03  0.12499956258E+03 0.  0.
          5    1    3    3  502    0 -0.26979329792E+02  0.50173641012E+02 -0.38819605914E+02  0.69096528797E+02  0.47000000000E+01 0.  1.
         -5    1    3    3    0  502 -0.40334368192E+02 -0.69715873378E+02 -0.53095017960E+01  0.80854468445E+02  0.47000000000E+01 0.  1.
        -11    1    1    2    0    0 -0.10257649501E+02  0.13499708576E+02  0.18702040071E+02  0.25243371561E+02  0.00000000000E+00 0. -1.
         11    1    1    2    0    0  0.77571347486E+02  0.60425237897E+01 -0.59219009508E+02  0.97778919669E+02  0.00000000000E+00 0.  1.
<mgrwt>
<rscale>  0 0.13597895E+03</rscale>
<asrwt>0</asrwt>
<pdfrwt beam="2">  1        2 0.27509182E-01 0.14331058E+03</pdfrwt>
<pdfrwt beam="1">  1       -2 0.14486709E-01 0.14331058E+03</pdfrwt>
<totfact> 0.66807640E+03</totfact>
</mgrwt>
</event>
<event>
 7    1  0.5928109E-006  0.1250167E+03  0.7546771E-02  0.1249305E+00
          2   -1    0    0  501    0  0.00000000000E+00  0.00000000000E+00  0.46839238514E+03  0.46839238514E+03  0.00000000000E+00 0. -1.
         -2   -1    0    0    0  501 -0.00000000000E+00 -0.00000000000E+00 -0.27884922051E+02  0.27884922051E+02  0.00000000000E+00 0.  1.
         23    2    1    2    0    0  0.16854386552E+01 -0.39554386775E+00  0.32063542505E+03  0.34414569071E+03  0.12500473382E+03 0.  0.
          5    1    3    3  502    0 -0.57321579290E+02 -0.50123012206E+01  0.21857981462E+03  0.22607545638E+03  0.47000000000E+01 0.  1.
         -5    1    3    3    0  502  0.59007017945E+02  0.46167573528E+01  0.10205561042E+03  0.11807023433E+03  0.47000000000E+01 0.  1.
        -11    1    1    2    0    0  0.10399039041E+02  0.19629612837E+02  0.12652645824E+03  0.12846169214E+03  0.00000000000E+00 0. -1.
         11    1    1    2    0    0 -0.12084477696E+02 -0.19234068970E+02 -0.66544201973E+01  0.23669924345E+02  0.00000000000E+00 0.  1.
<mgrwt>
<rscale>  0 0.11631354E+03</rscale>
<asrwt>0</asrwt>
<pdfrwt beam="1">  1        2 0.72060362E-01 0.12501672E+03</pdfrwt>
<pdfrwt beam="2">  1       -2 0.42899883E-02 0.12501672E+03</pdfrwt>
<totfact> 0.15529042E+04</totfact>
</mgrwt>
</event>
<event>
 7    1  0.5928109E-006  0.1573849E+03  0.7546771E-02  0.1199445E+00
         -2   -1    0    0    0  501 -0.00000000000E+00  0.00000000000E+00  0.54975610613E+02  0.54975610613E+02  0.00000000000E+00 0.  1.
          2   -1    0    0  501    0  0.00000000000E+00 -0.00000000000E+00 -0.53377193910E+03  0.53377193910E+03  0.00000000000E+00 0. -1.
         23    2    1    2    0    0  0.89984584643E+02  0.32381058496E+02 -0.41005041581E+03  0.43921673213E+03  0.12499694338E+03 0.  0.
          5    1    3    3  502    0  0.45489506125E+02  0.62737160047E+02 -0.11184515792E+03  0.13614946114E+03  0.47000000000E+01 0. -1.
         -5    1    3    3    0  502  0.44495078518E+02 -0.30356101551E+02 -0.29820525789E+03  0.30306727099E+03  0.47000000000E+01 0. -1.
        -11    1    1    2    0    0  0.66066516423E+01  0.20071747253E+02 -0.20678770998E+02  0.29565764892E+02  0.00000000000E+00 0. -1.
         11    1    1    2    0    0 -0.96591236285E+02 -0.52452805749E+02 -0.48067141684E+02  0.11996505269E+03  0.00000000000E+00 0.  1.
<mgrwt>
<rscale>  0 0.15083927E+03</rscale>
<asrwt>0</asrwt>
<pdfrwt beam="2">  1        2 0.82118757E-01 0.15738486E+03</pdfrwt>
<pdfrwt beam="1">  1       -2 0.84577866E-02 0.15738486E+03</pdfrwt>
<totfact> 0.48683489E+03</totfact>
</mgrwt>
</event>
<event>
 7    1  0.5928109E-006  0.1313928E+03  0.7546771E-02  0.1238191E+00
          2   -1    0    0  501    0  0.00000000000E+00  0.00000000000E+00  0.97644354409E+03  0.97644354409E+03  0.00000000000E+00 0.  1.
         -2   -1    0    0    0  501 -0.00000000000E+00 -0.00000000000E+00 -0.14843318225E+02  0.14843318225E+02  0.00000000000E+00 0. -1.
         23    2    1    2    0    0 -0.23005746586E+02  0.33227105729E+02  0.66819972924E+03  0.68099555369E+03  0.12502304212E+03 0.  0.
          5    1    3    3  502    0  0.47751172025E+02  0.91638863432E+01  0.38404117078E+03  0.38713545704E+03  0.47000000000E+01 0. -1.
         -5    1    3    3    0  502 -0.70756918612E+02  0.24063219385E+02  0.28415855846E+03  0.29386009665E+03  0.47000000000E+01 0. -1.
        -11    1    1    2    0    0 -0.26093419055E+02 -0.34530310966E+00  0.27528740588E+02  0.37931745420E+02  0.00000000000E+00 0.  1.
         11    1    1    2    0    0  0.49099165642E+02 -0.32881802619E+02  0.26587175604E+03  0.27235956321E+03  0.00000000000E+00 0. -1.
<mgrwt>
<rscale>  0 0.12302316E+03</rscale>
<asrwt>0</asrwt>
<pdfrwt beam="1">  1        2 0.15022203E+00 0.13139279E+03</pdfrwt>
<pdfrwt beam="2">  1       -2 0.22835882E-02 0.13139279E+03</pdfrwt>
<totfact> 0.16461945E+04</totfact>
</mgrwt>
</event>
<event>
 7    1  0.5928109E-006  0.1584372E+03  0.7546771E-02  0.1199111E+00
          1   -1    0    0  501    0  0.00000000000E+00  0.00000000000E+00  0.14553096142E+03  0.14553096142E+03  0.00000000000E+00 0. -1.
         -1   -1    0    0    0  501 -0.00000000000E+00 -0.00000000000E+00 -0.29800871705E+03  0.29800871705E+03  0.00000000000E+00 0.  1.
         23    2    1    2    0    0  0.49418514843E+01 -0.97215096352E+02  0.79355065153E+02  0.17719926151E+03  0.12500861993E+03 0.  0.
          5    1    3    3  502    0  0.47689432865E+02 -0.49868599660E+02 -0.72445953065E+01  0.69539437733E+02  0.47000000000E+01 0.  1.
         -5    1    3    3    0  502 -0.42747581381E+02 -0.47346496691E+02  0.86599660459E+02  0.10765982377E+03  0.47000000000E+01 0.  1.
        -11    1    1    2    0    0  0.34967089510E+02  0.71676666948E+02 -0.11210461449E+03  0.13757792891E+03  0.00000000000E+00 0.  1.
         11    1    1    2    0    0 -0.39908940995E+02  0.25538429404E+02 -0.11972820629E+03  0.12876248805E+03  0.00000000000E+00 0. -1.
<mgrwt>
<rscale>  0 0.15111403E+03</rscale>
<asrwt>0</asrwt>
<pdfrwt beam="1">  1        1 0.22389379E-01 0.15843722E+03</pdfrwt>
<pdfrwt beam="2">  1       -1 0.45847495E-01 0.15843722E+03</pdfrwt>
<totfact> 0.10545879E+03</totfact>
</mgrwt>
</event>
<event>
 7    1  0.5928109E-006  0.1363051E+03  0.7546771E-02  0.1230343E+00
         -1   -1    0    0    0  501 -0.00000000000E+00  0.00000000000E+00  0.11517874482E+02  0.11517874482E+02  0.00000000000E+00 0.  1.
          1   -1    0    0  501    0  0.00000000000E+00 -0.00000000000E+00 -0.16152257475E+04  0.16152257475E+04  0.00000000000E+00 0. -1.
         23    2    1    2    0    0 -0.18497366073E+01 -0.54297485108E+02 -0.12504008377E+04  0.12578081495E+04  0.12500979014E+03 0.  0.
          5    1    3    3  502    0 -0.59432829638E+02 -0.32489721508E+02 -0.45808426160E+03  0.46308867830E+03  0.47000000000E+01 0.  1.
         -5    1    3    3    0  502  0.57583093030E+02 -0.21807763600E+02 -0.79231657609E+03  0.79471947120E+03  0.47000000000E+01 0.  1.
        -11    1    1    2    0    0  0.44396497532E+02  0.22220656587E+02 -0.12511959751E+03  0.13460951026E+03  0.00000000000E+00 0.  1.
         11    1    1    2    0    0 -0.42546760924E+02  0.32076828521E+02 -0.22818743781E+03  0.23432596221E+03  0.00000000000E+00 0. -1.
<mgrwt>
<rscale>  0 0.12807340E+03</rscale>
<asrwt>0</asrwt>
<pdfrwt beam="2">  1        1 0.24849623E+00 0.13630512E+03</pdfrwt>
<pdfrwt beam="1">  1       -1 0.17719809E-02 0.13630512E+03</pdfrwt>
<totfact> 0.48446661E+03</totfact>
</mgrwt>
</event>
<event>
 7    1  0.5928109E-006  0.1301928E+03  0.7546771E-02  0.1241920E+00
         -1   -1    0    0    0  501 -0.00000000000E+00  0.00000000000E+00  0.15848383517E+02  0.15848383517E+02  0.00000000000E+00 0. -1.
          1   -1    0    0  501    0  0.00000000000E+00 -0.00000000000E+00 -0.91115583026E+03  0.91115583026E+03  0.00000000000E+00 0.  1.
         23    2    1    2    0    0 -0.26911538825E+02 -0.24532134914E+02 -0.66111676831E+03  0.67381418296E+03  0.12499646094E+03 0.  0.
          5    1    3    3  502    0 -0.43193628322E+02 -0.68847097909E+02 -0.36941519712E+03  0.37827938125E+03  0.47000000000E+01 0. -1.
         -5    1    3    3    0  502  0.16282089497E+02  0.44314962995E+02 -0.29170157119E+03  0.29553480170E+03  0.47000000000E+01 0. -1.
        -11    1    1    2    0    0  0.52908953584E+01  0.56669908835E+02 -0.12547669449E+03  0.13778197633E+03  0.00000000000E+00 0.  1.
         11    1    1    2    0    0  0.21620643467E+02 -0.32137773920E+02 -0.10871398394E+03  0.11540805449E+03  0.00000000000E+00 0. -1.
<mgrwt>
<rscale>  0 0.12071637E+03</rscale>
<asrwt>0</asrwt>
<pdfrwt beam="2">  1        1 0.14017784E+00 0.13019283E+03</pdfrwt>
<pdfrwt beam="1">  1       -1 0.24382126E-02 0.13019283E+03</pdfrwt>
<totfact> 0.92227518E+03</totfact>
</mgrwt>
</event>
<event>
 7    1  0.5928109E-006  0.1302383E+03  0.7546771E-02  0.1240677E+00
          1   -1    0    0  501    0  0.00000000000E+00  0.00000000000E+00  0.26482644434E+03  0.26482644434E+03  0.00000000000E+00 0. -1.
         -1   -1    0    0    0  501 -0.00000000000E+00 -0.00000000000E+00 -0.58418194252E+02  0.58418194252E+02  0.00000000000E+00 0.  1.
         23    2    1    2    0    0 -0.36100999101E+02  0.57673421289E+01  0.17817698457E+03  0.22070125722E+03  0.12500185092E+03 0.  0.
          5    1    3    3  502    0  0.37263900628E+02  0.34774401595E+02  0.72016033316E+02  0.88353021176E+02  0.47000000000E+01 0. -1.
         -5    1    3    3    0  502 -0.73364899729E+02 -0.29007059466E+02  0.10616095126E+03  0.13234823604E+03  0.47000000000E+01 0. -1.
        -11    1    1    2    0    0  0.18382658930E+02 -0.16532298145E+01 -0.33467333715E+02  0.38219337306E+02  0.00000000000E+00 0.  1.
         11    1    1    2    0    0  0.17718340171E+02 -0.41141123143E+01  0.61698599231E+02  0.64324044070E+02  0.00000000000E+00 0. -1.
<mgrwt>
<rscale>  0 0.12147918E+03</rscale>
<asrwt>0</asrwt>
<pdfrwt beam="1">  1        1 0.40742529E-01 0.13023827E+03</pdfrwt>
<pdfrwt beam="2">  1       -1 0.89874146E-02 0.13023827E+03</pdfrwt>
<totfact> 0.70061734E+03</totfact>
</mgrwt>
</event>
<event>
 7    1  0.5928109E-006  0.1755515E+03  0.7546771E-02  0.1178006E+00
         -3   -1    0    0    0  501 -0.00000000000E+00  0.00000000000E+00  0.21123147353E+02  0.21123147353E+02  0.00000000000E+00 0.  1.
          3   -1    0    0  501    0  0.00000000000E+00 -0.00000000000E+00 -0.18201707531E+04  0.18201707531E+04  0.00000000000E+00 0. -1.
         23    2    1    2    0    0 -0.30782272951E+02 -0.11935580348E+03 -0.14402788570E+04  0.14509381558E+04  0.12499995949E+03 0.  0.
          5    1    3    3  502    0 -0.40131805350E+02 -0.36880227361E+02 -0.10718747168E+04  0.10732698689E+04  0.47000000000E+01 0.  1.
         -5    1    3    3    0  502  0.93495323995E+01 -0.82475576122E+02 -0.36840414024E+03  0.37766828694E+03  0.47000000000E+01 0.  1.
        -11    1    1    2    0    0  0.63909004781E+02  0.77919853635E+02 -0.23490200650E+03  0.25560676271E+03  0.00000000000E+00 0. -1.
         11    1    1    2    0    0 -0.33126731830E+02  0.41435949849E+02 -0.12386674223E+03  0.13474898193E+03  0.00000000000E+00 0.  1.
<mgrwt>
<rscale>  0 0.16984833E+03</rscale>
<asrwt>0</asrwt>
<pdfrwt beam="2">  1        3 0.28002622E+00 0.17555155E+03</pdfrwt>
<pdfrwt beam="1">  1       -3 0.32497156E-02 0.17555155E+03</pdfrwt>
<totfact> 0.62818803E+01</totfact>
</mgrwt>
</event>
<event>
 6    1  0.5928109E-006  0.1888956E+03  0.7546771E-02  0.1185939E+00
         -1   -1    0    0    0  501 -0.00000000000E+00  0.00000000000E+00  0.93924352320E+02  0.93924352320E+02  0.00000000000E+00 0.  1.
          1   -1    0    0  501    0  0.00000000000E+00 -0.00000000000E+00 -0.12800646035E+04  0.12800646035E+04  0.00000000000E+00 0. -1.
          5    1    1    2  502    0 -0.54510236782E+00 -0.10261674335E+03 -0.11042116020E+04  0.11089796415E+04  0.47000000000E+01 0. -1.
         -5    1    1    2    0  502  0.96217313650E+01  0.50990574780E+02 -0.13793109024E+03  0.14744386079E+03  0.47000000000E+01 0.  1.
        -11    1    1    2    0    0 -0.27364334234E+02  0.70001895782E+00  0.57231992240E+02  0.63441293732E+02  0.00000000000E+00 0. -1.
         11    1    1    2    0    0  0.18287705236E+02  0.50926149607E+02 -0.12295511190E+01  0.54124159787E+02  0.00000000000E+00 0.  1.
<mgrwt>
<rscale>  0 0.16246696E+03</rscale>
<asrwt>0</asrwt>
<pdfrwt beam="2">  1        1 0.19693301E+00 0.18889560E+03</pdfrwt>
<pdfrwt beam="1">  1       -1 0.14449901E-01 0.18889560E+03</pdfrwt>
<totfact> 0.35014448E+02</totfact>
</mgrwt>
</event>
<event>
 7    1  0.5928109E-006  0.1526574E+03  0.7546771E-02  0.1205707E+00
          2   -1    0    0  501    0  0.00000000000E+00  0.00000000000E+00  0.19627472741E+04  0.19627472741E+04  0.00000000000E+00 0. -1.
         -2   -1    0    0    0  501 -0.00000000000E+00 -0.00000000000E+00 -0.19199220287E+02  0.19199220287E+02  0.00000000000E+00 0.  1.
         23    2    1    2    0    0  0.22806177976E+02  0.84475274514E+02  0.17035518768E+04  0.17103781097E+04  0.12509231542E+03 0.  0.
          5    1    3    3  502    0 -0.55558962258E+01  0.10963667538E+03  0.10562382336E+04  0.10619380230E+04  0.47000000000E+01 0. -1.
         -5    1    3    3    0  502  0.28362074202E+02 -0.25161400869E+02  0.64731364320E+03  0.64844008669E+03  0.47000000000E+01 0. -1.
        -11    1    1    2    0    0  0.29455982626E+02 -0.79838850893E+01  0.33931073072E+02  0.45636773039E+02  0.00000000000E+00 0.  1.
         11    1    1    2    0    0 -0.52262160602E+02 -0.76491389425E+02  0.20606510394E+03  0.22593161166E+03  0.00000000000E+00 0. -1.
<mgrwt>
<rscale>  0 0.14581898E+03</rscale>
<asrwt>0</asrwt>
<pdfrwt beam="1">  1        2 0.30196096E+00 0.15265740E+03</pdfrwt>
<pdfrwt beam="2">  1       -2 0.29537278E-02 0.15265740E+03</pdfrwt>
<totfact> 0.33690862E+03</totfact>
</mgrwt>
</event>
<event>
 7    1  0.5928109E-006  0.1467995E+03  0.7546771E-02  0.1214675E+00
          1   -1    0    0  501    0  0.00000000000E+00  0.00000000000E+00  0.35662197235E+03  0.35662197235E+03  0.00000000000E+00 0. -1.
         -1   -1    0    0    0  501 -0.00000000000E+00 -0.00000000000E+00 -0.63413961235E+02  0.63413961235E+02  0.00000000000E+00 0.  1.
         23    2    1    2    0    0  0.39788692559E-02 -0.76844236173E+02  0.25806863448E+03  0.29689984127E+03  0.12508021026E+03 0.  0.
          5    1    3    3  502    0  0.12735231326E+02  0.66120528773E+01  0.18362741806E+03  0.18424718186E+03  0.47000000000E+01 0. -1.
         -5    1    3    3    0  502 -0.12731252456E+02 -0.83456289050E+02  0.74441216418E+02  0.11265265941E+03  0.47000000000E+01 0. -1.
        -11    1    1    2    0    0  0.16877212326E+02  0.88691586047E+02  0.44304084719E+02  0.10056783608E+03  0.00000000000E+00 0.  1.
         11    1    1    2    0    0 -0.16881191196E+02 -0.11847349874E+02 -0.91647080788E+01  0.22568256233E+02  0.00000000000E+00 0. -1.
<mgrwt>
<rscale>  0 0.13900437E+03</rscale>
<asrwt>0</asrwt>
<pdfrwt beam="1">  1        1 0.54864917E-01 0.14679951E+03</pdfrwt>
<pdfrwt beam="2">  1       -1 0.97559943E-02 0.14679951E+03</pdfrwt>
<totfact> 0.43048633E+03</totfact>
</mgrwt>
</event>
<event>
 7    1  0.5928109E-006  0.1283398E+03  0.7546771E-02  0.1243334E+00
          1   -1    0    0  501    0  0.00000000000E+00  0.00000000000E+00  0.76852632978E+03  0.76852632978E+03  0.00000000000E+00 0. -1.
         -1   -1    0    0    0  501 -0.00000000000E+00 -0.00000000000E+00 -0.17746757983E+02  0.17746757983E+02  0.00000000000E+00 0.  1.
         23    2    1    2    0    0 -0.23886511432E+02 -0.16537171071E+02  0.52179686152E+03  0.53734819401E+03  0.12500829354E+03 0.  0.
          5    1    3    3  502    0  0.43747749398E+02  0.20860187200E+02  0.15502212547E+03  0.16248988391E+03  0.47000000000E+01 0. -1.
         -5    1    3    3    0  502 -0.67634260830E+02 -0.37397358271E+02  0.36677473605E+03  0.37485831010E+03  0.47000000000E+01 0. -1.
        -11    1    1    2    0    0 -0.80102984342E+01  0.39010238002E+02  0.18864908853E+03  0.19280674820E+03  0.00000000000E+00 0. -1.
         11    1    1    2    0    0  0.31896809866E+02 -0.22473066932E+02  0.40333621741E+02  0.56118145547E+02  0.00000000000E+00 0.  1.
<mgrwt>
<rscale>  0 0.11985626E+03</rscale>
<asrwt>0</asrwt>
<pdfrwt beam="1">  1        1 0.11823479E+00 0.12833985E+03</pdfrwt>
<pdfrwt beam="2">  1       -1 0.27302711E-02 0.12833985E+03</pdfrwt>
<totfact> 0.10158934E+04</totfact>
</mgrwt>
</event>
<event>
 7    1  0.5928109E-006  0.1306852E+03  0.7546771E-02  0.1230282E+00
          4   -1    0    0  501    0  0.00000000000E+00  0.00000000000E+00  0.75592965314E+02  0.75592965314E+02  0.00000000000E+00 0.  1.
         -4   -1    0    0    0  501 -0.00000000000E+00 -0.00000000000E+00 -0.20900756213E+03  0.20900756213E+03  0.00000000000E+00 0. -1.
         23    2    1    2    0    0 -0.35972739554E+02 -0.12615574357E+02 -0.70488180831E+02  0.14848302777E+03  0.12500174075E+03 0.  0.
          5    1    3    3  502    0  0.12070318646E+02 -0.48396403223E+02 -0.72774389243E+02  0.88352171262E+02  0.47000000000E+01 0.  1.
         -5    1    3    3    0  502 -0.48043058200E+02  0.35780828866E+02  0.22862084113E+01  0.60130856509E+02  0.47000000000E+01 0.  1.
        -11    1    1    2    0    0  0.55632278553E+02 -0.36203995140E+02 -0.23706462194E+02  0.70481742536E+02  0.00000000000E+00 0. -1.
         11    1    1    2    0    0 -0.19659538999E+02  0.48819569497E+02 -0.39219953789E+02  0.65635757135E+02  0.00000000000E+00 0.  1.
<mgrwt>
<rscale>  0 0.12811375E+03</rscale>
<asrwt>0</asrwt>
<pdfrwt beam="1">  1        4 0.11629687E-01 0.13068522E+03</pdfrwt>
<pdfrwt beam="2">  1       -4 0.32155009E-01 0.13068522E+03</pdfrwt>
<totfact> 0.89523023E+02</totfact>
</mgrwt>
</event>
<event>
 7    1  0.5928109E-006  0.1426827E+03  0.7546771E-02  0.1218791E+00
          2   -1    0    0  501    0  0.00000000000E+00  0.00000000000E+00  0.10985139741E+04  0.10985139741E+04  0.00000000000E+00 0. -1.
         -2   -1    0    0    0  501 -0.00000000000E+00 -0.00000000000E+00 -0.15654615592E+02  0.15654615592E+02  0.00000000000E+00 0.  1.
         23    2    1    2    0    0  0.59680744470E+02  0.34224941750E+02  0.65650567524E+03  0.67183186578E+03  0.12500086541E+03 0.  0.
          5    1    3    3  502    0  0.54079813909E+02 -0.37097523473E+02  0.40517124770E+03  0.41047129313E+03  0.47000000000E+01 0.  1.
         -5    1    3    3    0  502  0.56009305612E+01  0.71322465223E+02  0.25133442754E+03  0.26136057265E+03  0.47000000000E+01 0.  1.
        -11    1    1    2    0    0 -0.81711801311E+02 -0.24917876786E+02  0.38674592111E+03  0.39606833571E+03  0.00000000000E+00 0. -1.
         11    1    1    2    0    0  0.22031056841E+02 -0.93070649641E+01  0.39607762157E+02  0.46268388203E+02  0.00000000000E+00 0.  1.
<mgrwt>
<rscale>  0 0.13601727E+03</rscale>
<asrwt>0</asrwt>
<pdfrwt beam="1">  1        2 0.16900209E+00 0.14268270E+03</pdfrwt>
<pdfrwt beam="2">  1       -2 0.24084032E-02 0.14268270E+03</pdfrwt>
<totfact> 0.12980243E+04</totfact>
</mgrwt>
</event>
<event>
 7    1  0.5928109E-006  0.1454165E+03  0.7546771E-02  0.1216103E+00
          1   -1    0    0  501    0  0.00000000000E+00  0.00000000000E+00  0.69514732425E+02  0.69514732425E+02  0.00000000000E+00 0. -1.
         -1   -1    0    0    0  501 -0.00000000000E+00 -0.00000000000E+00 -0.25519133199E+03  0.25519133199E+03  0.00000000000E+00 0.  1.
         23    2    1    2    0    0 -0.74013316160E+02  0.37037537665E+01 -0.77544675927E+02  0.16480028633E+03  0.12511702062E+03 0.  0.
          5    1    3    3  502    0  0.20780870219E+02 -0.20039519642E+02  0.12524789910E+02  0.31818033830E+02  0.47000000000E+01 0. -1.
         -5    1    3    3    0  502 -0.94794186379E+02  0.23743273408E+02 -0.90069465837E+02  0.13298225250E+03  0.47000000000E+01 0. -1.
        -11    1    1    2    0    0 -0.11091816982E+02  0.14570461667E+02  0.31951470942E+01  0.18588591181E+02  0.00000000000E+00 0. -1.
         11    1    1    2    0    0  0.85105133143E+02 -0.18274215433E+02 -0.11132707073E+03  0.14131718691E+03  0.00000000000E+00 0.  1.
<mgrwt>
<rscale>  0 0.13795853E+03</rscale>
<asrwt>0</asrwt>
<pdfrwt beam="1">  1        1 0.10694574E-01 0.14541650E+03</pdfrwt>
<pdfrwt beam="2">  1       -1 0.39260205E-01 0.14541650E+03</pdfrwt>
<totfact> 0.36068428E+03</totfact>
</mgrwt>
</event>
<event>
 7    1  0.5928109E-006  0.3183958E+03  0.7546771E-02  0.1077754E+00
         -2   -1    0    0    0  501 -0.00000000000E+00  0.00000000000E+00  0.68675530061E+03  0.68675530061E+03  0.00000000000E+00 0.  1.
          2   -1    0    0  501    0  0.00000000000E+00 -0.00000000000E+00 -0.33404017224E+03  0.33404017224E+03  0.00000000000E+00 0. -1.
         23    2    1    2    0    0  0.28851615693E+03 -0.50085716314E+02 -0.20890934797E+03  0.38081358380E+03  0.12500287258E+03 0.  0.
          5    1    3    3  502    0  0.23090945455E+02  0.31587425206E+02 -0.37702920013E+02  0.54539502846E+02  0.47000000000E+01 0. -1.
         -5    1    3    3    0  502  0.26542521148E+03 -0.81673141520E+02 -0.17120642795E+03  0.32627408096E+03  0.47000000000E+01 0. -1.
        -11    1    1    2    0    0 -0.17022301449E+03  0.34880880940E+02  0.23499410723E+03  0.29225807251E+03  0.00000000000E+00 0.  1.
         11    1    1    2    0    0 -0.11829314245E+03  0.15204835375E+02  0.32663036910E+03  0.34772381653E+03  0.00000000000E+00 0. -1.
<mgrwt>
<rscale>  0 0.31546833E+03</rscale>
<asrwt>0</asrwt>
<pdfrwt beam="2">  1        2 0.51390796E-01 0.31839578E+03</pdfrwt>
<pdfrwt beam="1">  1       -2 0.10565466E+00 0.31839578E+03</pdfrwt>
<totfact> 0.73580570E+01</totfact>
</mgrwt>
</event>
<event>
 6    1  0.5928109E-006  0.1363384E+03  0.7546771E-02  0.1234852E+00
          2   -1    0    0  501    0  0.00000000000E+00  0.00000000000E+00  0.54509479373E+03  0.54509479373E+03  0.00000000000E+00 0. -1.
         -2   -1    0    0    0  501 -0.00000000000E+00 -0.00000000000E+00 -0.11088208487E+03  0.11088208487E+03  0.00000000000E+00 0.  1.
          5    1    1    2  502    0 -0.70728005020E+02  0.22141694899E+02  0.23120848442E+03  0.24284183868E+03  0.47000000000E+01 0. -1.
         -5    1    1    2    0  502  0.45802798809E+02 -0.37368340671E+02  0.28203313810E+03  0.28819970550E+03  0.47000000000E+01 0.  1.
        -11    1    1    2    0    0 -0.11375945950E+01 -0.36582771432E+02 -0.18149736932E+02  0.40853472776E+02  0.00000000000E+00 0. -1.
         11    1    1    2    0    0  0.26062800806E+02  0.51809417205E+02 -0.60879176728E+02  0.84081861635E+02  0.00000000000E+00 0.  1.
<mgrwt>
<rscale>  0 0.12513883E+03</rscale>
<asrwt>0</asrwt>
<pdfrwt beam="1">  1        2 0.83860736E-01 0.13633840E+03</pdfrwt>
<pdfrwt beam="2">  1       -2 0.17058783E-01 0.13633840E+03</pdfrwt>
<totfact> 0.15375778E+03</totfact>
</mgrwt>
</event>
<event>
 6    1  0.5928109E-006  0.1409148E+03  0.7546771E-02  0.1230103E+00
         -1   -1    0    0    0  501 -0.00000000000E+00  0.00000000000E+00  0.30254412114E+02  0.30254412114E+02  0.00000000000E+00 0.  1.
          1   -1    0    0  501    0  0.00000000000E+00 -0.00000000000E+00 -0.47201260559E+03  0.47201260559E+03  0.00000000000E+00 0. -1.
          5    1    1    2  502    0 -0.35930560062E+02 -0.19202910370E+02 -0.29387640712E+03  0.29672409672E+03  0.47000000000E+01 0. -1.
         -5    1    1    2    0  502  0.23135163285E+02 -0.45246141686E+01  0.51243159539E+01  0.24577561466E+02  0.47000000000E+01 0.  1.
        -11    1    1    2    0    0 -0.21461470765E+02 -0.14469192324E+02 -0.79105755826E+01  0.27065281450E+02  0.00000000000E+00 0. -1.
         11    1    1    2    0    0  0.34256867542E+02  0.38196716863E+02 -0.14509552672E+03  0.15390007806E+03  0.00000000000E+00 0.  1.
<mgrwt>
<rscale>  0 0.12823213E+03</rscale>
<asrwt>0</asrwt>
<pdfrwt beam="2">  1        1 0.72617325E-01 0.14091482E+03</pdfrwt>
<pdfrwt beam="1">  1       -1 0.46545249E-02 0.14091482E+03</pdfrwt>
<totfact> 0.91320015E+03</totfact>
</mgrwt>
</event>
<event>
 7    1  0.5928109E-006  0.1494128E+03  0.7546771E-02  0.1212394E+00
         -2   -1    0    0    0  501 -0.00000000000E+00  0.00000000000E+00  0.59571351136E+02  0.59571351136E+02  0.00000000000E+00 0.  1.
          2   -1    0    0  501    0  0.00000000000E+00 -0.00000000000E+00 -0.52326776000E+03  0.52326776000E+03  0.00000000000E+00 0. -1.
         23    2    1    2    0    0 -0.77617994772E+02  0.32995345827E+02 -0.43771968810E+03  0.46251779838E+03  0.12333264980E+03 0.  0.
          5    1    3    3  502    0 -0.92035616406E+02  0.39159319711E+02 -0.43443154763E+03  0.44582156361E+03  0.47000000000E+01 0. -1.
         -5    1    3    3    0  502  0.14417621634E+02 -0.61639738837E+01 -0.32881404747E+01  0.16696234767E+02  0.47000000000E+01 0.  1.
        -11    1    1    2    0    0  0.56392145581E+02 -0.19473420194E+02  0.24046815951E+02  0.64323693416E+02  0.00000000000E+00 0.  1.
         11    1    1    2    0    0  0.21225849191E+02 -0.13521925633E+02 -0.50023536718E+02  0.55997619347E+02  0.00000000000E+00 0. -1.
<mgrwt>
<rscale>  0 0.14069716E+03</rscale>
<asrwt>0</asrwt>
<pdfrwt beam="2">  1        2 0.80502734E-01 0.14941281E+03</pdfrwt>
<pdfrwt beam="1">  1       -2 0.91648231E-02 0.14941281E+03</pdfrwt>
<totfact> 0.43807420E+03</totfact>
</mgrwt>
</event>
<event>
 6    1  0.5928109E-006  0.1671450E+03  0.7546771E-02  0.1206860E+00
         -2   -1    0    0    0  501 -0.00000000000E+00  0.00000000000E+00  0.77266793727E+02  0.77266793727E+02  0.00000000000E+00 0.  1.
          2   -1    0    0  501    0  0.00000000000E+00 -0.00000000000E+00 -0.29907968523E+03  0.29907968523E+03  0.00000000000E+00 0. -1.
          5    1    1    2  502    0 -0.93736652355E+02  0.22404017871E+02 -0.13014342390E+03  0.16201203904E+03  0.47000000000E+01 0. -1.
         -5    1    1    2    0  502  0.66941415397E+02 -0.22097261125E+02 -0.96685304281E+02  0.11974798582E+03  0.47000000000E+01 0.  1.
        -11    1    1    2    0    0  0.44119293819E+02 -0.27635259956E+02  0.23723886852E+02  0.57210510287E+02  0.00000000000E+00 0.  1.
         11    1    1    2    0    0 -0.17324056861E+02  0.27328503210E+02 -0.18708050178E+02  0.37375943805E+02  0.00000000000E+00 0. -1.
<mgrwt>
<rscale>  0 0.14491867E+03</rscale>
<asrwt>0</asrwt>
<pdfrwt beam="2">  1        2 0.46012261E-01 0.16714497E+03</pdfrwt>
<pdfrwt beam="1">  1       -2 0.11887199E-01 0.16714497E+03</pdfrwt>
<totfact> 0.53377346E+03</totfact>
</mgrwt>
</event>
<event>
 6    1  0.5928109E-006  0.1427944E+03  0.7546771E-02  0.1230415E+00
          3   -1    0    0  501    0  0.00000000000E+00  0.00000000000E+00  0.74528409472E+02  0.74528409472E+02  0.00000000000E+00 0. -1.
         -3   -1    0    0    0  501 -0.00000000000E+00 -0.00000000000E+00 -0.21046869497E+03  0.21046869497E+03  0.00000000000E+00 0.  1.
          5    1    1    2  502    0 -0.71076257123E+02 -0.29767703194E+02 -0.53048302694E+00  0.77203121001E+02  0.47000000000E+01 0. -1.
         -5    1    1    2    0  502  0.51272971632E+02  0.33431457331E+02 -0.32086155264E+02  0.69268978041E+02  0.47000000000E+01 0.  1.
        -11    1    1    2    0    0 -0.24420790960E+02 -0.19317250398E+02 -0.80586278400E+02  0.86392589153E+02  0.00000000000E+00 0. -1.
         11    1    1    2    0    0  0.44224076452E+02  0.15653496261E+02 -0.22737368802E+02  0.52132416242E+02  0.00000000000E+00 0.  1.
<mgrwt>
<rscale>  0 0.12802541E+03</rscale>
<asrwt>0</asrwt>
<pdfrwt beam="1">  1        3 0.11465909E-01 0.14279437E+03</pdfrwt>
<pdfrwt beam="2">  1       -3 0.32379799E-01 0.14279437E+03</pdfrwt>
<totfact> 0.12665970E+03</totfact>
</mgrwt>
</event>
<event>
 7    1  0.5928109E-006  0.1419532E+03  0.7546771E-02  0.1221410E+00
         -1   -1    0    0    0  501 -0.00000000000E+00  0.00000000000E+00  0.20146661722E+02  0.20146661722E+02  0.00000000000E+00 0.  1.
          1   -1    0    0  501    0  0.00000000000E+00 -0.00000000000E+00 -0.10197777237E+04  0.10197777237E+04  0.00000000000E+00 0. -1.
         23    2    1    2    0    0 -0.62978673154E+02 -0.23627021873E+02 -0.77999219433E+03  0.79280421360E+03  0.12500459373E+03 0.  0.
          5    1    3    3  502    0  0.11870778721E+02  0.16461614599E+02 -0.22927471575E+02  0.30978364958E+02  0.47000000000E+01 0. -1.
         -5    1    3    3    0  502 -0.74849451874E+02 -0.40088636473E+02 -0.75706472275E+03  0.76182584864E+03  0.47000000000E+01 0. -1.
        -11    1    1    2    0    0 -0.50244538943E+01 -0.10154695594E+02  0.31397523627E+01  0.11756743785E+02  0.00000000000E+00 0.  1.
         11    1    1    2    0    0  0.68003127048E+02  0.33781717467E+02 -0.22277862002E+03  0.23536342805E+03  0.00000000000E+00 0. -1.
<mgrwt>
<rscale>  0 0.13416062E+03</rscale>
<asrwt>0</asrwt>
<pdfrwt beam="2">  1        1 0.15688888E+00 0.14195315E+03</pdfrwt>
<pdfrwt beam="1">  1       -1 0.30994865E-02 0.14195315E+03</pdfrwt>
<totfact> 0.54261298E+03</totfact>
</mgrwt>
</event>
<event>
 7    1  0.5928109E-006  0.1605226E+03  0.7546771E-02  0.1195930E+00
          2   -1    0    0  501    0  0.00000000000E+00  0.00000000000E+00  0.33464549652E+03  0.33464549652E+03  0.00000000000E+00 0. -1.
         -2   -1    0    0    0  501 -0.00000000000E+00 -0.00000000000E+00 -0.75757191619E+02  0.75757191619E+02  0.00000000000E+00 0.  1.
         23    2    1    2    0    0  0.94112668941E+02  0.35855174901E+02  0.21502961111E+03  0.26833790037E+03  0.12499882839E+03 0.  0.
          5    1    3    3  502    0  0.11055379678E+03  0.45281908145E+02  0.11318220152E+03  0.16463563991E+03  0.47000000000E+01 0.  1.
         -5    1    3    3    0  502 -0.16441127838E+02 -0.94267332437E+01  0.10184740959E+03  0.10370226046E+03  0.47000000000E+01 0.  1.
        -11    1    1    2    0    0 -0.10083120137E+03 -0.27566286349E+02  0.82097909455E+01  0.10485338326E+03  0.00000000000E+00 0.  1.
         11    1    1    2    0    0  0.67185324329E+01 -0.82888885525E+01  0.35648902850E+02  0.37211404513E+02  0.00000000000E+00 0. -1.
<mgrwt>
<rscale>  0 0.15375745E+03</rscale>
<asrwt>0</asrwt>
<pdfrwt beam="1">  1        2 0.51483922E-01 0.16052257E+03</pdfrwt>
<pdfrwt beam="2">  1       -2 0.11654953E-01 0.16052257E+03</pdfrwt>
<totfact> 0.48766319E+03</totfact>
</mgrwt>
</event>
<event>
 6    1  0.5928109E-006  0.1324302E+03  0.7546771E-02  0.1240452E+00
         -2   -1    0    0    0  501 -0.00000000000E+00  0.00000000000E+00  0.35883557318E+02  0.35883557318E+02  0.00000000000E+00 0.  1.
          2   -1    0    0  501    0  0.00000000000E+00 -0.00000000000E+00 -0.36201286169E+03  0.36201286169E+03  0.00000000000E+00 0. -1.
          5    1    1    2  502    0 -0.15227909053E+02 -0.44133635236E+02 -0.18384447861E+03  0.18973810711E+03  0.47000000000E+01 0. -1.
         -5    1    1    2    0  502  0.44573997548E+02  0.28224077510E+02 -0.27528361827E+02  0.59693722564E+02  0.47000000000E+01 0.  1.
        -11    1    1    2    0    0 -0.56129366211E+02  0.25672051502E+02 -0.96703771171E+02  0.11472218329E+03  0.00000000000E+00 0.  1.
         11    1    1    2    0    0  0.26783277716E+02 -0.97624937767E+01 -0.18052692767E+02  0.33742406051E+02  0.00000000000E+00 0. -1.
<mgrwt>
<rscale>  0 0.12161782E+03</rscale>
<asrwt>0</asrwt>
<pdfrwt beam="2">  1        2 0.55694286E-01 0.13243021E+03</pdfrwt>
<pdfrwt beam="1">  1       -2 0.55205474E-02 0.13243021E+03</pdfrwt>
<totfact> 0.14093211E+04</totfact>
</mgrwt>
</event>
<event>
 7    1  0.5928109E-006  0.2170802E+03  0.7546771E-02  0.1139631E+00
         -2   -1    0    0    0  501 -0.00000000000E+00  0.00000000000E+00  0.72925208435E+03  0.72925208435E+03  0.00000000000E+00 0.  1.
          2   -1    0    0  501    0  0.00000000000E+00 -0.00000000000E+00 -0.65774354514E+02  0.65774354514E+02  0.00000000000E+00 0. -1.
         23    2    1    2    0    0 -0.16739673873E+03  0.58980722849E+02  0.22099776808E+03  0.30978028421E+03  0.12499366859E+03 0.  0.
          5    1    3    3  502    0 -0.15792927024E+03  0.81286775266E+02  0.14333651082E+03  0.22829069093E+03  0.47000000000E+01 0. -1.
         -5    1    3    3    0  502 -0.94674684857E+01 -0.22306052417E+02  0.77661257261E+02  0.81489593282E+02  0.47000000000E+01 0. -1.
        -11    1    1    2    0    0  0.72554142616E+02 -0.10315100854E+01  0.27371611338E+03  0.28317075829E+03  0.00000000000E+00 0.  1.
         11    1    1    2    0    0  0.94842596111E+02 -0.57949212763E+02  0.16876384838E+03  0.20207539637E+03  0.00000000000E+00 0. -1.
<mgrwt>
<rscale>  0 0.21246148E+03</rscale>
<asrwt>0</asrwt>
<pdfrwt beam="2">  1        2 0.10119132E-01 0.21708019E+03</pdfrwt>
<pdfrwt beam="1">  1       -2 0.11219262E+00 0.21708019E+03</pdfrwt>
<totfact> 0.41133791E+02</totfact>
</mgrwt>
</event>
<event>
 7    1  0.5928109E-006  0.1467702E+03  0.7546771E-02  0.1214350E+00
          1   -1    0    0  501    0  0.00000000000E+00  0.00000000000E+00  0.25020049781E+03  0.25020049781E+03  0.00000000000E+00 0. -1.
         -1   -1    0    0    0  501 -0.00000000000E+00 -0.00000000000E+00 -0.74228740196E+02  0.74228740196E+02  0.00000000000E+00 0.  1.
         23    2    1    2    0    0  0.47578540239E+02  0.60438491290E+02  0.13279448855E+03  0.19792895991E+03  0.12499987305E+03 0.  0.
          5    1    3    3  502    0 -0.24087315426E+02 -0.19396899504E+02  0.61417062668E+01  0.31878661055E+02  0.47000000000E+01 0.  1.
         -5    1    3    3    0  502  0.71665855665E+02  0.79835390794E+02  0.12665278228E+03  0.16605029886E+03  0.47000000000E+01 0.  1.
        -11    1    1    2    0    0 -0.37274422619E+02 -0.60509923679E+01 -0.19812241002E+02  0.42644131879E+02  0.00000000000E+00 0.  1.
         11    1    1    2    0    0 -0.10304117620E+02 -0.54387498922E+02  0.62989510064E+02  0.83856146209E+02  0.00000000000E+00 0. -1.
<mgrwt>
<rscale>  0 0.13924420E+03</rscale>
<asrwt>0</asrwt>
<pdfrwt beam="1">  1        1 0.38492384E-01 0.14677022E+03</pdfrwt>
<pdfrwt beam="2">  1       -1 0.11419806E-01 0.14677022E+03</pdfrwt>
<totfact> 0.52514120E+03</totfact>
</mgrwt>
</event>
<event>
 7    1  0.5928109E-006  0.2518665E+03  0.7546771E-02  0.1114447E+00
         -2   -1    0    0    0  501 -0.00000000000E+00  0.00000000000E+00  0.10235888019E+03  0.10235888019E+03  0.00000000000E+00 0.  1.
          2   -1    0    0  501    0  0.00000000000E+00 -0.00000000000E+00 -0.62645980724E+03  0.62645980724E+03  0.00000000000E+00 0. -1.
         23    2    1    2    0    0  0.21175711554E+03 -0.54494269902E+02 -0.36298831874E+03  0.44181130447E+03  0.12500403107E+03 0.  0.
          5    1    3    3  502    0  0.81950566448E+02  0.38468850521E+02 -0.15503014161E+03  0.17958892674E+03  0.47000000000E+01 0. -1.
         -5    1    3    3    0  502  0.12980654909E+03 -0.92963120423E+02 -0.20795817713E+03  0.26222237773E+03  0.47000000000E+01 0. -1.
        -11    1    1    2    0    0 -0.10953547459E+03  0.72222403478E+01 -0.13003714683E+03  0.17017591048E+03  0.00000000000E+00 0.  1.
         11    1    1    2    0    0 -0.10222164095E+03  0.47272029555E+02 -0.31075461475E+02  0.11683147248E+03  0.00000000000E+00 0. -1.
<mgrwt>
<rscale>  0 0.24820070E+03</rscale>
<asrwt>0</asrwt>
<pdfrwt beam="2">  1        2 0.96378432E-01 0.25186645E+03</pdfrwt>
<pdfrwt beam="1">  1       -2 0.15747520E-01 0.25186645E+03</pdfrwt>
<totfact> 0.15120181E+03</totfact>
</mgrwt>
</event>
<event>
 7    1  0.5928109E-006  0.2863802E+03  0.7546771E-02  0.1094099E+00
          2   -1    0    0  501    0  0.00000000000E+00  0.00000000000E+00  0.11775401969E+04  0.11775401969E+04  0.00000000000E+00 0. -1.
         -2   -1    0    0    0  501 -0.00000000000E+00 -0.00000000000E+00 -0.68975014517E+02  0.68975014517E+02  0.00000000000E+00 0.  1.
         23    2    1    2    0    0  0.25412729115E+03  0.42512511627E+02  0.68781228533E+03  0.74504992143E+03  0.12500260724E+03 0.  0.
          5    1    3    3  502    0  0.13213093546E+03 -0.33197070634E+02  0.41361439878E+03  0.43549924281E+03  0.47000000000E+01 0. -1.
         -5    1    3    3    0  502  0.12199635570E+03  0.75709582261E+02  0.27419788655E+03  0.30955067862E+03  0.47000000000E+01 0. -1.
        -11    1    1    2    0    0 -0.76467446770E+02  0.16968264393E+02  0.76246717530E+02  0.10931035791E+03  0.00000000000E+00 0.  1.
         11    1    1    2    0    0 -0.17765984438E+03 -0.59480776020E+02  0.34450617949E+03  0.39215493205E+03  0.00000000000E+00 0. -1.
<mgrwt>
<rscale>  0 0.28293002E+03</rscale>
<asrwt>0</asrwt>
<pdfrwt beam="1">  1        2 0.18116002E+00 0.28638025E+03</pdfrwt>
<pdfrwt beam="2">  1       -2 0.10611542E-01 0.28638025E+03</pdfrwt>
<totfact> 0.12424091E+03</totfact>
</mgrwt>
</event>
<event>
 7    1  0.5928109E-006  0.1742564E+03  0.7546771E-02  0.1179400E+00
         -2   -1    0    0    0  501 -0.00000000000E+00  0.00000000000E+00  0.79413161833E+02  0.79413161833E+02  0.00000000000E+00 0.  1.
          2   -1    0    0  501    0  0.00000000000E+00 -0.00000000000E+00 -0.38731137964E+03  0.38731137964E+03  0.00000000000E+00 0. -1.
         23    2    1    2    0    0 -0.11148646852E+03 -0.48074399944E+02 -0.24768775247E+03  0.30284403440E+03  0.12499962343E+03 0.  0.
          5    1    3    3  502    0 -0.15713537695E+02 -0.35681864882E+02 -0.25794153684E+01  0.39355484141E+02  0.47000000000E+01 0. -1.
         -5    1    3    3    0  502 -0.95772930821E+02 -0.12392535062E+02 -0.24510833710E+03  0.26348855026E+03  0.47000000000E+01 0. -1.
        -11    1    1    2    0    0  0.12425316309E+03  0.56979592632E+02 -0.56270925205E+02  0.14782401543E+03  0.00000000000E+00 0. -1.
         11    1    1    2    0    0 -0.12766694577E+02 -0.89051926879E+01 -0.39395401331E+01  0.16056491637E+02  0.00000000000E+00 0.  1.
<mgrwt>
<rscale>  0 0.16851991E+03</rscale>
<asrwt>0</asrwt>
<pdfrwt beam="2">  1        2 0.59586368E-01 0.17425638E+03</pdfrwt>
<pdfrwt beam="1">  1       -2 0.12217409E-01 0.17425638E+03</pdfrwt>
<totfact> 0.38814139E+03</totfact>
</mgrwt>
</event>
<event>
 7    1  0.5928109E-006  0.2433913E+03  0.7546771E-02  0.1119923E+00
         -2   -1    0    0    0  501 -0.00000000000E+00  0.00000000000E+00  0.11398422447E+03  0.11398422447E+03  0.00000000000E+00 0.  1.
          2   -1    0    0  501    0  0.00000000000E+00 -0.00000000000E+00 -0.53206396143E+03  0.53206396143E+03  0.00000000000E+00 0. -1.
         23    2    1    2    0    0  0.18777012387E+03 -0.91411752543E+02 -0.30535410038E+03  0.39048746558E+03  0.12500242492E+03 0.  0.
          5    1    3    3  502    0  0.11916201376E+03  0.30527820989E+01 -0.10686215918E+03  0.16015778491E+03  0.47000000000E+01 0. -1.
         -5    1    3    3    0  502  0.68608110112E+02 -0.94464534642E+02 -0.19849194120E+03  0.23032968068E+03  0.47000000000E+01 0. -1.
        -11    1    1    2    0    0 -0.54214551649E+02  0.58515623569E+02 -0.33730888882E+01  0.79841552720E+02  0.00000000000E+00 0.  1.
         11    1    1    2    0    0 -0.13355557222E+03  0.32896128974E+02 -0.10935254769E+03  0.17571916759E+03  0.00000000000E+00 0. -1.
<mgrwt>
<rscale>  0 0.23980398E+03</rscale>
<asrwt>0</asrwt>
<pdfrwt beam="2">  1        2 0.81855996E-01 0.24339132E+03</pdfrwt>
<pdfrwt beam="1">  1       -2 0.17536034E-01 0.24339132E+03</pdfrwt>
<totfact> 0.15240577E+03</totfact>
</mgrwt>
</event>
<event>
 6    1  0.5928109E-006  0.2210321E+03  0.7546771E-02  0.1156178E+00
         -2   -1    0    0    0  501 -0.00000000000E+00  0.00000000000E+00  0.18875181013E+03  0.18875181013E+03  0.00000000000E+00 0.  1.
          2   -1    0    0  501    0  0.00000000000E+00 -0.00000000000E+00 -0.18874605291E+03  0.18874605291E+03  0.00000000000E+00 0. -1.
          5    1    1    2  502    0  0.17002113489E+02  0.95941671525E+02 -0.85646408951E+02  0.12981245535E+03  0.47000000000E+01 0. -1.
         -5    1    1    2    0  502  0.67840442767E+02 -0.74736342108E+02  0.15185200776E+02  0.10217889620E+03  0.47000000000E+01 0.  1.
        -11    1    1    2    0    0 -0.55664981691E+02 -0.40880340474E+02  0.26641753314E+01  0.69115050851E+02  0.00000000000E+00 0.  1.
         11    1    1    2    0    0 -0.29177574565E+02  0.19675011057E+02  0.67802790061E+02  0.76391460633E+02  0.00000000000E+00 0. -1.
<mgrwt>
<rscale>  0 0.19255415E+03</rscale>
<asrwt>0</asrwt>
<pdfrwt beam="2">  1        2 0.29037854E-01 0.22103214E+03</pdfrwt>
<pdfrwt beam="1">  1       -2 0.29038740E-01 0.22103214E+03</pdfrwt>
<totfact> 0.19564946E+03</totfact>
</mgrwt>
</event>
<event>
 7    1  0.5928109E-006  0.2880635E+03  0.7546771E-02  0.1093753E+00
         -1   -1    0    0    0  501 -0.00000000000E+00  0.00000000000E+00  0.33542502967E+03  0.33542502967E+03  0.00000000000E+00 0.  1.
          1   -1    0    0  501    0  0.00000000000E+00 -0.00000000000E+00 -0.27711576859E+03  0.27711576859E+03  0.00000000000E+00 0. -1.
         23    2    1    2    0    0  0.22156157650E+03 -0.13515052310E+03 -0.92845918683E+02  0.30265644079E+03  0.12500144184E+03 0.  0.
          5    1    3    3  502    0  0.19289829357E+03 -0.10643995900E+03 -0.12255516532E+03  0.25215288037E+03  0.47000000000E+01 0.  1.
         -5    1    3    3    0  502  0.28663282930E+02 -0.28710564101E+02  0.29709246636E+02  0.50503560419E+02  0.47000000000E+01 0.  1.
        -11    1    1    2    0    0 -0.17348497836E+03  0.99415249374E+02  0.15001612297E+03  0.24997053161E+03  0.00000000000E+00 0.  1.
         11    1    1    2    0    0 -0.48076598141E+02  0.35735273728E+02  0.11390567919E+01  0.59913825847E+02  0.00000000000E+00 0. -1.
<mgrwt>
<rscale>  0 0.28357340E+03</rscale>
<asrwt>0</asrwt>
<pdfrwt beam="2">  1        1 0.42633195E-01 0.28806346E+03</pdfrwt>
<pdfrwt beam="1">  1       -1 0.51603851E-01 0.28806346E+03</pdfrwt>
<totfact> 0.37716660E+02</totfact>
</mgrwt>
</event>
<event>
 7    1  0.5928109E-006  0.1375741E+03  0.7546771E-02  0.1227217E+00
         -1   -1    0    0    0  501 -0.00000000000E+00  0.00000000000E+00  0.11121891843E+03  0.11121891843E+03  0.00000000000E+00 0.  1.
          1   -1    0    0  501    0  0.00000000000E+00 -0.00000000000E+00 -0.23495050522E+03  0.23495050522E+03  0.00000000000E+00 0. -1.
         23    2    1    2    0    0  0.45501703270E+02 -0.35083209147E+02 -0.17664149765E+03  0.22389471773E+03  0.12500155747E+03 0.  0.
          5    1    3    3  502    0  0.17293643195E+02  0.16057663564E+01 -0.17646207146E+03  0.17737700314E+03  0.47000000000E+01 0.  1.
         -5    1    3    3    0  502  0.28208060075E+02 -0.36688975504E+02 -0.17942619149E+00  0.46517714588E+02  0.47000000000E+01 0.  1.
        -11    1    1    2    0    0 -0.46997635314E+02 -0.29780170548E+01  0.66799973528E+02  0.81730549821E+02  0.00000000000E+00 0.  1.
         11    1    1    2    0    0  0.14959320435E+01  0.38061226202E+02 -0.13890062667E+02  0.40544156097E+02  0.00000000000E+00 0. -1.
<mgrwt>
<rscale>  0 0.13016129E+03</rscale>
<asrwt>0</asrwt>
<pdfrwt beam="2">  1        1 0.36146231E-01 0.13757407E+03</pdfrwt>
<pdfrwt beam="1">  1       -1 0.17110603E-01 0.13757407E+03</pdfrwt>
<totfact> 0.30094076E+03</totfact>
</mgrwt>
</event>
<event>
 7    1  0.5928109E-006  0.1273964E+03  0.7546771E-02  0.1246506E+00
         -1   -1    0    0    0  501 -0.00000000000E+00  0.00000000000E+00  0.23324449528E+03  0.23324449528E+03  0.00000000000E+00 0.  1.
          1   -1    0    0  501    0  0.00000000000E+00 -0.00000000000E+00 -0.61843882140E+02  0.61843882140E+02  0.00000000000E+00 0. -1.
         23    2    1    2    0    0 -0.22100768645E+02  0.10792754079E+02  0.39589062462E+02  0.13340591201E+03  0.12499966391E+03 0.  0.
          5    1    3    3  502    0  0.32021213956E+02  0.21224801789E+02  0.62514352711E+02  0.73525401387E+02  0.47000000000E+01 0.  1.
         -5    1    3    3    0  502 -0.54121982601E+02 -0.10432047710E+02 -0.22925290249E+02  0.59880510628E+02  0.47000000000E+01 0.  1.
        -11    1    1    2    0    0  0.55200971761E+02  0.78982756227E+00  0.58621660500E+02  0.80524966258E+02  0.00000000000E+00 0.  1.
         11    1    1    2    0    0 -0.33100203116E+02 -0.11582581641E+02  0.73189890179E+02  0.81157499150E+02  0.00000000000E+00 0. -1.
<mgrwt>
<rscale>  0 0.11795703E+03</rscale>
<asrwt>0</asrwt>
<pdfrwt beam="2">  1        1 0.95144435E-02 0.12739640E+03</pdfrwt>
<pdfrwt beam="1">  1       -1 0.35883768E-01 0.12739640E+03</pdfrwt>
<totfact> 0.48825970E+03</totfact>
</mgrwt>
</event>
<event>
 7    1  0.5928109E-006  0.1477611E+03  0.7546771E-02  0.1213450E+00
          1   -1    0    0  501    0  0.00000000000E+00  0.00000000000E+00  0.38498305867E+02  0.38498305867E+02  0.00000000000E+00 0. -1.
         -1   -1    0    0    0  501 -0.00000000000E+00 -0.00000000000E+00 -0.48695591928E+03  0.48695591928E+03  0.00000000000E+00 0.  1.
         23    2    1    2    0    0  0.13896099214E+02  0.77633867842E+02 -0.18739225078E+03  0.23864031631E+03  0.12495289475E+03 0.  0.
          5    1    3    3  502    0  0.62513637800E+01  0.75760194292E+02 -0.20505366939E+03  0.21874136307E+03  0.47000000000E+01 0. -1.
         -5    1    3    3    0  502  0.76447354336E+01  0.18736735497E+01  0.17661418614E+02  0.19898953235E+02  0.47000000000E+01 0. -1.
        -11    1    1    2    0    0  0.29826248041E+02 -0.67354382456E+02 -0.15408623275E+03  0.17078871459E+03  0.00000000000E+00 0.  1.
         11    1    1    2    0    0 -0.43722347255E+02 -0.10279485386E+02 -0.10697912989E+03  0.11602519425E+03  0.00000000000E+00 0. -1.
<mgrwt>
<rscale>  0 0.13991034E+03</rscale>
<asrwt>0</asrwt>
<pdfrwt beam="1">  1        1 0.59228162E-02 0.14776111E+03</pdfrwt>
<pdfrwt beam="2">  1       -1 0.74916296E-01 0.14776111E+03</pdfrwt>
<totfact> 0.23893648E+03</totfact>
</mgrwt>
</event>
<event>
 6    1  0.5928109E-006  0.1592770E+03  0.7546771E-02  0.1207436E+00
         -2   -1    0    0    0  501 -0.00000000000E+00  0.00000000000E+00  0.68284178639E+02  0.68284178639E+02  0.00000000000E+00 0.  1.
          2   -1    0    0  501    0  0.00000000000E+00 -0.00000000000E+00 -0.16412742070E+04  0.16412742070E+04  0.00000000000E+00 0. -1.
          5    1    1    2  502    0 -0.76502752367E+02  0.50011934378E+02 -0.13859435009E+04  0.13889619658E+04  0.47000000000E+01 0. -1.
         -5    1    1    2    0  502  0.40649957908E+02 -0.19548860918E+02 -0.20617238322E+03  0.21110120474E+03  0.47000000000E+01 0.  1.
        -11    1    1    2    0    0 -0.61609245103E+00 -0.28487513616E+02 -0.34417391994E+02  0.44681930057E+02  0.00000000000E+00 0.  1.
         11    1    1    2    0    0  0.36468886910E+02 -0.19755598439E+01  0.53543247715E+02  0.64813285097E+02  0.00000000000E+00 0. -1.
<mgrwt>
<rscale>  0 0.14447126E+03</rscale>
<asrwt>0</asrwt>
<pdfrwt beam="2">  1        2 0.25250372E+00 0.15927700E+03</pdfrwt>
<pdfrwt beam="1">  1       -2 0.10505259E-01 0.15927700E+03</pdfrwt>
<totfact> 0.71663959E+02</totfact>
</mgrwt>
</event>
<event>
 7    1  0.5928109E-006  0.1516381E+03  0.7546771E-02  0.1207523E+00
         -1   -1    0    0    0  501 -0.00000000000E+00  0.00000000000E+00  0.69374649630E+02  0.69374649630E+02  0.00000000000E+00 0.  1.
          1   -1    0    0  501    0  0.00000000000E+00 -0.00000000000E+00 -0.33875020401E+03  0.33875020401E+03  0.00000000000E+00 0. -1.
         23    2    1    2    0    0  0.25086397008E+02 -0.82085558174E+02 -0.23339560167E+03  0.27833005809E+03  0.12500699253E+03 0.  0.
          5    1    3    3  502    0 -0.40846748357E+02 -0.48820688743E+02 -0.51686049506E+02  0.82130714195E+02  0.47000000000E+01 0. -1.
         -5    1    3    3    0  502  0.65933145365E+02 -0.33264869432E+02 -0.18170955217E+03  0.19619934390E+03  0.47000000000E+01 0. -1.
        -11    1    1    2    0    0  0.29844077118E+02  0.56241228029E+02 -0.13680912128E+02  0.65122285171E+02  0.00000000000E+00 0.  1.
         11    1    1    2    0    0 -0.54930474126E+02  0.25844330145E+02 -0.22299040582E+02  0.64672510383E+02  0.00000000000E+00 0. -1.
<mgrwt>
<rscale>  0 0.14440426E+03</rscale>
<asrwt>0</asrwt>
<pdfrwt beam="2">  1        1 0.52115416E-01 0.15163810E+03</pdfrwt>
<pdfrwt beam="1">  1       -1 0.10673023E-01 0.15163810E+03</pdfrwt>
<totfact> 0.40070732E+03</totfact>
</mgrwt>
</event>
<event>
 7    1  0.5928109E-006  0.1952140E+03  0.7546771E-02  0.1159488E+00
         -2   -1    0    0    0  501 -0.00000000000E+00  0.00000000000E+00  0.20939853084E+02  0.20939853084E+02  0.00000000000E+00 0.  1.
          2   -1    0    0  501    0  0.00000000000E+00 -0.00000000000E+00 -0.18433143562E+04  0.18433143562E+04  0.00000000000E+00 0. -1.
         23    2    1    2    0    0 -0.63169758629E+02  0.13599417844E+03 -0.13004504397E+04  0.13150208521E+04  0.12499464143E+03 0.  0.
          5    1    3    3  502    0 -0.35279431750E+02  0.15553411486E+03 -0.11221753231E+04  0.11334615322E+04  0.47000000000E+01 0.  1.
         -5    1    3    3    0  502 -0.27890326880E+02 -0.19539936418E+02 -0.17827511662E+03  0.18155931993E+03  0.47000000000E+01 0.  1.
        -11    1    1    2    0    0  0.64479046727E+02 -0.41990586483E+02 -0.24300408058E+03  0.25489554723E+03  0.00000000000E+00 0. -1.
         11    1    1    2    0    0 -0.13092880979E+01 -0.94003591960E+02 -0.27891998281E+03  0.29433780992E+03  0.00000000000E+00 0.  1.
<mgrwt>
<rscale>  0 0.18886594E+03</rscale>
<asrwt>0</asrwt>
<pdfrwt beam="2">  1        2 0.28358680E+00 0.19521397E+03</pdfrwt>
<pdfrwt beam="1">  1       -2 0.32215162E-02 0.19521397E+03</pdfrwt>
<totfact> 0.34166942E+03</totfact>
</mgrwt>
</event>
<event>
 7    1  0.5928109E-006  0.1808659E+03  0.7546771E-02  0.1174080E+00
         -1   -1    0    0    0  501 -0.00000000000E+00  0.00000000000E+00  0.20952379897E+02  0.20952379897E+02  0.00000000000E+00 0.  1.
          1   -1    0    0  501    0  0.00000000000E+00 -0.00000000000E+00 -0.13360940383E+04  0.13360940383E+04  0.00000000000E+00 0. -1.
         23    2    1    2    0    0  0.12676521030E+03 -0.31895223386E+02 -0.72023885638E+03  0.74260114912E+03  0.12500293046E+03 0.  0.
          5    1    3    3  502    0  0.81761843184E+02 -0.37444175116E+02 -0.66459321650E+03  0.67066630948E+03  0.47000000000E+01 0.  1.
         -5    1    3    3    0  502  0.45003367119E+02  0.55489517297E+01 -0.55645639883E+02  0.71934839649E+02  0.47000000000E+01 0.  1.
        -11    1    1    2    0    0 -0.41920195626E+02  0.41850687539E+02 -0.14731660205E+03  0.15877960854E+03  0.00000000000E+00 0.  1.
         11    1    1    2    0    0 -0.84845014677E+02 -0.99554641524E+01 -0.44758619993E+03  0.45566566049E+03  0.00000000000E+00 0. -1.
<mgrwt>
<rscale>  0 0.17366359E+03</rscale>
<asrwt>0</asrwt>
<pdfrwt beam="2">  1        1 0.20555290E+00 0.18086585E+03</pdfrwt>
<pdfrwt beam="1">  1       -1 0.32234435E-02 0.18086585E+03</pdfrwt>
<totfact> 0.31101474E+03</totfact>
</mgrwt>
</event>
<event>
 7    1  0.5928109E-006  0.1447285E+03  0.7546771E-02  0.1213444E+00
          1   -1    0    0  501    0  0.00000000000E+00  0.00000000000E+00  0.11505585591E+03  0.11505585591E+03  0.00000000000E+00 0. -1.
         -1   -1    0    0    0  501 -0.00000000000E+00 -0.00000000000E+00 -0.17206116451E+03  0.17206116451E+03  0.00000000000E+00 0.  1.
         23    2    1    2    0    0  0.43958000794E+02 -0.58207232633E+02  0.80406959357E+01  0.14495166268E+03  0.12500377577E+03 0.  0.
          5    1    3    3  502    0  0.47216068475E+02 -0.91592664262E+02 -0.14640483755E+02  0.10418736504E+03  0.47000000000E+01 0.  1.
         -5    1    3    3    0  502 -0.32580676810E+01  0.33385431629E+02  0.22681179690E+02  0.40764297642E+02  0.47000000000E+01 0.  1.
        -11    1    1    2    0    0 -0.24854857334E+02  0.31260881888E+02 -0.91506989459E+02  0.99842555002E+02  0.00000000000E+00 0.  1.
         11    1    1    2    0    0 -0.19103143460E+02  0.26946350745E+02  0.26460984926E+02  0.42322802740E+02  0.00000000000E+00 0. -1.
<mgrwt>
<rscale>  0 0.13991446E+03</rscale>
<asrwt>0</asrwt>
<pdfrwt beam="1">  1        1 0.17700901E-01 0.14472848E+03</pdfrwt>
<pdfrwt beam="2">  1       -1 0.26470948E-01 0.14472848E+03</pdfrwt>
<totfact> 0.36541173E+03</totfact>
</mgrwt>
</event>
<event>
 7    1  0.5928109E-006  0.1480528E+03  0.7546771E-02  0.1211340E+00
          1   -1    0    0  501    0  0.00000000000E+00  0.00000000000E+00  0.32764505810E+03  0.32764505810E+03  0.00000000000E+00 0. -1.
         -1   -1    0    0    0  501 -0.00000000000E+00 -0.00000000000E+00 -0.58923838568E+02  0.58923838568E+02  0.00000000000E+00 0.  1.
         23    2    1    2    0    0 -0.79185603003E+02 -0.49357231135E+01  0.18688646773E+03  0.23842440295E+03  0.12499969206E+03 0.  0.
          5    1    3    3  502    0 -0.64917719963E+02 -0.52663118376E+02  0.62891550963E+02  0.10471461973E+03  0.47000000000E+01 0.  1.
         -5    1    3    3    0  502 -0.14267883040E+02  0.47727395262E+02  0.12399491677E+03  0.13370978322E+03  0.47000000000E+01 0.  1.
        -11    1    1    2    0    0  0.14382499049E+02 -0.31356937556E+02 -0.38927567608E+01  0.34716960797E+02  0.00000000000E+00 0.  1.
         11    1    1    2    0    0  0.64803103954E+02  0.36292660669E+02  0.85727508563E+02  0.11342753292E+03  0.00000000000E+00 0. -1.
<mgrwt>
<rscale>  0 0.14148839E+03</rscale>
<asrwt>0</asrwt>
<pdfrwt beam="1">  1        1 0.50406931E-01 0.14805284E+03</pdfrwt>
<pdfrwt beam="2">  1       -1 0.90652062E-02 0.14805284E+03</pdfrwt>
<totfact> 0.53547573E+03</totfact>
</mgrwt>
</event>
<event>
 7    1  0.5928109E-006  0.1720290E+03  0.7546771E-02  0.1181893E+00
          1   -1    0    0  501    0  0.00000000000E+00  0.00000000000E+00  0.86906323999E+03  0.86906323999E+03  0.00000000000E+00 0. -1.
         -1   -1    0    0    0  501 -0.00000000000E+00 -0.00000000000E+00 -0.41361271727E+02  0.41361271727E+02  0.00000000000E+00 0.  1.
         23    2    1    2    0    0  0.86794635986E+02 -0.80233147990E+02  0.67476918025E+03  0.69635294902E+03  0.12499326432E+03 0.  0.
          5    1    3    3  502    0  0.10742173851E+03 -0.22193835197E+02  0.40678547388E+03  0.42134132005E+03  0.47000000000E+01 0. -1.
         -5    1    3    3    0  502 -0.20627102527E+02 -0.58039312793E+02  0.26798370637E+03  0.27501162897E+03  0.47000000000E+01 0. -1.
        -11    1    1    2    0    0 -0.35703181217E+02  0.16504988866E+02  0.11951269975E+03  0.12581898588E+03  0.00000000000E+00 0.  1.
         11    1    1    2    0    0 -0.51091454769E+02  0.63728159124E+02  0.33420088274E+02  0.88252576824E+02  0.00000000000E+00 0. -1.
<mgrwt>
<rscale>  0 0.16617848E+03</rscale>
<asrwt>0</asrwt>
<pdfrwt beam="1">  1        1 0.13370202E+00 0.17202902E+03</pdfrwt>
<pdfrwt beam="2">  1       -1 0.63632732E-02 0.17202902E+03</pdfrwt>
<totfact> 0.24482179E+03</totfact>
</mgrwt>
</event>
<event>
 7    1  0.5928109E-006  0.2610164E+03  0.7546771E-02  0.1108710E+00
          2   -1    0    0  501    0  0.00000000000E+00  0.00000000000E+00  0.10477682381E+03  0.10477682381E+03  0.00000000000E+00 0. -1.
         -2   -1    0    0    0  501 -0.00000000000E+00 -0.00000000000E+00 -0.64874120796E+03  0.64874120796E+03  0.00000000000E+00 0.  1.
         23    2    1    2    0    0  0.50814519315E+02 -0.22343343984E+03 -0.19391243076E+03  0.32516393811E+03  0.12499975373E+03 0.  0.
          5    1    3    3  502    0 -0.31639304599E+02 -0.13906581911E+03 -0.11328508712E+03  0.18219755378E+03  0.47000000000E+01 0.  1.
         -5    1    3    3    0  502  0.82453823914E+02 -0.84367620727E+02 -0.80627343640E+02  0.14296638433E+03  0.47000000000E+01 0.  1.
        -11    1    1    2    0    0 -0.18338273348E+02  0.15074223683E+03 -0.15181180025E+03  0.21472386204E+03  0.00000000000E+00 0. -1.
         11    1    1    2    0    0 -0.32476245967E+02  0.72691203010E+02 -0.19824015314E+03  0.21363023162E+03  0.00000000000E+00 0.  1.
<mgrwt>
<rscale>  0 0.25740875E+03</rscale>
<asrwt>0</asrwt>
<pdfrwt beam="1">  1        2 0.16119511E-01 0.26101639E+03</pdfrwt>
<pdfrwt beam="2">  1       -2 0.99806339E-01 0.26101639E+03</pdfrwt>
<totfact> 0.30883288E+02</totfact>
</mgrwt>
</event>
<event>
 7    1  0.5928109E-006  0.2396921E+03  0.7546771E-02  0.1122857E+00
         -2   -1    0    0    0  501 -0.00000000000E+00  0.00000000000E+00  0.22647406195E+02  0.22647406195E+02  0.00000000000E+00 0.  1.
          2   -1    0    0  501    0  0.00000000000E+00 -0.00000000000E+00 -0.26214804483E+04  0.26214804483E+04  0.00000000000E+00 0. -1.
         23    2    1    2    0    0  0.18554889393E+03 -0.86016679705E+02 -0.17543246818E+04  0.17706234420E+04  0.12500009125E+03 0.  0.
          5    1    3    3  502    0  0.30785662468E+02 -0.77994190106E+02 -0.55475854149E+03  0.56107929926E+03  0.47000000000E+01 0.  1.
         -5    1    3    3    0  502  0.15476323147E+03 -0.80224895989E+01 -0.11995661403E+04  0.12095441427E+04  0.47000000000E+01 0.  1.
        -11    1    1    2    0    0 -0.59852675998E+02  0.72892541897E+02 -0.29779336750E+03  0.31237246232E+03  0.00000000000E+00 0.  1.
         11    1    1    2    0    0 -0.12569621794E+03  0.13124137808E+02 -0.54671499276E+03  0.56113195017E+03  0.00000000000E+00 0. -1.
<mgrwt>
<rscale>  0 0.23545661E+03</rscale>
<asrwt>0</asrwt>
<pdfrwt beam="2">  1        2 0.40330488E+00 0.23969206E+03</pdfrwt>
<pdfrwt beam="1">  1       -2 0.34842147E-02 0.23969206E+03</pdfrwt>
<totfact> 0.11682240E+03</totfact>
</mgrwt>
</event>
<event>
 7    1  0.5928109E-006  0.1458755E+03  0.7546771E-02  0.1214794E+00
         -2   -1    0    0    0  501 -0.00000000000E+00  0.00000000000E+00  0.13784308919E+02  0.13784308919E+02  0.00000000000E+00 0.  1.
          2   -1    0    0  501    0  0.00000000000E+00 -0.00000000000E+00 -0.13791813017E+04  0.13791813017E+04  0.00000000000E+00 0. -1.
         23    2    1    2    0    0  0.13733419915E+02 -0.73933092579E+02 -0.92881288250E+03  0.94019839551E+03  0.12499977289E+03 0.  0.
          5    1    3    3  502    0 -0.13314168202E+02 -0.81198301279E+02 -0.31106118228E+03  0.32179431370E+03  0.47000000000E+01 0.  1.
         -5    1    3    3    0  502  0.27047588116E+02  0.72652086995E+01 -0.61775170022E+03  0.61840408182E+03  0.47000000000E+01 0.  1.
        -11    1    1    2    0    0 -0.40736199040E+01 -0.22468989235E+02 -0.72374544230E+02  0.75891531207E+02  0.00000000000E+00 0.  1.
         11    1    1    2    0    0 -0.96598000107E+01  0.96402081815E+02 -0.36420956608E+03  0.37687568394E+03  0.00000000000E+00 0. -1.
<mgrwt>
<rscale>  0 0.13891642E+03</rscale>
<asrwt>0</asrwt>
<pdfrwt beam="2">  1        2 0.21218179E+00 0.14587547E+03</pdfrwt>
<pdfrwt beam="1">  1       -2 0.21206624E-02 0.14587547E+03</pdfrwt>
<totfact> 0.10963836E+04</totfact>
</mgrwt>
</event>
<event>
 7    1  0.5928109E-006  0.1331343E+03  0.7546771E-02  0.1235729E+00
          1   -1    0    0  501    0  0.00000000000E+00  0.00000000000E+00  0.20474104718E+03  0.20474104718E+03  0.00000000000E+00 0. -1.
         -1   -1    0    0    0  501 -0.00000000000E+00 -0.00000000000E+00 -0.95114018491E+02  0.95114018491E+02  0.00000000000E+00 0.  1.
         23    2    1    2    0    0 -0.44198018944E+02  0.12097374154E+02  0.14016205617E+03  0.19331358285E+03  0.12499971194E+03 0.  0.
          5    1    3    3  502    0 -0.59086379645E+01  0.35058812051E+02 -0.94702433367E+01  0.37091883396E+02  0.47000000000E+01 0. -1.
         -5    1    3    3    0  502 -0.38289380979E+02 -0.22961437896E+02  0.14963229950E+03  0.15622169945E+03  0.47000000000E+01 0. -1.
        -11    1    1    2    0    0 -0.15727727733E+02 -0.31533256440E+02  0.26490923293E+01  0.35337308493E+02  0.00000000000E+00 0. -1.
         11    1    1    2    0    0  0.59925746676E+02  0.19435882286E+02 -0.33184119804E+02  0.71204174331E+02  0.00000000000E+00 0.  1.
<mgrwt>
<rscale>  0 0.12457880E+03</rscale>
<asrwt>0</asrwt>
<pdfrwt beam="1">  1        1 0.31498623E-01 0.13313429E+03</pdfrwt>
<pdfrwt beam="2">  1       -1 0.14632926E-01 0.13313429E+03</pdfrwt>
<totfact> 0.45574738E+03</totfact>
</mgrwt>
</event>
<event>
 6    1  0.5928109E-006  0.1882577E+03  0.7546771E-02  0.1191834E+00
         -2   -1    0    0    0  501 -0.00000000000E+00  0.00000000000E+00  0.57576730605E+02  0.57576730605E+02  0.00000000000E+00 0.  1.
          2   -1    0    0  501    0  0.00000000000E+00 -0.00000000000E+00 -0.35707449407E+03  0.35707449407E+03  0.00000000000E+00 0. -1.
          5    1    1    2  502    0 -0.16613490980E+01 -0.46063092997E+02 -0.22755208848E+03  0.23222104037E+03  0.47000000000E+01 0. -1.
         -5    1    1    2    0  502 -0.16707543664E+02  0.70515896969E+02 -0.13882895597E+02  0.73935502505E+02  0.47000000000E+01 0.  1.
        -11    1    1    2    0    0 -0.13447414564E+02 -0.48672444783E+02 -0.40896629516E+02  0.64979797979E+02  0.00000000000E+00 0.  1.
         11    1    1    2    0    0  0.31816307326E+02  0.24219640811E+02 -0.17166149872E+02  0.43514883825E+02  0.00000000000E+00 0. -1.
<mgrwt>
<rscale>  0 0.15725277E+03</rscale>
<asrwt>0</asrwt>
<pdfrwt beam="2">  1        2 0.54934537E-01 0.18825774E+03</pdfrwt>
<pdfrwt beam="1">  1       -2 0.88579587E-02 0.18825774E+03</pdfrwt>
<totfact> 0.70854384E+03</totfact>
</mgrwt>
</event>
<event>
 7    1  0.5928109E-006  0.4494830E+03  0.7546771E-02  0.1027876E+00
          1   -1    0    0  501    0  0.00000000000E+00  0.00000000000E+00  0.19146323678E+03  0.19146323678E+03  0.00000000000E+00 0. -1.
         -1   -1    0    0    0  501 -0.00000000000E+00 -0.00000000000E+00 -0.26380387212E+03  0.26380387212E+03  0.00000000000E+00 0.  1.
         23    2    1    2    0    0 -0.37025966803E+02 -0.14236063866E+03 -0.59780625958E+02  0.19390399962E+03  0.11129943474E+03 0.  0.
          5    1    3    3  502    0 -0.19754442620E+02 -0.15823805052E+03 -0.44924053376E+02  0.16574009535E+03  0.47000000000E+01 0. -1.
         -5    1    3    3    0  502 -0.17271524182E+02  0.15877411861E+02 -0.14856572582E+02  0.28163904272E+02  0.47000000000E+01 0.  1.
        -11    1    1    2    0    0  0.12413579029E+03  0.10382547082E+03  0.14114807391E+02  0.16244583901E+03  0.00000000000E+00 0.  1.
         11    1    1    2    0    0 -0.87109823488E+02  0.38535167834E+02 -0.26674816765E+02  0.98917270270E+02  0.00000000000E+00 0. -1.
<mgrwt>
<rscale>  0 0.44948301E+03</rscale>
<asrwt>0</asrwt>
<pdfrwt beam="1">  1        1 0.29455883E-01 0.44948301E+03</pdfrwt>
<pdfrwt beam="2">  1       -1 0.40585211E-01 0.44948301E+03</pdfrwt>
<totfact> 0.93636819E+02</totfact>
</mgrwt>
</event>
<event>
 7    1  0.5928109E-006  0.1336828E+03  0.7546771E-02  0.1234738E+00
          2   -1    0    0  501    0  0.00000000000E+00  0.00000000000E+00  0.32190129952E+03  0.32190129952E+03  0.00000000000E+00 0. -1.
         -2   -1    0    0    0  501 -0.00000000000E+00 -0.00000000000E+00 -0.48513756866E+02  0.48513756866E+02  0.00000000000E+00 0.  1.
         23    2    1    2    0    0  0.40796886619E+02  0.24100581698E+02  0.21193113301E+03  0.25057111520E+03  0.12500341849E+03 0.  0.
          5    1    3    3  502    0  0.69995498889E+02  0.82420961565E+01  0.20428622749E+03  0.21615331308E+03  0.47000000000E+01 0. -1.
         -5    1    3    3    0  502 -0.29198612271E+02  0.15858485542E+02  0.76449055277E+01  0.34417802119E+02  0.47000000000E+01 0. -1.
        -11    1    1    2    0    0 -0.68213041195E+02 -0.86765797207E+01  0.28948411842E+02  0.74607724619E+02  0.00000000000E+00 0.  1.
         11    1    1    2    0    0  0.27416154576E+02 -0.15424001977E+02  0.32507997797E+02  0.45236216569E+02  0.00000000000E+00 0. -1.
<mgrwt>
<rscale>  0 0.12521212E+03</rscale>
<asrwt>0</asrwt>
<pdfrwt beam="1">  1        2 0.49523275E-01 0.13368275E+03</pdfrwt>
<pdfrwt beam="2">  1       -2 0.74636551E-02 0.13368275E+03</pdfrwt>
<totfact> 0.10095487E+04</totfact>
</mgrwt>
</event>
<event>
 7    1  0.5928109E-006  0.1318466E+03  0.7546771E-02  0.1236374E+00
         -2   -1    0    0    0  501 -0.00000000000E+00  0.00000000000E+00  0.39217027082E+02  0.39217027082E+02  0.00000000000E+00 0.  1.
          2   -1    0    0  501    0  0.00000000000E+00 -0.00000000000E+00 -0.40084679366E+03  0.40084679366E+03  0.00000000000E+00 0. -1.
         23    2    1    2    0    0  0.33889817677E+02  0.24708172950E+02 -0.27482896315E+03  0.30481877720E+03  0.12499805755E+03 0.  0.
          5    1    3    3  502    0 -0.23870981837E+02  0.37002284914E+02 -0.21894376955E+03  0.22337738714E+03  0.47000000000E+01 0. -1.
         -5    1    3    3    0  502  0.57760799513E+02 -0.12294111963E+02 -0.55885193604E+02  0.81441390052E+02  0.47000000000E+01 0. -1.
        -11    1    1    2    0    0 -0.41774492127E+02  0.24109597077E+02 -0.65644460539E+02  0.81459045312E+02  0.00000000000E+00 0. -1.
         11    1    1    2    0    0  0.78846744503E+01 -0.48817770028E+02 -0.21156342885E+02  0.53785998233E+02  0.00000000000E+00 0.  1.
<mgrwt>
<rscale>  0 0.12416875E+03</rscale>
<asrwt>0</asrwt>
<pdfrwt beam="2">  1        2 0.61668736E-01 0.13184661E+03</pdfrwt>
<pdfrwt beam="1">  1       -2 0.60333889E-02 0.13184661E+03</pdfrwt>
<totfact> 0.11051365E+04</totfact>
</mgrwt>
</event>
<event>
 7    1  0.5928109E-006  0.1988773E+03  0.7546771E-02  0.1154707E+00
          1   -1    0    0  501    0  0.00000000000E+00  0.00000000000E+00  0.18845933932E+03  0.18845933932E+03  0.00000000000E+00 0. -1.
         -1   -1    0    0    0  501 -0.00000000000E+00 -0.00000000000E+00 -0.19172655180E+03  0.19172655180E+03  0.00000000000E+00 0.  1.
         23    2    1    2    0    0 -0.55740262605E+02  0.14429388681E+03 -0.10334832832E+02  0.19914561480E+03  0.12499785789E+03 0.  0.
          5    1    3    3  502    0  0.16278479870E+02 -0.15858339630E+02 -0.17482747550E+01  0.23272780395E+02  0.47000000000E+01 0. -1.
         -5    1    3    3    0  502 -0.72018742475E+02  0.16015222644E+03 -0.85865580770E+01  0.17587283441E+03  0.47000000000E+01 0. -1.
        -11    1    1    2    0    0  0.47233325912E+02 -0.33162002169E+02  0.33172983090E+02  0.66566900721E+02  0.00000000000E+00 0. -1.
         11    1    1    2    0    0  0.85069366932E+01 -0.11113188465E+03 -0.26105362739E+02  0.11447337560E+03  0.00000000000E+00 0.  1.
<mgrwt>
<rscale>  0 0.19422264E+03</rscale>
<asrwt>0</asrwt>
<pdfrwt beam="1">  1        1 0.28993745E-01 0.19887727E+03</pdfrwt>
<pdfrwt beam="2">  1       -1 0.29496393E-01 0.19887727E+03</pdfrwt>
<totfact> 0.16493100E+03</totfact>
</mgrwt>
</event>
<event>
 7    1  0.5928109E-006  0.2027961E+03  0.7546771E-02  0.1151215E+00
          2   -1    0    0  501    0  0.00000000000E+00  0.00000000000E+00  0.58414692363E+03  0.58414692363E+03  0.00000000000E+00 0. -1.
         -2   -1    0    0    0  501 -0.00000000000E+00 -0.00000000000E+00 -0.10907671092E+03  0.10907671092E+03  0.00000000000E+00 0.  1.
         23    2    1    2    0    0  0.90119985643E+02  0.13183131617E+03  0.46546012605E+03  0.50771979462E+03  0.12500061270E+03 0.  0.
          5    1    3    3  502    0 -0.11425174435E+02  0.20647386535E+02  0.68758360365E+01  0.25024314232E+02  0.47000000000E+01 0.  1.
         -5    1    3    3    0  502  0.10154516008E+03  0.11118392964E+03  0.45858429001E+03  0.48269548039E+03  0.47000000000E+01 0.  1.
        -11    1    1    2    0    0  0.14433315498E+02 -0.23633486086E+02  0.20792052643E+02  0.34629058809E+02  0.00000000000E+00 0.  1.
         11    1    1    2    0    0 -0.10455330114E+03 -0.10819783009E+03 -0.11181965979E+02  0.15087478112E+03  0.00000000000E+00 0. -1.
<mgrwt>
<rscale>  0 0.19826089E+03</rscale>
<asrwt>0</asrwt>
<pdfrwt beam="1">  1        2 0.89868756E-01 0.20279611E+03</pdfrwt>
<pdfrwt beam="2">  1       -2 0.16781033E-01 0.20279611E+03</pdfrwt>
<totfact> 0.14713833E+03</totfact>
</mgrwt>
</event>
<event>
 7    1  0.5928109E-006  0.2195921E+03  0.7546771E-02  0.1138881E+00
          3   -1    0    0  501    0  0.00000000000E+00  0.00000000000E+00  0.15549233455E+03  0.15549233455E+03  0.00000000000E+00 0. -1.
         -3   -1    0    0    0  501 -0.00000000000E+00 -0.00000000000E+00 -0.28637319285E+03  0.28637319285E+03  0.00000000000E+00 0.  1.
         23    2    1    2    0    0 -0.17256420923E+03 -0.53105015860E+02 -0.30497023387E+02  0.22169970757E+03  0.12498857101E+03 0.  0.
          5    1    3    3  502    0 -0.51826907498E+02 -0.70606684433E+02 -0.45293985048E+02  0.98716600980E+02  0.47000000000E+01 0. -1.
         -5    1    3    3    0  502 -0.12073730173E+03  0.17501668572E+02  0.14796961661E+02  0.12298310659E+03  0.47000000000E+01 0. -1.
        -11    1    1    2    0    0  0.64611853669E+02 -0.34587079755E+01 -0.40757730406E+01  0.64832601531E+02  0.00000000000E+00 0. -1.
         11    1    1    2    0    0  0.10795235556E+03  0.56563723836E+02 -0.96308061879E+02  0.15533321830E+03  0.00000000000E+00 0.  1.
<mgrwt>
<rscale>  0 0.21342652E+03</rscale>
<asrwt>0</asrwt>
<pdfrwt beam="1">  1        3 0.23921898E-01 0.21959210E+03</pdfrwt>
<pdfrwt beam="2">  1       -3 0.44057414E-01 0.21959210E+03</pdfrwt>
<totfact> 0.20626295E+02</totfact>
</mgrwt>
</event>
<event>
 7    1  0.5928109E-006  0.1626029E+03  0.7546771E-02  0.1191736E+00
          1   -1    0    0  501    0  0.00000000000E+00  0.00000000000E+00  0.75463618248E+03  0.75463618248E+03  0.00000000000E+00 0. -1.
         -1   -1    0    0    0  501 -0.00000000000E+00 -0.00000000000E+00 -0.30859998152E+02  0.30859998152E+02  0.00000000000E+00 0.  1.
         23    2    1    2    0    0 -0.10017992976E+03 -0.27957805658E+02  0.37760594803E+03  0.41112767342E+03  0.12498821803E+03 0.  0.
          5    1    3    3  502    0 -0.83483112441E+02 -0.34228728325E+02  0.38168899722E+03  0.39223668429E+03  0.47000000000E+01 0. -1.
         -5    1    3    3    0  502 -0.16696817317E+02  0.62709226666E+01 -0.40830491952E+01  0.18890989131E+02  0.47000000000E+01 0. -1.
        -11    1    1    2    0    0  0.24948978170E+02 -0.33191763071E+02  0.66788891333E+02  0.78644139343E+02  0.00000000000E+00 0. -1.
         11    1    1    2    0    0  0.75230951588E+02  0.61149568729E+02  0.27938134497E+03  0.29572436786E+03  0.00000000000E+00 0.  1.
<mgrwt>
<rscale>  0 0.15733714E+03</rscale>
<asrwt>0</asrwt>
<pdfrwt beam="1">  1        1 0.11609786E+00 0.16260293E+03</pdfrwt>
<pdfrwt beam="2">  1       -1 0.47476926E-02 0.16260293E+03</pdfrwt>
<totfact> 0.46950210E+03</totfact>
</mgrwt>
</event>
<event>
 7    1  0.5928109E-006  0.1277756E+03  0.7546771E-02  0.1260120E+00
         -2   -1    0    0    0  501 -0.00000000000E+00  0.00000000000E+00  0.33391651782E+03  0.33391651782E+03  0.00000000000E+00 0.  1.
          2   -1    0    0  501    0  0.00000000000E+00 -0.00000000000E+00 -0.32165716562E+02  0.32165716562E+02  0.00000000000E+00 0. -1.
         23    2    1    2    0    0  0.85781251766E+01 -0.25049815971E+02  0.14016925472E+03  0.18966821611E+03  0.12500213887E+03 0.  0.
          5    1    3    3  502    0  0.47522548377E+02  0.30389430189E+02  0.42844032353E+02  0.70990218902E+02  0.47000000000E+01 0.  1.
         -5    1    3    3    0  502 -0.38944423200E+02 -0.55439246160E+02  0.97325222369E+02  0.11867799721E+03  0.47000000000E+01 0.  1.
        -11    1    1    2    0    0 -0.28102434233E+02 -0.25221648302E+01  0.11769329178E+03  0.12102817464E+03  0.00000000000E+00 0.  1.
         11    1    1    2    0    0  0.19524309057E+02  0.27571980801E+02  0.43888254753E+02  0.55385843631E+02  0.00000000000E+00 0. -1.
<mgrwt>
<rscale>  0 0.11024315E+03</rscale>
<asrwt>0</asrwt>
<pdfrwt beam="2">  1        2 0.49485720E-02 0.12777563E+03</pdfrwt>
<pdfrwt beam="1">  1       -2 0.51371770E-01 0.12777563E+03</pdfrwt>
<totfact> 0.54616104E+03</totfact>
</mgrwt>
</event>
<event>
 7    1  0.5928109E-006  0.1537825E+03  0.7546771E-02  0.1215768E+00
         -1   -1    0    0    0  501 -0.00000000000E+00  0.00000000000E+00  0.25969479111E+02  0.25969479111E+02  0.00000000000E+00 0.  1.
          1   -1    0    0  501    0  0.00000000000E+00 -0.00000000000E+00 -0.63832365385E+03  0.63832365385E+03  0.00000000000E+00 0. -1.
         23    2    1    2    0    0  0.81633079304E+02 -0.36820124412E+02 -0.42162056872E+03  0.44879055800E+03  0.12501751791E+03 0.  0.
          5    1    3    3  502    0  0.28618809636E+02  0.37847478302E+02 -0.24698946275E+03  0.25154990079E+03  0.47000000000E+01 0. -1.
         -5    1    3    3    0  502  0.53014269668E+02 -0.74667602714E+02 -0.17463110597E+03  0.19724065721E+03  0.47000000000E+01 0. -1.
        -11    1    1    2    0    0 -0.19765953673E+02  0.29043816575E+02 -0.45779267289E+02  0.57705957399E+02  0.00000000000E+00 0.  1.
         11    1    1    2    0    0 -0.61867125631E+02  0.77763078374E+01 -0.14495433873E+03  0.15779661756E+03  0.00000000000E+00 0. -1.
<mgrwt>
<rscale>  0 0.13820254E+03</rscale>
<asrwt>0</asrwt>
<pdfrwt beam="2">  1        1 0.98203643E-01 0.15378251E+03</pdfrwt>
<pdfrwt beam="1">  1       -1 0.39953043E-02 0.15378251E+03</pdfrwt>
<totfact> 0.76821203E+03</totfact>
</mgrwt>
</event>
<event>
 7    1  0.5928109E-006  0.1601778E+03  0.7546771E-02  0.1195593E+00
          1   -1    0    0  501    0  0.00000000000E+00  0.00000000000E+00  0.11212604261E+04  0.11212604261E+04  0.00000000000E+00 0. -1.
         -1   -1    0    0    0  501 -0.00000000000E+00 -0.00000000000E+00 -0.21629818462E+02  0.21629818462E+02  0.00000000000E+00 0.  1.
         23    2    1    2    0    0  0.10008944511E+03  0.43318352845E+01  0.75942519362E+03  0.77613371792E+03  0.12498104486E+03 0.  0.
          5    1    3    3  502    0  0.70759621447E+02 -0.31588705682E+02  0.67704353783E+03  0.68147986945E+03  0.47000000000E+01 0.  1.
         -5    1    3    3    0  502  0.29329823660E+02  0.35920540967E+02  0.82381655792E+02  0.94653848471E+02  0.47000000000E+01 0.  1.
        -11    1    1    2    0    0 -0.22438837466E+02  0.34648707921E+02  0.17824297373E+03  0.18296062984E+03  0.00000000000E+00 0.  1.
         11    1    1    2    0    0 -0.77650607641E+02 -0.38980543205E+02  0.16196244028E+03  0.18379589679E+03  0.00000000000E+00 0. -1.
<mgrwt>
<rscale>  0 0.15404108E+03</rscale>
<asrwt>0</asrwt>
<pdfrwt beam="1">  1        1 0.17250156E+00 0.16017779E+03</pdfrwt>
<pdfrwt beam="2">  1       -1 0.33276652E-02 0.16017779E+03</pdfrwt>
<totfact> 0.41555271E+03</totfact>
</mgrwt>
</event>
<event>
 7    1  0.5928109E-006  0.1490213E+03  0.7546771E-02  0.1210857E+00
          2   -1    0    0  501    0  0.00000000000E+00  0.00000000000E+00  0.43765869130E+02  0.43765869130E+02  0.00000000000E+00 0. -1.
         -2   -1    0    0    0  501 -0.00000000000E+00 -0.00000000000E+00 -0.56429013484E+03  0.56429013484E+03  0.00000000000E+00 0.  1.
         23    2    1    2    0    0 -0.81004176772E+02  0.44680966788E+01 -0.12650080974E+03  0.19547329076E+03  0.12500284794E+03 0.  0.
          5    1    3    3  502    0 -0.76483876704E+02  0.27529919828E+02 -0.14425457917E+03  0.16564767881E+03  0.47000000000E+01 0. -1.
         -5    1    3    3    0  502 -0.45203000680E+01 -0.23061823149E+02  0.17753769431E+02  0.29825611958E+02  0.47000000000E+01 0. -1.
        -11    1    1    2    0    0  0.34465690752E+02  0.43512520144E+02 -0.17826808921E+03  0.18671029666E+03  0.00000000000E+00 0.  1.
         11    1    1    2    0    0  0.46538486020E+02 -0.47980616823E+02 -0.21575536676E+03  0.22587241655E+03  0.00000000000E+00 0. -1.
<mgrwt>
<rscale>  0 0.14185318E+03</rscale>
<asrwt>0</asrwt>
<pdfrwt beam="1">  1        2 0.67332112E-02 0.14902132E+03</pdfrwt>
<pdfrwt beam="2">  1       -2 0.86813859E-01 0.14902132E+03</pdfrwt>
<totfact> 0.12280822E+03</totfact>
</mgrwt>
</event>
<event>
 6    1  0.5928109E-006  0.3127577E+03  0.7546771E-02  0.1130455E+00
          2   -1    0    0  501    0  0.00000000000E+00  0.00000000000E+00  0.16656500067E+03  0.16656500067E+03  0.00000000000E+00 0. -1.
         -2   -1    0    0    0  501 -0.00000000000E+00 -0.00000000000E+00 -0.24375681143E+03  0.24375681143E+03  0.00000000000E+00 0.  1.
          5    1    1    2  502    0 -0.24288078976E+01 -0.12025018655E+02  0.13476713186E+03  0.13540594525E+03  0.47000000000E+01 0. -1.
         -5    1    1    2    0  502 -0.71121488527E+02 -0.63473201444E+01 -0.16373656655E+03  0.17869053648E+03  0.47000000000E+01 0.  1.
        -11    1    1    2    0    0  0.14301601222E+02 -0.31677516124E+01 -0.25127654335E+02  0.29085554149E+02  0.00000000000E+00 0. -1.
         11    1    1    2    0    0  0.59248695203E+02  0.21540090411E+02 -0.23094721726E+02  0.67139776211E+02  0.00000000000E+00 0.  1.
<mgrwt>
<rscale>  0 0.22466133E+03</rscale>
<asrwt>0</asrwt>
<pdfrwt beam="1">  1        2 0.25625385E-01 0.31275769E+03</pdfrwt>
<pdfrwt beam="2">  1       -2 0.37501048E-01 0.31275769E+03</pdfrwt>
<totfact> 0.14132312E+03</totfact>
</mgrwt>
</event>
<event>
 7    1  0.1843622E-005  0.2747526E+03  0.7546771E-02  0.1100540E+00
          1   -1    0    0  501    0  0.00000000000E+00  0.00000000000E+00  0.32710981559E+03  0.32710981559E+03  0.00000000000E+00 0. -1.
         -1   -1    0    0    0  501 -0.00000000000E+00 -0.00000000000E+00 -0.22103476039E+03  0.22103476039E+03  0.00000000000E+00 0.  1.
         23    2    1    2    0    0 -0.13112317278E+03  0.20656960884E+03  0.77022313800E+02  0.28534441863E+03  0.12499884275E+03 0.  0.
          5    1    3    3  502    0 -0.65029549512E+02  0.87446767297E+02  0.98961013853E+02  0.14727916242E+03  0.47000000000E+01 0.  1.
         -5    1    3    3    0  502 -0.66093623265E+02  0.11912284154E+03 -0.21938700053E+02  0.13806525621E+03  0.47000000000E+01 0.  1.
        -11    1    1    2    0    0  0.21724565457E+02 -0.49592133497E+02 -0.30838373245E+02  0.62308440147E+02  0.00000000000E+00 0.  1.
         11    1    1    2    0    0  0.10939860732E+03 -0.15697747534E+03  0.59891114646E+02  0.20049171719E+03  0.00000000000E+00 0. -1.
<mgrwt>
<rscale>  0 0.27129715E+03</rscale>
<asrwt>0</asrwt>
<pdfrwt beam="1">  1        1 0.50324587E-01 0.27475262E+03</pdfrwt>
<pdfrwt beam="2">  1       -1 0.34005348E-01 0.27475262E+03</pdfrwt>
<totfact> 0.64781693E+02</totfact>
</mgrwt>
</event>
<event>
 7    1  0.5928109E-006  0.1403609E+03  0.7546771E-02  0.1223549E+00
         -1   -1    0    0    0  501 -0.00000000000E+00  0.00000000000E+00  0.23424637750E+02  0.23424637750E+02  0.00000000000E+00 0.  1.
          1   -1    0    0  501    0  0.00000000000E+00 -0.00000000000E+00 -0.79718932879E+03  0.79718932879E+03  0.00000000000E+00 0. -1.
         23    2    1    2    0    0 -0.46026252606E+02  0.44250754177E+02 -0.58049052121E+03  0.59721891940E+03  0.12499858919E+03 0.  0.
          5    1    3    3  502    0 -0.47349303913E+02 -0.36162596542E+02 -0.24064549295E+03  0.24795570823E+03  0.47000000000E+01 0. -1.
         -5    1    3    3    0  502  0.13230513068E+01  0.80413350719E+02 -0.33984502826E+03  0.34926321116E+03  0.47000000000E+01 0. -1.
        -11    1    1    2    0    0  0.73765156105E+02 -0.39938463640E+02 -0.14825707461E+03  0.17034241781E+03  0.00000000000E+00 0.  1.
         11    1    1    2    0    0 -0.27738903499E+02 -0.43122905370E+01 -0.45017095222E+02  0.53052629333E+02  0.00000000000E+00 0. -1.
<mgrwt>
<rscale>  0 0.13266827E+03</rscale>
<asrwt>0</asrwt>
<pdfrwt beam="2">  1        1 0.12264449E+00 0.14036094E+03</pdfrwt>
<pdfrwt beam="1">  1       -1 0.36037911E-02 0.14036094E+03</pdfrwt>
<totfact> 0.64511323E+03</totfact>
</mgrwt>
</event>
<event>
 7    1  0.5928109E-006  0.1250195E+03  0.7546771E-02  0.1250710E+00
          2   -1    0    0  501    0  0.00000000000E+00  0.00000000000E+00  0.23628886367E+03  0.23628886367E+03  0.00000000000E+00 0. -1.
         -2   -1    0    0    0  501 -0.00000000000E+00 -0.00000000000E+00 -0.49498108451E+02  0.49498108451E+02  0.00000000000E+00 0.  1.
         23    2    1    2    0    0 -0.16054464517E+01 -0.14086185642E+01  0.11411435096E+03  0.16926889731E+03  0.12500125134E+03 0.  0.
          5    1    3    3  502    0  0.12107094707E+02  0.28131680980E+02  0.12934878299E+03  0.13300816094E+03  0.47000000000E+01 0.  1.
         -5    1    3    3    0  502 -0.13712541159E+02 -0.29540299545E+02 -0.15234432031E+02  0.36260736362E+02  0.47000000000E+01 0.  1.
        -11    1    1    2    0    0 -0.13746858139E+02  0.16004227350E+02 -0.15278094440E+02  0.26048638573E+02  0.00000000000E+00 0.  1.
         11    1    1    2    0    0  0.15352304591E+02 -0.14595608786E+02  0.87954498706E+02  0.90469436247E+02  0.00000000000E+00 0. -1.
<mgrwt>
<rscale>  0 0.11550020E+03</rscale>
<asrwt>0</asrwt>
<pdfrwt beam="1">  1        2 0.36352132E-01 0.12501950E+03</pdfrwt>
<pdfrwt beam="2">  1       -2 0.76150938E-02 0.12501950E+03</pdfrwt>
<totfact> 0.13512179E+04</totfact>
</mgrwt>
</event>
<event>
 7    1  0.5928109E-006  0.1578053E+03  0.7546771E-02  0.1199109E+00
          1   -1    0    0  501    0  0.00000000000E+00  0.00000000000E+00  0.44468145581E+02  0.44468145581E+02  0.00000000000E+00 0. -1.
         -1   -1    0    0    0  501 -0.00000000000E+00 -0.00000000000E+00 -0.48954015529E+03  0.48954015529E+03  0.00000000000E+00 0.  1.
         23    2    1    2    0    0 -0.91299857236E+02  0.30695431933E+02 -0.19448515473E+03  0.25045353731E+03  0.12499850187E+03 0.  0.
          5    1    3    3  502    0 -0.10218538731E+03  0.88004009796E+01 -0.20012330959E+03  0.22492383039E+03  0.47000000000E+01 0. -1.
         -5    1    3    3    0  502  0.10885530074E+02  0.21895030953E+02  0.56381548587E+01  0.25529706924E+02  0.47000000000E+01 0. -1.
        -11    1    1    2    0    0  0.84457626012E+02 -0.52023115874E+02 -0.23804177732E+03  0.25788249829E+03  0.00000000000E+00 0.  1.
         11    1    1    2    0    0  0.68422312234E+01  0.21327683942E+02 -0.12545077667E+02  0.25672265270E+02  0.00000000000E+00 0. -1.
<mgrwt>
<rscale>  0 0.15111570E+03</rscale>
<asrwt>0</asrwt>
<pdfrwt beam="1">  1        1 0.68412533E-02 0.15780526E+03</pdfrwt>
<pdfrwt beam="2">  1       -1 0.75313868E-01 0.15780526E+03</pdfrwt>
<totfact> 0.19491452E+03</totfact>
</mgrwt>
</event>
<event>
 7    1  0.5928109E-006  0.1327914E+03  0.7546771E-02  0.1235726E+00
         -1   -1    0    0    0  501 -0.00000000000E+00  0.00000000000E+00  0.10616913046E+03  0.10616913046E+03  0.00000000000E+00 0.  1.
          1   -1    0    0  501    0  0.00000000000E+00 -0.00000000000E+00 -0.14856156906E+03  0.14856156906E+03  0.00000000000E+00 0. -1.
         23    2    1    2    0    0 -0.48815162588E+01  0.44559936319E+02 -0.67322818754E+02  0.14888218677E+03  0.12499650590E+03 0.  0.
          5    1    3    3  502    0 -0.20131887691E+01  0.73617305672E+02 -0.86448928574E+02  0.11366207756E+03  0.47000000000E+01 0.  1.
         -5    1    3    3    0  502 -0.28683274897E+01 -0.29057369353E+02  0.19126109820E+02  0.35220109216E+02  0.47000000000E+01 0.  1.
        -11    1    1    2    0    0 -0.38698617871E+02  0.18033834704E+01  0.14520939524E+02  0.41372610525E+02  0.00000000000E+00 0.  1.
         11    1    1    2    0    0  0.43580134129E+02 -0.46363319789E+02  0.10409440627E+02  0.64475902218E+02  0.00000000000E+00 0. -1.
<mgrwt>
<rscale>  0 0.12458056E+03</rscale>
<asrwt>0</asrwt>
<pdfrwt beam="2">  1        1 0.22855626E-01 0.13279135E+03</pdfrwt>
<pdfrwt beam="1">  1       -1 0.16333713E-01 0.13279135E+03</pdfrwt>
<totfact> 0.57253562E+03</totfact>
</mgrwt>
</event>
<event>
 7    1  0.5928109E-006  0.1345541E+03  0.7546771E-02  0.1233377E+00
          2   -1    0    0  501    0  0.00000000000E+00  0.00000000000E+00  0.25146910023E+03  0.25146910023E+03  0.00000000000E+00 0.  1.
         -2   -1    0    0    0  501 -0.00000000000E+00 -0.00000000000E+00 -0.59959628771E+02  0.59959628771E+02  0.00000000000E+00 0. -1.
         23    2    1    2    0    0 -0.41846666451E+02  0.26991036695E+02  0.14472424847E+03  0.19761049196E+03  0.12500055553E+03 0.  0.
          5    1    3    3  502    0 -0.64311484698E+02  0.59583961795E+02  0.12599281420E+03  0.15356592981E+03  0.47000000000E+01 0. -1.
         -5    1    3    3    0  502  0.22464818247E+02 -0.32592925100E+02  0.18731434268E+02  0.44044562152E+02  0.47000000000E+01 0. -1.
        -11    1    1    2    0    0  0.40073162612E+02 -0.13911858358E+00  0.68418514164E+02  0.79290420582E+02  0.00000000000E+00 0.  1.
         11    1    1    2    0    0  0.17735038387E+01 -0.26851918112E+02 -0.21633291176E+02  0.34527816457E+02  0.00000000000E+00 0. -1.
<mgrwt>
<rscale>  0 0.12608926E+03</rscale>
<asrwt>0</asrwt>
<pdfrwt beam="1">  1        2 0.38687553E-01 0.13455407E+03</pdfrwt>
<pdfrwt beam="2">  1       -2 0.92245584E-02 0.13455407E+03</pdfrwt>
<totfact> 0.94539722E+03</totfact>
</mgrwt>
</event>
<event>
 7    1  0.5928109E-006  0.1505904E+03  0.7546771E-02  0.1212405E+00
          1   -1    0    0  501    0  0.00000000000E+00  0.00000000000E+00  0.62882033928E+03  0.62882033928E+03  0.00000000000E+00 0. -1.
         -1   -1    0    0    0  501 -0.00000000000E+00 -0.00000000000E+00 -0.40549373668E+02  0.40549373668E+02  0.00000000000E+00 0.  1.
         23    2    1    2    0    0 -0.27295257286E+02 -0.79401351429E+02  0.50669915492E+03  0.52860334219E+03  0.12501141589E+03 0.  0.
          5    1    3    3  502    0  0.45385064988E+02 -0.43588263820E+01  0.14275010529E+03  0.14992826968E+03  0.47000000000E+01 0.  1.
         -5    1    3    3    0  502 -0.72680322274E+02 -0.75042525047E+02  0.36394904963E+03  0.37867507251E+03  0.47000000000E+01 0.  1.
        -11    1    1    2    0    0  0.28882889946E+02  0.44603935785E+02  0.11795476157E+01  0.53151893209E+02  0.00000000000E+00 0.  1.
         11    1    1    2    0    0 -0.15876326603E+01  0.34797415644E+02  0.80392263074E+02  0.87614477543E+02  0.00000000000E+00 0. -1.
<mgrwt>
<rscale>  0 0.14068892E+03</rscale>
<asrwt>0</asrwt>
<pdfrwt beam="1">  1        1 0.96741583E-01 0.15059037E+03</pdfrwt>
<pdfrwt beam="2">  1       -1 0.62383656E-02 0.15059037E+03</pdfrwt>
<totfact> 0.40450671E+03</totfact>
</mgrwt>
</event>
<event>
 7    1  0.5928109E-006  0.1329046E+03  0.7546771E-02  0.1232200E+00
         -2   -1    0    0    0  501 -0.00000000000E+00  0.00000000000E+00  0.28354847547E+03  0.28354847547E+03  0.00000000000E+00 0.  1.
          2   -1    0    0  501    0  0.00000000000E+00 -0.00000000000E+00 -0.11050707807E+03  0.11050707807E+03  0.00000000000E+00 0. -1.
         23    2    1    2    0    0 -0.45306368399E+02 -0.21306184505E+01 -0.52569065283E+02  0.14292352587E+03  0.12492566217E+03 0.  0.
          5    1    3    3  502    0  0.17628967536E+02  0.46422498487E+02 -0.49005008317E+01  0.50119195630E+02  0.47000000000E+01 0.  1.
         -5    1    3    3    0  502 -0.62935335935E+02 -0.48553116938E+02 -0.47668564452E+02  0.92804330236E+02  0.47000000000E+01 0.  1.
        -11    1    1    2    0    0  0.31767128791E+02  0.35270316036E+02  0.39919748546E+02  0.62022028255E+02  0.00000000000E+00 0. -1.
         11    1    1    2    0    0  0.13539239608E+02 -0.33139697585E+02  0.18569071413E+03  0.18910999942E+03  0.00000000000E+00 0.  1.
<mgrwt>
<rscale>  0 0.12685391E+03</rscale>
<asrwt>0</asrwt>
<pdfrwt beam="2">  1        2 0.17001089E-01 0.13290458E+03</pdfrwt>
<pdfrwt beam="1">  1       -2 0.43622842E-01 0.13290458E+03</pdfrwt>
<totfact> 0.16440673E+03</totfact>
</mgrwt>
</event>
<event>
 7    1  0.5928109E-006  0.1264936E+03  0.7546771E-02  0.1247900E+00
         -2   -1    0    0    0  501 -0.00000000000E+00  0.00000000000E+00  0.28793032722E+03  0.28793032722E+03  0.00000000000E+00 0.  1.
          2   -1    0    0  501    0  0.00000000000E+00 -0.00000000000E+00 -0.42658109835E+02  0.42658109835E+02  0.00000000000E+00 0. -1.
         23    2    1    2    0    0 -0.14920856577E+02 -0.12428336228E+02  0.11829240328E+03  0.17318694367E+03  0.12499411698E+03 0.  0.
          5    1    3    3  502    0  0.99590798241E+01 -0.25263140938E+02 -0.18686883990E+02  0.33297134926E+02  0.47000000000E+01 0. -1.
         -5    1    3    3    0  502 -0.24879936401E+02  0.12834804709E+02  0.13697928727E+03  0.13988980874E+03  0.47000000000E+01 0. -1.
        -11    1    1    2    0    0 -0.82031480139E+01  0.37912076169E+02  0.17340699725E+02  0.42489022391E+02  0.00000000000E+00 0. -1.
         11    1    1    2    0    0  0.23124004591E+02 -0.25483739941E+02  0.10963911437E+03  0.11491247099E+03  0.00000000000E+00 0.  1.
<mgrwt>
<rscale>  0 0.11713505E+03</rscale>
<asrwt>0</asrwt>
<pdfrwt beam="2">  1        2 0.65627863E-02 0.12649358E+03</pdfrwt>
<pdfrwt beam="1">  1       -2 0.44296972E-01 0.12649358E+03</pdfrwt>
<totfact> 0.50661591E+03</totfact>
</mgrwt>
</event>
<event>
 6    1  0.5928109E-006  0.2399549E+03  0.7546771E-02  0.1145113E+00
          2   -1    0    0  501    0  0.00000000000E+00  0.00000000000E+00  0.68062611266E+03  0.68062611266E+03  0.00000000000E+00 0. -1.
         -2   -1    0    0    0  501 -0.00000000000E+00 -0.00000000000E+00 -0.86037830716E+02  0.86037830716E+02  0.00000000000E+00 0.  1.
          5    1    1    2  502    0 -0.76764175143E+02  0.33216896707E+00  0.60739319957E+03  0.61224295652E+03  0.47000000000E+01 0. -1.
         -5    1    1    2    0  502 -0.14634745645E+02 -0.10185087741E+02 -0.16981428699E+02  0.25067323611E+02  0.47000000000E+01 0.  1.
        -11    1    1    2    0    0  0.10502214700E+03  0.25966226072E+02  0.32908563856E+01  0.10823458778E+03  0.00000000000E+00 0.  1.
         11    1    1    2    0    0 -0.13623226208E+02 -0.16113307298E+02  0.88565468915E+00  0.21119075468E+02  0.00000000000E+00 0. -1.
<mgrwt>
<rscale>  0 0.20558206E+03</rscale>
<asrwt>0</asrwt>
<pdfrwt beam="1">  1        2 0.10471171E+00 0.23995486E+03</pdfrwt>
<pdfrwt beam="2">  1       -2 0.13236590E-01 0.23995486E+03</pdfrwt>
<totfact> 0.18232930E+03</totfact>
</mgrwt>
</event>
<event>
 7    1  0.5928109E-006  0.1406028E+03  0.7546771E-02  0.1222124E+00
          2   -1    0    0  501    0  0.00000000000E+00  0.00000000000E+00  0.35092654890E+03  0.35092654890E+03  0.00000000000E+00 0. -1.
         -2   -1    0    0    0  501 -0.00000000000E+00 -0.00000000000E+00 -0.52402853858E+02  0.52402853858E+02  0.00000000000E+00 0.  1.
         23    2    1    2    0    0  0.29221527582E+02 -0.57367977804E+02  0.23012653555E+03  0.26968010454E+03  0.12499661543E+03 0.  0.
          5    1    3    3  502    0  0.72510843668E+02 -0.12249381699E+02  0.15643605424E+03  0.17292252274E+03  0.47000000000E+01 0. -1.
         -5    1    3    3    0  502 -0.43289316086E+02 -0.45118596105E+02  0.73690481305E+02  0.96757581804E+02  0.47000000000E+01 0. -1.
        -11    1    1    2    0    0  0.60646378081E+01  0.17986631382E+02 -0.21917219495E+02  0.28994193394E+02  0.00000000000E+00 0.  1.
         11    1    1    2    0    0 -0.35286165390E+02  0.39381346422E+02  0.90314378989E+02  0.10465510483E+03  0.00000000000E+00 0. -1.
<mgrwt>
<rscale>  0 0.13365990E+03</rscale>
<asrwt>0</asrwt>
<pdfrwt beam="1">  1        2 0.53988698E-01 0.14060276E+03</pdfrwt>
<pdfrwt beam="2">  1       -2 0.80619777E-02 0.14060276E+03</pdfrwt>
<totfact> 0.82080207E+03</totfact>
</mgrwt>
</event>
<event>
 7    1  0.5928109E-006  0.1252240E+03  0.7546771E-02  0.1251167E+00
          1   -1    0    0  501    0  0.00000000000E+00  0.00000000000E+00  0.11716791881E+03  0.11716791881E+03  0.00000000000E+00 0. -1.
         -1   -1    0    0    0  501 -0.00000000000E+00 -0.00000000000E+00 -0.14279912825E+03  0.14279912825E+03  0.00000000000E+00 0.  1.
         23    2    1    2    0    0 -0.61729296324E+01 -0.53571257896E+01  0.57313324958E+02  0.13771665288E+03  0.12495701423E+03 0.  0.
          5    1    3    3  502    0  0.51992806105E+02 -0.30129203532E+02  0.38759621023E+02  0.71661837920E+02  0.47000000000E+01 0. -1.
         -5    1    3    3    0  502 -0.58165735738E+02  0.24772077743E+02  0.18553703935E+02  0.66054814960E+02  0.47000000000E+01 0. -1.
        -11    1    1    2    0    0  0.79411612854E+01  0.39557303205E+02 -0.77773977396E+02  0.87616401657E+02  0.00000000000E+00 0.  1.
         11    1    1    2    0    0 -0.17682316530E+01 -0.34200177415E+02 -0.51705570089E+01  0.34633992525E+02  0.00000000000E+00 0. -1.
<mgrwt>
<rscale>  0 0.11523748E+03</rscale>
<asrwt>0</asrwt>
<pdfrwt beam="1">  1        1 0.18025834E-01 0.12522404E+03</pdfrwt>
<pdfrwt beam="2">  1       -1 0.21969097E-01 0.12522404E+03</pdfrwt>
<totfact> 0.48020783E+03</totfact>
</mgrwt>
</event>
<event>
 7    1  0.5928109E-006  0.1546780E+03  0.7546771E-02  0.1204487E+00
          3   -1    0    0  501    0  0.00000000000E+00  0.00000000000E+00  0.22867136661E+03  0.22867136661E+03  0.00000000000E+00 0. -1.
         -3   -1    0    0    0  501 -0.00000000000E+00 -0.00000000000E+00 -0.85813816695E+02  0.85813816695E+02  0.00000000000E+00 0.  1.
         23    2    1    2    0    0  0.14920799869E+02 -0.89877555973E+02  0.75558266523E+02  0.17214626339E+03  0.12499871609E+03 0.  0.
          5    1    3    3  502    0  0.62266058869E+02 -0.21863218285E+02  0.11169786696E+02  0.67096322818E+02  0.47000000000E+01 0.  1.
         -5    1    3    3    0  502 -0.47345258999E+02 -0.68014337688E+02  0.64388479827E+02  0.10504994058E+03  0.47000000000E+01 0.  1.
        -11    1    1    2    0    0 -0.15137214486E+02 -0.56103943981E+01  0.39831486570E+02  0.42978588973E+02  0.00000000000E+00 0. -1.
         11    1    1    2    0    0  0.21641461694E+00  0.95487950371E+02  0.27467796818E+02  0.99360330934E+02  0.00000000000E+00 0.  1.
<mgrwt>
<rscale>  0 0.14677989E+03</rscale>
<asrwt>0</asrwt>
<pdfrwt beam="1">  1        3 0.35180210E-01 0.15467800E+03</pdfrwt>
<pdfrwt beam="2">  1       -3 0.13202126E-01 0.15467800E+03</pdfrwt>
<totfact> 0.86531212E+02</totfact>
</mgrwt>
</event>
<event>
 6    1  0.5928109E-006  0.3814290E+03  0.7546771E-02  0.1050407E+00
         -2   -1    0    0    0  501 -0.00000000000E+00  0.00000000000E+00  0.51230845544E+02  0.51230845544E+02  0.00000000000E+00 0.  1.
          2   -1    0    0  501    0  0.00000000000E+00 -0.00000000000E+00 -0.70996326712E+03  0.70996326712E+03  0.00000000000E+00 0. -1.
          5    1    1    2  502    0  0.69033728937E+02  0.13647110114E+03 -0.45820998098E+03  0.48308228476E+03  0.47000000000E+01 0. -1.
         -5    1    1    2    0  502 -0.32880202995E+02 -0.19456626372E+02 -0.59613740078E+02  0.70961652073E+02  0.47000000000E+01 0.  1.
        -11    1    1    2    0    0 -0.90588215270E+01 -0.58872762101E+02 -0.12875235978E+03  0.14186343614E+03  0.00000000000E+00 0. -1.
         11    1    1    2    0    0 -0.27094704415E+02 -0.58141712666E+02 -0.12156340731E+02  0.65286739688E+02  0.00000000000E+00 0.  1.
<mgrwt>
<rscale>  0 0.38142899E+03</rscale>
<asrwt>0</asrwt>
<pdfrwt beam="2">  1        2 0.10922511E+00 0.38142899E+03</pdfrwt>
<pdfrwt beam="1">  1       -2 0.78816692E-02 0.38142899E+03</pdfrwt>
<totfact> 0.40105738E+03</totfact>
</mgrwt>
</event>
<event>
 7    1  0.5928109E-006  0.1520891E+03  0.7546771E-02  0.1206861E+00
          2   -1    0    0  501    0  0.00000000000E+00  0.00000000000E+00  0.30605880108E+02  0.30605880108E+02  0.00000000000E+00 0. -1.
         -2   -1    0    0    0  501 -0.00000000000E+00 -0.00000000000E+00 -0.63143074893E+03  0.63143074893E+03  0.00000000000E+00 0.  1.
         23    2    1    2    0    0  0.68559111051E+02 -0.52969619365E+02 -0.35036551573E+03  0.38195166525E+03  0.12499979076E+03 0.  0.
          5    1    3    3  502    0  0.28457843638E+02 -0.45308875634E+02 -0.35424570029E+02  0.64340758758E+02  0.47000000000E+01 0. -1.
         -5    1    3    3    0  502  0.40101267414E+02 -0.76607437306E+01 -0.31494094570E+03  0.31761090649E+03  0.47000000000E+01 0. -1.
        -11    1    1    2    0    0 -0.70792395395E+02  0.69552642516E+02 -0.16142454838E+03  0.18949147249E+03  0.00000000000E+00 0. -1.
         11    1    1    2    0    0  0.22332843441E+01 -0.16583023151E+02 -0.89034804710E+02  0.90593491298E+02  0.00000000000E+00 0.  1.
<mgrwt>
<rscale>  0 0.14491792E+03</rscale>
<asrwt>0</asrwt>
<pdfrwt beam="1">  1        2 0.47085965E-02 0.15208905E+03</pdfrwt>
<pdfrwt beam="2">  1       -2 0.97143201E-01 0.15208905E+03</pdfrwt>
<totfact> 0.15168075E+03</totfact>
</mgrwt>
</event>
<event>
 7    1  0.5928109E-006  0.3319307E+03  0.7546771E-02  0.1071467E+00
          2   -1    0    0  501    0  0.00000000000E+00  0.00000000000E+00  0.19996442678E+03  0.19996442678E+03  0.00000000000E+00 0. -1.
         -2   -1    0    0    0  501 -0.00000000000E+00 -0.00000000000E+00 -0.60528169352E+03  0.60528169352E+03  0.00000000000E+00 0.  1.
         23    2    1    2    0    0  0.12037752513E+03 -0.28295152549E+03 -0.66990022790E+02  0.33862317861E+03  0.12500271839E+03 0.  0.
          5    1    3    3  502    0  0.99623990418E+02 -0.10774092712E+03 -0.68750147916E+02  0.16211637697E+03  0.47000000000E+01 0.  1.
         -5    1    3    3    0  502  0.20753534715E+02 -0.17521059837E+03  0.17601251266E+01  0.17650680164E+03  0.47000000000E+01 0.  1.
        -11    1    1    2    0    0 -0.49677832644E+02  0.20880957940E+03 -0.19189663088E+03  0.28791256389E+03  0.00000000000E+00 0.  1.
         11    1    1    2    0    0 -0.70699692490E+02  0.74141946096E+02 -0.14643061307E+03  0.17871037780E+03  0.00000000000E+00 0. -1.
<mgrwt>
<rscale>  0 0.32925563E+03</rscale>
<asrwt>0</asrwt>
<pdfrwt beam="1">  1        2 0.30763758E-01 0.33193071E+03</pdfrwt>
<pdfrwt beam="2">  1       -2 0.93120260E-01 0.33193071E+03</pdfrwt>
<totfact> 0.17300609E+02</totfact>
</mgrwt>
</event>
<event>
 7    1  0.5928109E-006  0.1353230E+03  0.7546771E-02  0.1231676E+00
          1   -1    0    0  501    0  0.00000000000E+00  0.00000000000E+00  0.56294110069E+03  0.56294110069E+03  0.00000000000E+00 0. -1.
         -1   -1    0    0    0  501 -0.00000000000E+00 -0.00000000000E+00 -0.26177536340E+02  0.26177536340E+02  0.00000000000E+00 0.  1.
         23    2    1    2    0    0  0.30372067738E+02  0.42007210486E+02  0.33682756597E+03  0.36299467894E+03  0.12500103804E+03 0.  0.
          5    1    3    3  502    0  0.23518008098E+02 -0.75353955944E+01  0.29913955876E+03  0.30019401144E+03  0.47000000000E+01 0. -1.
         -5    1    3    3    0  502  0.68540596398E+01  0.49542606081E+02  0.37688007214E+02  0.62800667501E+02  0.47000000000E+01 0. -1.
        -11    1    1    2    0    0  0.28531306041E+02 -0.26533182116E+02  0.44298057537E+02  0.58994602119E+02  0.00000000000E+00 0.  1.
         11    1    1    2    0    0 -0.58903373779E+02 -0.15474028371E+02  0.15563794084E+03  0.16712935597E+03  0.00000000000E+00 0. -1.
<mgrwt>
<rscale>  0 0.12719656E+03</rscale>
<asrwt>0</asrwt>
<pdfrwt beam="1">  1        1 0.86606314E-01 0.13532305E+03</pdfrwt>
<pdfrwt beam="2">  1       -1 0.40273137E-02 0.13532305E+03</pdfrwt>
<totfact> 0.89427681E+03</totfact>
</mgrwt>
</event>
<event>
 7    1  0.5928109E-006  0.1452509E+03  0.7546771E-02  0.1216410E+00
          2   -1    0    0  501    0  0.00000000000E+00  0.00000000000E+00  0.12308264350E+03  0.12308264350E+03  0.00000000000E+00 0. -1.
         -2   -1    0    0    0  501 -0.00000000000E+00 -0.00000000000E+00 -0.14445444796E+03  0.14445444796E+03  0.00000000000E+00 0.  1.
         23    2    1    2    0    0 -0.20800598381E+02  0.70974615013E+02  0.11146054482E+02  0.14567796432E+03  0.12501109506E+03 0.  0.
          5    1    3    3  502    0 -0.49233932267E+02  0.90166422651E+02  0.28821951285E+02  0.10680242851E+03  0.47000000000E+01 0. -1.
         -5    1    3    3    0  502  0.28433333886E+02 -0.19191807639E+02 -0.17675896804E+02  0.38875535805E+02  0.47000000000E+01 0. -1.
        -11    1    1    2    0    0 -0.20703569507E+02 -0.69649390773E+02 -0.34183093542E+02  0.80300431564E+02  0.00000000000E+00 0. -1.
         11    1    1    2    0    0  0.41504167887E+02 -0.13252242401E+01  0.16652345990E+01  0.41558695571E+02  0.00000000000E+00 0.  1.
<mgrwt>
<rscale>  0 0.13773476E+03</rscale>
<asrwt>0</asrwt>
<pdfrwt beam="1">  1        2 0.18935791E-01 0.14525094E+03</pdfrwt>
<pdfrwt beam="2">  1       -2 0.22223761E-01 0.14525094E+03</pdfrwt>
<totfact> 0.49602866E+03</totfact>
</mgrwt>
</event>
<event>
 7    1  0.5928109E-006  0.1489896E+03  0.7546771E-02  0.1206257E+00
         -1   -1    0    0    0  501 -0.00000000000E+00  0.00000000000E+00  0.38909951587E+02  0.38909951587E+02  0.00000000000E+00 0.  1.
          1   -1    0    0  501    0  0.00000000000E+00 -0.00000000000E+00 -0.53544921093E+03  0.53544921093E+03  0.00000000000E+00 0. -1.
         23    2    1    2    0    0 -0.90420718000E+02 -0.37580980341E+02 -0.31099059075E+03  0.34483773444E+03  0.11229282806E+03 0.  0.
          5    1    3    3  502    0 -0.10703599991E+03 -0.50063094939E+02 -0.20445631783E+03  0.23619376506E+03  0.47000000000E+01 0. -1.
         -5    1    3    3    0  502  0.16615281905E+02  0.12482114599E+02 -0.10653427292E+03  0.10864396938E+03  0.47000000000E+01 0.  1.
        -11    1    1    2    0    0  0.47738601239E+02 -0.28652109594E+02 -0.66086431763E+02  0.86413736730E+02  0.00000000000E+00 0. -1.
         11    1    1    2    0    0  0.42682116762E+02  0.66233089935E+02 -0.11946223683E+03  0.14310769135E+03  0.00000000000E+00 0.  1.
<mgrwt>
<rscale>  0 0.14538855E+03</rscale>
<asrwt>0</asrwt>
<pdfrwt beam="2">  1        1 0.82376795E-01 0.14898965E+03</pdfrwt>
<pdfrwt beam="1">  1       -1 0.59861469E-02 0.14898965E+03</pdfrwt>
<totfact> 0.53464649E+03</totfact>
</mgrwt>
</event>
<event>
 7    1  0.5928109E-006  0.1307778E+03  0.7546771E-02  0.1242754E+00
         -1   -1    0    0    0  501 -0.00000000000E+00  0.00000000000E+00  0.90175646511E+02  0.90175646511E+02  0.00000000000E+00 0.  1.
          1   -1    0    0  501    0  0.00000000000E+00 -0.00000000000E+00 -0.17339319450E+03  0.17339319450E+03  0.00000000000E+00 0. -1.
         23    2    1    2    0    0 -0.38421771201E+02  0.78236799430E+00 -0.10499238333E+03  0.16770877804E+03  0.12500395623E+03 0.  0.
          5    1    3    3  502    0 -0.55193622976E+02 -0.13213237825E+02 -0.12522484888E+03  0.13756554237E+03  0.47000000000E+01 0. -1.
         -5    1    3    3    0  502  0.16771851774E+02  0.13995605819E+02  0.20232465551E+02  0.30143235667E+02  0.47000000000E+01 0. -1.
        -11    1    1    2    0    0 -0.19303491854E+02  0.19174047126E+02  0.21669089698E+02  0.34782442831E+02  0.00000000000E+00 0.  1.
         11    1    1    2    0    0  0.57725263055E+02 -0.19956415120E+02  0.10574564849E+00  0.61077620135E+02  0.00000000000E+00 0. -1.
<mgrwt>
<rscale>  0 0.12020817E+03</rscale>
<asrwt>0</asrwt>
<pdfrwt beam="2">  1        1 0.26675876E-01 0.13077780E+03</pdfrwt>
<pdfrwt beam="1">  1       -1 0.13873176E-01 0.13077780E+03</pdfrwt>
<totfact> 0.60839239E+03</totfact>
</mgrwt>
</event>
<event>
 7    1  0.5928109E-006  0.1267720E+03  0.7546771E-02  0.1245536E+00
          3   -1    0    0  501    0  0.00000000000E+00  0.00000000000E+00  0.13663046481E+03  0.13663046481E+03  0.00000000000E+00 0. -1.
         -3   -1    0    0    0  501 -0.00000000000E+00 -0.00000000000E+00 -0.91604309700E+02  0.91604309700E+02  0.00000000000E+00 0.  1.
         23    2    1    2    0    0 -0.13178344271E+02 -0.16686726325E+02  0.28607544173E+02  0.12995977692E+03  0.12497614349E+03 0.  0.
          5    1    3    3  502    0  0.40054983955E+01 -0.11866921731E+02 -0.48687555036E+02  0.50491938605E+02  0.47000000000E+01 0. -1.
         -5    1    3    3    0  502 -0.17183842666E+02 -0.48198045940E+01  0.77295099209E+02  0.79467838317E+02  0.47000000000E+01 0. -1.
        -11    1    1    2    0    0  0.23684645217E+02 -0.26423829788E+02 -0.20122394458E+02  0.40793283251E+02  0.00000000000E+00 0.  1.
         11    1    1    2    0    0 -0.10506300946E+02  0.43110556113E+02  0.36541005398E+02  0.57481714340E+02  0.00000000000E+00 0. -1.
<mgrwt>
<rscale>  0 0.11853363E+03</rscale>
<asrwt>0</asrwt>
<pdfrwt beam="1">  1        3 0.21020072E-01 0.12677205E+03</pdfrwt>
<pdfrwt beam="2">  1       -3 0.14092971E-01 0.12677205E+03</pdfrwt>
<totfact> 0.19229488E+03</totfact>
</mgrwt>
</event>
<event>
 7    1  0.5928109E-006  0.1457510E+03  0.7546771E-02  0.1215763E+00
         -2   -1    0    0    0  501 -0.00000000000E+00  0.00000000000E+00  0.83866698893E+02  0.83866698893E+02  0.00000000000E+00 0.  1.
          2   -1    0    0  501    0  0.00000000000E+00 -0.00000000000E+00 -0.20821043407E+03  0.20821043407E+03  0.00000000000E+00 0. -1.
         23    2    1    2    0    0  0.40329534029E+02  0.63176173453E+02 -0.79288363937E+02  0.16592167402E+03  0.12500262816E+03 0.  0.
          5    1    3    3  502    0  0.53167442513E+02  0.74141851758E+02 -0.10219768420E+03  0.13707752471E+03  0.47000000000E+01 0. -1.
         -5    1    3    3    0  502 -0.12837908484E+02 -0.10965678304E+02  0.22909320259E+02  0.28844149314E+02  0.47000000000E+01 0. -1.
        -11    1    1    2    0    0 -0.58198194149E+02 -0.51437183247E+02 -0.15568785318E+01  0.77686790983E+02  0.00000000000E+00 0.  1.
         11    1    1    2    0    0  0.17868660120E+02 -0.11738990207E+02 -0.43498492709E+02  0.48468667957E+02  0.00000000000E+00 0. -1.
<mgrwt>
<rscale>  0 0.13820627E+03</rscale>
<asrwt>0</asrwt>
<pdfrwt beam="2">  1        2 0.32032374E-01 0.14575101E+03</pdfrwt>
<pdfrwt beam="1">  1       -2 0.12902569E-01 0.14575101E+03</pdfrwt>
<totfact> 0.68391076E+03</totfact>
</mgrwt>
</event>
<event>
 7    1  0.5928109E-006  0.1469853E+03  0.7546771E-02  0.1215038E+00
          1   -1    0    0  501    0  0.00000000000E+00  0.00000000000E+00  0.40863297212E+03  0.40863297212E+03  0.00000000000E+00 0. -1.
         -1   -1    0    0    0  501 -0.00000000000E+00 -0.00000000000E+00 -0.42747836942E+02  0.42747836942E+02  0.00000000000E+00 0.  1.
         23    2    1    2    0    0 -0.40531082700E+02 -0.65851588753E+02  0.21993753980E+03  0.26453205701E+03  0.12500194946E+03 0.  0.
          5    1    3    3  502    0 -0.37586420420E+02 -0.15284429351E+02  0.21726013991E+01  0.40904314900E+02  0.47000000000E+01 0. -1.
         -5    1    3    3    0  502 -0.29446622795E+01 -0.50567159402E+02  0.21776493840E+03  0.22362774211E+03  0.47000000000E+01 0. -1.
        -11    1    1    2    0    0 -0.16626676370E+01  0.20320270077E+02 -0.71813232394E+01  0.21615948814E+02  0.00000000000E+00 0.  1.
         11    1    1    2    0    0  0.42193750337E+02  0.45531318677E+02  0.15312891863E+03  0.16523280324E+03  0.00000000000E+00 0. -1.
<mgrwt>
<rscale>  0 0.13873779E+03</rscale>
<asrwt>0</asrwt>
<pdfrwt beam="1">  1        1 0.62866608E-01 0.14698533E+03</pdfrwt>
<pdfrwt beam="2">  1       -1 0.65765906E-02 0.14698533E+03</pdfrwt>
<totfact> 0.65845529E+03</totfact>
</mgrwt>
</event>
<event>
 7    1  0.5928109E-006  0.2053470E+03  0.7546771E-02  0.1149329E+00
          2   -1    0    0  501    0  0.00000000000E+00  0.00000000000E+00  0.18658886888E+03  0.18658886888E+03  0.00000000000E+00 0. -1.
         -2   -1    0    0    0  501 -0.00000000000E+00 -0.00000000000E+00 -0.28454845573E+03  0.28454845573E+03  0.00000000000E+00 0.  1.
         23    2    1    2    0    0 -0.12659081531E+03  0.10255339092E+03  0.73136525450E+02  0.21798241378E+03  0.12499979540E+03 0.  0.
          5    1    3    3  502    0 -0.12190464531E+02  0.46595590734E+02 -0.27444322815E+02  0.55633059920E+02  0.47000000000E+01 0.  1.
         -5    1    3    3    0  502 -0.11440035078E+03  0.55957800187E+02  0.10058084827E+03  0.16234935386E+03  0.47000000000E+01 0.  1.
        -11    1    1    2    0    0  0.35793591252E+02  0.10434819037E+02 -0.15141138108E+02  0.40240783867E+02  0.00000000000E+00 0.  1.
         11    1    1    2    0    0  0.90797224060E+02 -0.11298820996E+03 -0.15595497419E+03  0.21291412696E+03  0.00000000000E+00 0. -1.
<mgrwt>
<rscale>  0 0.20048632E+03</rscale>
<asrwt>0</asrwt>
<pdfrwt beam="1">  1        2 0.28705980E-01 0.20534698E+03</pdfrwt>
<pdfrwt beam="2">  1       -2 0.43776685E-01 0.20534698E+03</pdfrwt>
<totfact> 0.91766249E+02</totfact>
</mgrwt>
</event>
<event>
 7    1  0.5928109E-006  0.1846143E+03  0.7546771E-02  0.1169040E+00
         -1   -1    0    0    0  501 -0.00000000000E+00  0.00000000000E+00  0.61869750525E+02  0.61869750525E+02  0.00000000000E+00 0.  1.
          1   -1    0    0  501    0  0.00000000000E+00 -0.00000000000E+00 -0.49837240781E+03  0.49837240781E+03  0.00000000000E+00 0. -1.
         23    2    1    2    0    0 -0.11500392206E+03  0.72327652750E+02 -0.27618122202E+03  0.33220249368E+03  0.12500095185E+03 0.  0.
          5    1    3    3  502    0 -0.88620936387E+02  0.10802569936E+03 -0.21535599095E+03  0.25675574955E+03  0.47000000000E+01 0.  1.
         -5    1    3    3    0  502 -0.26382985675E+02 -0.35698046605E+02 -0.60825231071E+02  0.75446744127E+02  0.47000000000E+01 0.  1.
        -11    1    1    2    0    0  0.78256810484E+02 -0.78317716471E+02 -0.71671646062E+02  0.13188865740E+03  0.00000000000E+00 0.  1.
         11    1    1    2    0    0  0.36747111579E+02  0.59900637209E+01 -0.88649789204E+02  0.96151007268E+02  0.00000000000E+00 0. -1.
<mgrwt>
<rscale>  0 0.17872760E+03</rscale>
<asrwt>0</asrwt>
<pdfrwt beam="2">  1        1 0.76672680E-01 0.18461427E+03</pdfrwt>
<pdfrwt beam="1">  1       -1 0.95184229E-02 0.18461427E+03</pdfrwt>
<totfact> 0.29411329E+03</totfact>
</mgrwt>
</event>
<event>
 6    1  0.5928109E-006  0.2019958E+03  0.7546771E-02  0.1170045E+00
         -2   -1    0    0    0  501 -0.00000000000E+00  0.00000000000E+00  0.53633285211E+02  0.53633285211E+02  0.00000000000E+00 0.  1.
          2   -1    0    0  501    0  0.00000000000E+00 -0.00000000000E+00 -0.10795908642E+04  0.10795908642E+04  0.00000000000E+00 0. -1.
          5    1    1    2  502    0  0.52912890427E+02 -0.26115932741E+02 -0.21394373219E+03  0.22198159036E+03  0.47000000000E+01 0. -1.
         -5    1    1    2    0  502 -0.13670472575E+03  0.25706988858E+02 -0.77104192790E+03  0.78350288825E+03  0.47000000000E+01 0.  1.
        -11    1    1    2    0    0 -0.51795877603E+00 -0.24766849843E+02  0.92314879025E+01  0.26436442675E+02  0.00000000000E+00 0. -1.
         11    1    1    2    0    0  0.84309794095E+02  0.25175793725E+02 -0.50203406767E+02  0.10130322809E+03  0.00000000000E+00 0.  1.
<mgrwt>
<rscale>  0 0.17770293E+03</rscale>
<asrwt>0</asrwt>
<pdfrwt beam="2">  1        2 0.16609088E+00 0.20199576E+03</pdfrwt>
<pdfrwt beam="1">  1       -2 0.82512757E-02 0.20199576E+03</pdfrwt>
<totfact> 0.21104336E+03</totfact>
</mgrwt>
</event>
<event>
 7    1  0.5928109E-006  0.1573778E+03  0.7546771E-02  0.1199677E+00
         -4   -1    0    0    0  501 -0.00000000000E+00  0.00000000000E+00  0.19547335895E+03  0.19547335895E+03  0.00000000000E+00 0.  1.
          4   -1    0    0  501    0  0.00000000000E+00 -0.00000000000E+00 -0.11190315974E+03  0.11190315974E+03  0.00000000000E+00 0. -1.
         23    2    1    2    0    0 -0.10736465675E+01  0.95619709988E+02  0.13893744906E+02  0.15798990675E+03  0.12499397118E+03 0.  0.
          5    1    3    3  502    0 -0.66041730421E+01  0.11115113445E+03 -0.26113017318E+02  0.11446470838E+03  0.47000000000E+01 0. -1.
         -5    1    3    3    0  502  0.55305264745E+01 -0.15531424465E+02  0.40006762224E+02  0.43525198364E+02  0.47000000000E+01 0. -1.
        -11    1    1    2    0    0  0.34480086369E+02 -0.37387085514E+02 -0.23636984229E+01  0.50914217951E+02  0.00000000000E+00 0. -1.
         11    1    1    2    0    0 -0.33406439802E+02 -0.58232624474E+02  0.72040152724E+02  0.98472393989E+02  0.00000000000E+00 0.  1.
<mgrwt>
<rscale>  0 0.15064960E+03</rscale>
<asrwt>0</asrwt>
<pdfrwt beam="2">  1        4 0.17215871E-01 0.15737781E+03</pdfrwt>
<pdfrwt beam="1">  1       -4 0.30072824E-01 0.15737781E+03</pdfrwt>
<totfact> 0.53320376E+02</totfact>
</mgrwt>
</event>
<event>
 7    1  0.5928109E-006  0.1358040E+03  0.7546771E-02  0.1231547E+00
         -1   -1    0    0    0  501 -0.00000000000E+00  0.00000000000E+00  0.78262790576E+02  0.78262790576E+02  0.00000000000E+00 0.  1.
          1   -1    0    0  501    0  0.00000000000E+00 -0.00000000000E+00 -0.18980909193E+03  0.18980909193E+03  0.00000000000E+00 0. -1.
         23    2    1    2    0    0 -0.50125894956E+02 -0.17444263490E+02 -0.84148257848E+02  0.15976121218E+03  0.12500323173E+03 0.  0.
          5    1    3    3  502    0  0.32429629565E+02  0.19828892949E+02 -0.36229759189E+01  0.38471831563E+02  0.47000000000E+01 0.  1.
         -5    1    3    3    0  502 -0.82555524521E+02 -0.37273156439E+02 -0.80525281929E+02  0.12128938061E+03  0.47000000000E+01 0.  1.
        -11    1    1    2    0    0  0.61815744121E+02 -0.85841110229E+01  0.79172857875E+01  0.62909113788E+02  0.00000000000E+00 0.  1.
         11    1    1    2    0    0 -0.11689849165E+02  0.26028374513E+02 -0.35315329290E+02  0.45401556539E+02  0.00000000000E+00 0. -1.
<mgrwt>
<rscale>  0 0.12728063E+03</rscale>
<asrwt>0</asrwt>
<pdfrwt beam="2">  1        1 0.29201399E-01 0.13580396E+03</pdfrwt>
<pdfrwt beam="1">  1       -1 0.12040429E-01 0.13580396E+03</pdfrwt>
<totfact> 0.67867304E+03</totfact>
</mgrwt>
</event>
<event>
 7    1  0.5928109E-006  0.1258419E+03  0.7546771E-02  0.1247826E+00
          2   -1    0    0  501    0  0.00000000000E+00  0.00000000000E+00  0.30477815702E+03  0.30477815702E+03  0.00000000000E+00 0. -1.
         -2   -1    0    0    0  501 -0.00000000000E+00 -0.00000000000E+00 -0.43191066473E+02  0.43191066473E+02  0.00000000000E+00 0.  1.
         23    2    1    2    0    0 -0.22532706920E+01 -0.14457696856E+02  0.19574746889E+03  0.23270849524E+03  0.12498827927E+03 0.  0.
          5    1    3    3  502    0 -0.23841466878E+02 -0.65235866095E+02  0.95454886342E+02  0.11814338363E+03  0.47000000000E+01 0. -1.
         -5    1    3    3    0  502  0.21588196186E+02  0.50778169239E+02  0.10029258255E+03  0.11456511162E+03  0.47000000000E+01 0. -1.
        -11    1    1    2    0    0  0.47656006974E+02  0.29173699981E+01  0.32250271302E+02  0.57616716737E+02  0.00000000000E+00 0.  1.
         11    1    1    2    0    0 -0.45402736282E+02  0.11540326858E+02  0.33589350354E+02  0.57644011511E+02  0.00000000000E+00 0. -1.
<mgrwt>
<rscale>  0 0.11717846E+03</rscale>
<asrwt>0</asrwt>
<pdfrwt beam="1">  1        2 0.46888946E-01 0.12584185E+03</pdfrwt>
<pdfrwt beam="2">  1       -2 0.66447797E-02 0.12584185E+03</pdfrwt>
<totfact> 0.12715947E+04</totfact>
</mgrwt>
</event>
<event>
 7    1  0.5928109E-006  0.1380068E+03  0.7546771E-02  0.1227563E+00
         -1   -1    0    0    0  501 -0.00000000000E+00  0.00000000000E+00  0.25579769711E+03  0.25579769711E+03  0.00000000000E+00 0.  1.
          1   -1    0    0  501    0  0.00000000000E+00 -0.00000000000E+00 -0.59359966635E+02  0.59359966635E+02  0.00000000000E+00 0. -1.
         23    2    1    2    0    0  0.10471506943E+02 -0.57543834817E+02  0.10790830798E+03  0.17518584804E+03  0.12499973216E+03 0.  0.
          5    1    3    3  502    0  0.52095746152E+02 -0.66909101334E+02  0.37753751921E+02  0.92942080849E+02  0.47000000000E+01 0. -1.
         -5    1    3    3    0  502 -0.41624239209E+02  0.93652665172E+01  0.70154556057E+02  0.82243767194E+02  0.47000000000E+01 0. -1.
        -11    1    1    2    0    0  0.13964115537E+02  0.13349803026E+02  0.87347493919E+02  0.89458361585E+02  0.00000000000E+00 0.  1.
         11    1    1    2    0    0 -0.24435622480E+02  0.44194031791E+02  0.11819285803E+01  0.50513454120E+02  0.00000000000E+00 0. -1.
<mgrwt>
<rscale>  0 0.12992765E+03</rscale>
<asrwt>0</asrwt>
<pdfrwt beam="2">  1        1 0.91323027E-02 0.13800681E+03</pdfrwt>
<pdfrwt beam="1">  1       -1 0.39353491E-01 0.13800681E+03</pdfrwt>
<totfact> 0.44165908E+03</totfact>
</mgrwt>
</event>
<event>
 7    1  0.5928109E-006  0.1277924E+03  0.7546771E-02  0.1248348E+00
         -2   -1    0    0    0  501 -0.00000000000E+00  0.00000000000E+00  0.10794487341E+03  0.10794487341E+03  0.00000000000E+00 0.  1.
          2   -1    0    0  501    0  0.00000000000E+00 -0.00000000000E+00 -0.11531162917E+03  0.11531162917E+03  0.00000000000E+00 0. -1.
         23    2    1    2    0    0  0.31381026210E+01 -0.26412418522E+02 -0.29510824756E+02  0.13115560491E+03  0.12499376137E+03 0.  0.
          5    1    3    3  502    0 -0.35403768998E+02 -0.51067183221E+02 -0.50870899783E+02  0.80443909067E+02  0.47000000000E+01 0. -1.
         -5    1    3    3    0  502  0.38541871619E+02  0.24654764699E+02  0.21360075027E+02  0.50711695844E+02  0.47000000000E+01 0. -1.
        -11    1    1    2    0    0 -0.29219120581E+02 -0.33344446205E+01  0.39211971217E+02  0.49014836684E+02  0.00000000000E+00 0.  1.
         11    1    1    2    0    0  0.26081017960E+02  0.29746863142E+02 -0.17067902226E+02  0.43086060983E+02  0.00000000000E+00 0. -1.
<mgrwt>
<rscale>  0 0.11687247E+03</rscale>
<asrwt>0</asrwt>
<pdfrwt beam="2">  1        2 0.17740251E-01 0.12779243E+03</pdfrwt>
<pdfrwt beam="1">  1       -2 0.16606904E-01 0.12779243E+03</pdfrwt>
<totfact> 0.86494003E+03</totfact>
</mgrwt>
</event>
<event>
 7    1  0.5928109E-006  0.2030518E+03  0.7546771E-02  0.1151098E+00
         -2   -1    0    0    0  501 -0.00000000000E+00  0.00000000000E+00  0.41864309439E+02  0.41864309439E+02  0.00000000000E+00 0.  1.
          2   -1    0    0  501    0  0.00000000000E+00 -0.00000000000E+00 -0.10038068799E+04  0.10038068799E+04  0.00000000000E+00 0. -1.
         23    2    1    2    0    0 -0.91557153673E+02  0.13123493769E+03 -0.66927927538E+03  0.69940314737E+03  0.12499877136E+03 0.  0.
          5    1    3    3  502    0 -0.68308446728E+02  0.13800155687E+03 -0.39439788203E+03  0.42341735078E+03  0.47000000000E+01 0.  1.
         -5    1    3    3    0  502 -0.23248706945E+02 -0.67666191793E+01 -0.27488139335E+03  0.27598579660E+03  0.47000000000E+01 0.  1.
        -11    1    1    2    0    0  0.73009673457E+02 -0.51420115804E+02 -0.21732440550E+03  0.23495603409E+03  0.00000000000E+00 0. -1.
         11    1    1    2    0    0  0.18547480216E+02 -0.79814821886E+02 -0.75338889576E+02  0.11131200788E+03  0.00000000000E+00 0.  1.
<mgrwt>
<rscale>  0 0.19839798E+03</rscale>
<asrwt>0</asrwt>
<pdfrwt beam="2">  1        2 0.15443181E+00 0.20305175E+03</pdfrwt>
<pdfrwt beam="1">  1       -2 0.64406636E-02 0.20305175E+03</pdfrwt>
<totfact> 0.34381587E+03</totfact>
</mgrwt>
</event>
<event>
 7    1  0.5928109E-006  0.2212888E+03  0.7546771E-02  0.1136131E+00
          2   -1    0    0  501    0  0.00000000000E+00  0.00000000000E+00  0.22841786385E+04  0.22841786385E+04  0.00000000000E+00 0. -1.
         -2   -1    0    0    0  501 -0.00000000000E+00 -0.00000000000E+00 -0.24747139560E+02  0.24747139560E+02  0.00000000000E+00 0.  1.
         23    2    1    2    0    0  0.15800965976E+03 -0.91522195673E+02  0.16779092220E+04  0.16924385100E+04  0.12500155197E+03 0.  0.
          5    1    3    3  502    0 -0.20337392783E+02 -0.86978944290E+01  0.25457816792E+03  0.25558050883E+03  0.47000000000E+01 0. -1.
         -5    1    3    3    0  502  0.17834705255E+03 -0.82824301244E+02  0.14233310540E+04  0.14368580011E+04  0.47000000000E+01 0. -1.
        -11    1    1    2    0    0 -0.86399378178E+02  0.44451479927E+01  0.32432465227E+03  0.33566514856E+03  0.00000000000E+00 0. -1.
         11    1    1    2    0    0 -0.71610281586E+02  0.87077047680E+02  0.25719762472E+03  0.28082211954E+03  0.00000000000E+00 0.  1.
<mgrwt>
<rscale>  0 0.21701080E+03</rscale>
<asrwt>0</asrwt>
<pdfrwt beam="1">  1        2 0.35141193E+00 0.22128884E+03</pdfrwt>
<pdfrwt beam="2">  1       -2 0.38072540E-02 0.22128884E+03</pdfrwt>
<totfact> 0.15626571E+03</totfact>
</mgrwt>
</event>
<event>
 6    1  0.5928109E-006  0.1342902E+03  0.7546771E-02  0.1238639E+00
         -2   -1    0    0    0  501 -0.00000000000E+00  0.00000000000E+00  0.29402639222E+02  0.29402639222E+02  0.00000000000E+00 0.  1.
          2   -1    0    0  501    0  0.00000000000E+00 -0.00000000000E+00 -0.13460886663E+04  0.13460886663E+04  0.00000000000E+00 0. -1.
          5    1    1    2  502    0  0.29933391851E+02  0.10397272117E+02 -0.11990689307E+04  0.11994967702E+04  0.47000000000E+01 0. -1.
         -5    1    1    2    0  502 -0.25208428600E+02 -0.13154122085E+02 -0.58415915000E+02  0.65138352187E+02  0.47000000000E+01 0.  1.
        -11    1    1    2    0    0  0.92529540662E+01 -0.39824146216E+02 -0.60465548070E+01  0.41329657703E+02  0.00000000000E+00 0.  1.
         11    1    1    2    0    0 -0.13977917317E+02  0.42580996185E+02 -0.53154626560E+02  0.69526525393E+02  0.00000000000E+00 0. -1.
<mgrwt>
<rscale>  0 0.12274299E+03</rscale>
<asrwt>0</asrwt>
<pdfrwt beam="2">  1        2 0.20709056E+00 0.13429019E+03</pdfrwt>
<pdfrwt beam="1">  1       -2 0.45234830E-02 0.13429019E+03</pdfrwt>
<totfact> 0.37292925E+03</totfact>
</mgrwt>
</event>
<event>
 7    1  0.5928109E-006  0.1437386E+03  0.7546771E-02  0.1218577E+00
          2   -1    0    0  501    0  0.00000000000E+00  0.00000000000E+00  0.36466525718E+03  0.36466525718E+03  0.00000000000E+00 0. -1.
         -2   -1    0    0    0  501 -0.00000000000E+00 -0.00000000000E+00 -0.46176441521E+02  0.46176441521E+02  0.00000000000E+00 0.  1.
         23    2    1    2    0    0  0.62351968110E+02 -0.33886889697E+02  0.17884501380E+03  0.22944784829E+03  0.12499874760E+03 0.  0.
          5    1    3    3  502    0 -0.22399005147E+02 -0.11835072456E+02  0.12256398101E+03  0.12524297909E+03  0.47000000000E+01 0. -1.
         -5    1    3    3    0  502  0.84750973257E+02 -0.22051817241E+02  0.56281032788E+02  0.10420486919E+03  0.47000000000E+01 0. -1.
        -11    1    1    2    0    0 -0.28962417105E+02 -0.23461870654E+02  0.14985657051E+02  0.40172763116E+02  0.00000000000E+00 0.  1.
         11    1    1    2    0    0 -0.33389551005E+02  0.57348760350E+02  0.12465814481E+03  0.14122108730E+03  0.00000000000E+00 0. -1.
<mgrwt>
<rscale>  0 0.13617005E+03</rscale>
<asrwt>0</asrwt>
<pdfrwt beam="1">  1        2 0.56102345E-01 0.14373857E+03</pdfrwt>
<pdfrwt beam="2">  1       -2 0.71040682E-02 0.14373857E+03</pdfrwt>
<totfact> 0.95882122E+03</totfact>
</mgrwt>
</event>
<event>
 7    1  0.5928109E-006  0.1613626E+03  0.7546771E-02  0.1190031E+00
         -2   -1    0    0    0  501 -0.00000000000E+00  0.00000000000E+00  0.30389460927E+02  0.30389460927E+02  0.00000000000E+00 0.  1.
          2   -1    0    0  501    0  0.00000000000E+00 -0.00000000000E+00 -0.82673862660E+03  0.82673862660E+03  0.00000000000E+00 0. -1.
         23    2    1    2    0    0 -0.74163638464E+02 -0.70089963125E+02 -0.48000543064E+03  0.50640211212E+03  0.12500015006E+03 0.  0.
          5    1    3    3  502    0  0.29804919005E+02 -0.56926423574E+01 -0.44779913605E+02  0.54296132794E+02  0.47000000000E+01 0.  1.
         -5    1    3    3    0  502 -0.10396855747E+03 -0.64397320768E+02 -0.43522551703E+03  0.45210597933E+03  0.47000000000E+01 0.  1.
        -11    1    1    2    0    0 -0.15747876954E+02  0.55244661184E+02 -0.90531434228E+02  0.10721897594E+03  0.00000000000E+00 0.  1.
         11    1    1    2    0    0  0.89911515419E+02  0.14845301941E+02 -0.22581230080E+03  0.24350699947E+03  0.00000000000E+00 0. -1.
<mgrwt>
<rscale>  0 0.15882370E+03</rscale>
<asrwt>0</asrwt>
<pdfrwt beam="2">  1        2 0.12719055E+00 0.16136259E+03</pdfrwt>
<pdfrwt beam="1">  1       -2 0.46753020E-02 0.16136259E+03</pdfrwt>
<totfact> 0.71877516E+03</totfact>
</mgrwt>
</event>
<event>
 7    1  0.5928109E-006  0.1342308E+03  0.7546771E-02  0.1234992E+00
         -2   -1    0    0    0  501 -0.00000000000E+00  0.00000000000E+00  0.14117868345E+02  0.14117868345E+02  0.00000000000E+00 0.  1.
          2   -1    0    0  501    0  0.00000000000E+00 -0.00000000000E+00 -0.10361688206E+04  0.10361688206E+04  0.00000000000E+00 0. -1.
         23    2    1    2    0    0 -0.44286365586E+02  0.18741263917E+02 -0.69945470648E+03  0.71221821845E+03  0.12532113603E+03 0.  0.
          5    1    3    3  502    0 -0.32820600786E+02 -0.26509600025E+01 -0.67985824518E+03  0.68067139132E+03  0.47000000000E+01 0.  1.
         -5    1    3    3    0  502 -0.11465764800E+02  0.21392223920E+02 -0.19596461295E+02  0.31546827130E+02  0.47000000000E+01 0.  1.
        -11    1    1    2    0    0 -0.16919279747E+02 -0.18245256127E+02 -0.29237758738E+02  0.38392680739E+02  0.00000000000E+00 0.  1.
         11    1    1    2    0    0  0.61205645333E+02 -0.49600779004E+00 -0.29335848701E+03  0.29967578972E+03  0.00000000000E+00 0. -1.
<mgrwt>
<rscale>  0 0.12504918E+03</rscale>
<asrwt>0</asrwt>
<pdfrwt beam="2">  1        2 0.15941058E+00 0.13423079E+03</pdfrwt>
<pdfrwt beam="1">  1       -2 0.21719799E-02 0.13423079E+03</pdfrwt>
<totfact> 0.16339602E+04</totfact>
</mgrwt>
</event>
<event>
 6    1  0.5928109E-006  0.1556081E+03  0.7546771E-02  0.1202463E+00
         -1   -1    0    0    0  501 -0.00000000000E+00  0.00000000000E+00  0.52219414916E+02  0.52219414916E+02  0.00000000000E+00 0.  1.
          1   -1    0    0  501    0  0.00000000000E+00 -0.00000000000E+00 -0.61335966790E+03  0.61335966790E+03  0.00000000000E+00 0. -1.
          5    1    1    2  502    0  0.98131638540E-01  0.10558226947E+03 -0.34716607022E+03  0.36289667340E+03  0.47000000000E+01 0. -1.
         -5    1    1    2    0  502  0.41360340162E+02 -0.27396871451E+02 -0.15178142263E+03  0.15975279829E+03  0.47000000000E+01 0.  1.
        -11    1    1    2    0    0 -0.23562767097E+02  0.72161418150E+00 -0.57197107421E+02  0.61864641093E+02  0.00000000000E+00 0. -1.
         11    1    1    2    0    0 -0.17895704703E+02 -0.78907012201E+02 -0.49956527164E+01  0.81064970039E+02  0.00000000000E+00 0.  1.
<mgrwt>
<rscale>  0 0.14839172E+03</rscale>
<asrwt>0</asrwt>
<pdfrwt beam="2">  1        1 0.94363020E-01 0.15560806E+03</pdfrwt>
<pdfrwt beam="1">  1       -1 0.80337566E-02 0.15560806E+03</pdfrwt>
<totfact> 0.28647400E+03</totfact>
</mgrwt>
</event>
<event>
 7    1  0.5928109E-006  0.1777129E+03  0.7546771E-02  0.1175959E+00
         -2   -1    0    0    0  501 -0.00000000000E+00  0.00000000000E+00  0.32209613866E+03  0.32209613866E+03  0.00000000000E+00 0.  1.
          2   -1    0    0  501    0  0.00000000000E+00 -0.00000000000E+00 -0.86207360653E+02  0.86207360653E+02  0.00000000000E+00 0. -1.
         23    2    1    2    0    0 -0.16531458638E+02 -0.12523504179E+03  0.11793076149E+03  0.21328273623E+03  0.12499902500E+03 0.  0.
          5    1    3    3  502    0 -0.22070276053E+02 -0.14103614231E+03  0.12917062989E+03  0.19257578287E+03  0.47000000000E+01 0. -1.
         -5    1    3    3    0  502  0.55388174151E+01  0.15801100515E+02 -0.11239868400E+02  0.20706953361E+02  0.47000000000E+01 0. -1.
        -11    1    1    2    0    0  0.43941112057E+02  0.11108181669E+03  0.71394654707E+02  0.13916604489E+03  0.00000000000E+00 0.  1.
         11    1    1    2    0    0 -0.27409653419E+02  0.14153225101E+02  0.46563361808E+02  0.55854718191E+02  0.00000000000E+00 0. -1.
<mgrwt>
<rscale>  0 0.17182410E+03</rscale>
<asrwt>0</asrwt>
<pdfrwt beam="2">  1        2 0.13262671E-01 0.17771286E+03</pdfrwt>
<pdfrwt beam="1">  1       -2 0.49553251E-01 0.17771286E+03</pdfrwt>
<totfact> 0.17364768E+03</totfact>
</mgrwt>
</event>
<event>
 7    1  0.5928109E-006  0.4208607E+03  0.7546771E-02  0.1037524E+00
          2   -1    0    0  501    0  0.00000000000E+00  0.00000000000E+00  0.41729280948E+04  0.41729280948E+04  0.00000000000E+00 0. -1.
         -2   -1    0    0    0  501 -0.00000000000E+00 -0.00000000000E+00 -0.44730277467E+02  0.44730277467E+02  0.00000000000E+00 0.  1.
         23    2    1    2    0    0 -0.33641531766E+03 -0.21984448030E+03  0.26475628409E+04  0.26808044859E+04  0.12496732923E+03 0.  0.
          5    1    3    3  502    0 -0.18454524950E+03 -0.18740815673E+03  0.17997140419E+04  0.18188379502E+04  0.47000000000E+01 0.  1.
         -5    1    3    3    0  502 -0.15187006817E+03 -0.32436323565E+02  0.84784879898E+03  0.86196653568E+03  0.47000000000E+01 0.  1.
        -11    1    1    2    0    0  0.84800938353E+02  0.10299247476E+03  0.43103901279E+03  0.45121311988E+03  0.00000000000E+00 0.  1.
         11    1    1    2    0    0  0.25161437931E+03  0.11685200553E+03  0.10495959637E+04  0.10856407666E+04  0.00000000000E+00 0. -1.
<mgrwt>
<rscale>  0 0.41859570E+03</rscale>
<asrwt>0</asrwt>
<pdfrwt beam="1">  1        2 0.64198863E+00 0.42086066E+03</pdfrwt>
<pdfrwt beam="2">  1       -2 0.68815845E-02 0.42086066E+03</pdfrwt>
<totfact> 0.36848041E+01</totfact>
</mgrwt>
</event>
<event>
 7    1  0.5928109E-006  0.2927903E+03  0.7546771E-02  0.1090731E+00
         -1   -1    0    0    0  501 -0.00000000000E+00  0.00000000000E+00  0.14120644703E+03  0.14120644703E+03  0.00000000000E+00 0.  1.
          1   -1    0    0  501    0  0.00000000000E+00 -0.00000000000E+00 -0.57919302509E+03  0.57919302509E+03  0.00000000000E+00 0. -1.
         23    2    1    2    0    0 -0.20202493285E+03 -0.17113674161E+03 -0.23418751512E+03  0.37492658841E+03  0.12499718649E+03 0.  0.
          5    1    3    3  502    0 -0.14411922507E+03 -0.12614309781E+03 -0.23271326963E+03  0.30142990566E+03  0.47000000000E+01 0.  1.
         -5    1    3    3    0  502 -0.57905707778E+02 -0.44993643799E+02 -0.14742454963E+01  0.73496682751E+02  0.47000000000E+01 0.  1.
        -11    1    1    2    0    0  0.12672053550E+03  0.15134443640E+03 -0.11962988480E+03  0.23081278536E+03  0.00000000000E+00 0.  1.
         11    1    1    2    0    0  0.75304397357E+02  0.19792305214E+02 -0.84169178138E+02  0.11466009836E+03  0.00000000000E+00 0. -1.
<mgrwt>
<rscale>  0 0.28926916E+03</rscale>
<asrwt>0</asrwt>
<pdfrwt beam="2">  1        1 0.89106620E-01 0.29279029E+03</pdfrwt>
<pdfrwt beam="1">  1       -1 0.21724069E-01 0.29279029E+03</pdfrwt>
<totfact> 0.65229517E+02</totfact>
</mgrwt>
</event>
<event>
 7    1  0.5928109E-006  0.1418394E+03  0.7546771E-02  0.1221384E+00
          2   -1    0    0  501    0  0.00000000000E+00  0.00000000000E+00  0.55354369599E+03  0.55354369599E+03  0.00000000000E+00 0. -1.
         -2   -1    0    0    0  501 -0.00000000000E+00 -0.00000000000E+00 -0.29834258214E+02  0.29834258214E+02  0.00000000000E+00 0.  1.
         23    2    1    2    0    0  0.55707532829E+02 -0.37276413479E+02  0.32263378758E+03  0.35243577408E+03  0.12500221495E+03 0.  0.
          5    1    3    3  502    0  0.61323745357E+02  0.26937581253E+02  0.22916026137E+03  0.23879436848E+03  0.47000000000E+01 0.  1.
         -5    1    3    3    0  502 -0.56162125289E+01 -0.64213994732E+02  0.93473526213E+02  0.11364140559E+03  0.47000000000E+01 0.  1.
        -11    1    1    2    0    0 -0.32002385499E+02  0.13940059555E+02  0.90556351952E+01  0.36062202745E+02  0.00000000000E+00 0.  1.
         11    1    1    2    0    0 -0.23705147329E+02  0.23336353924E+02  0.19202001499E+03  0.19487997738E+03  0.00000000000E+00 0. -1.
<mgrwt>
<rscale>  0 0.13417866E+03</rscale>
<asrwt>0</asrwt>
<pdfrwt beam="1">  1        2 0.85160561E-01 0.14183939E+03</pdfrwt>
<pdfrwt beam="2">  1       -2 0.45898863E-02 0.14183939E+03</pdfrwt>
<totfact> 0.11794896E+04</totfact>
</mgrwt>
</event>
<event>
 7    1  0.5928109E-006  0.2987688E+03  0.7546771E-02  0.1087212E+00
          2   -1    0    0  501    0  0.00000000000E+00  0.00000000000E+00  0.68189217942E+02  0.68189217942E+02  0.00000000000E+00 0. -1.
         -2   -1    0    0    0  501 -0.00000000000E+00 -0.00000000000E+00 -0.12698618083E+04  0.12698618083E+04  0.00000000000E+00 0.  1.
         23    2    1    2    0    0 -0.75253148476E+02 -0.26072248897E+03 -0.56291315757E+03  0.63728646790E+03  0.12499426625E+03 0.  0.
          5    1    3    3  502    0 -0.75910145799E+02 -0.23152974335E+03 -0.55578021790E+03  0.60686251565E+03  0.47000000000E+01 0.  1.
         -5    1    3    3    0  502  0.65699732306E+00 -0.29192745618E+02 -0.71329396683E+01  0.30423952250E+02  0.47000000000E+01 0.  1.
        -11    1    1    2    0    0 -0.99515730109E+01  0.89166131874E+02 -0.28067672169E+03  0.29466770264E+03  0.00000000000E+00 0.  1.
         11    1    1    2    0    0  0.85204721487E+02  0.17155635709E+03 -0.35808271106E+03  0.40609685567E+03  0.00000000000E+00 0. -1.
<mgrwt>
<rscale>  0 0.29609000E+03</rscale>
<asrwt>0</asrwt>
<pdfrwt beam="1">  1        2 0.10490649E-01 0.29876884E+03</pdfrwt>
<pdfrwt beam="2">  1       -2 0.19536336E+00 0.29876884E+03</pdfrwt>
<totfact> 0.93006548E+01</totfact>
</mgrwt>
</event>
<event>
 7    1  0.5928109E-006  0.2272861E+03  0.7546771E-02  0.1131495E+00
          2   -1    0    0  501    0  0.00000000000E+00  0.00000000000E+00  0.66647361892E+03  0.66647361892E+03  0.00000000000E+00 0. -1.
         -2   -1    0    0    0  501 -0.00000000000E+00 -0.00000000000E+00 -0.73458967013E+02  0.73458967013E+02  0.00000000000E+00 0.  1.
         23    2    1    2    0    0  0.93885241581E+02  0.16498329498E+03  0.25900862810E+03  0.34459312007E+03  0.12500009105E+03 0.  0.
          5    1    3    3  502    0 -0.37373664149E+01 -0.18271927982E+02  0.27743157092E+02  0.33758021644E+02  0.47000000000E+01 0.  1.
         -5    1    3    3    0  502  0.97622607996E+02  0.18325522296E+03  0.23126547101E+03  0.31083509843E+03  0.47000000000E+01 0.  1.
        -11    1    1    2    0    0 -0.10517021783E+03 -0.10469120755E+03  0.21192013069E+03  0.25871058241E+03  0.00000000000E+00 0.  1.
         11    1    1    2    0    0  0.11284976245E+02 -0.60292087429E+02  0.12208589312E+03  0.13662888346E+03  0.00000000000E+00 0. -1.
<mgrwt>
<rscale>  0 0.22323301E+03</rscale>
<asrwt>0</asrwt>
<pdfrwt beam="1">  1        2 0.10253440E+00 0.22728605E+03</pdfrwt>
<pdfrwt beam="2">  1       -2 0.11301380E-01 0.22728605E+03</pdfrwt>
<totfact> 0.24131731E+03</totfact>
</mgrwt>
</event>
<event>
 7    1  0.5928109E-006  0.1518828E+03  0.7546771E-02  0.1206429E+00
         -2   -1    0    0    0  501 -0.00000000000E+00  0.00000000000E+00  0.15932328612E+03  0.15932328612E+03  0.00000000000E+00 0.  1.
          2   -1    0    0  501    0  0.00000000000E+00 -0.00000000000E+00 -0.13678865075E+03  0.13678865075E+03  0.00000000000E+00 0. -1.
         23    2    1    2    0    0  0.54426157122E+00  0.86268164551E+02 -0.36202031905E+02  0.15613767776E+03  0.12500357942E+03 0.  0.
          5    1    3    3  502    0 -0.47155956543E+02 -0.49633317213E+01 -0.25141973843E+01  0.47715092871E+02  0.47000000000E+01 0. -1.
         -5    1    3    3    0  502  0.47700218114E+02  0.91231496272E+02 -0.33687834521E+02  0.10842258489E+03  0.47000000000E+01 0. -1.
        -11    1    1    2    0    0 -0.83737413090E+01 -0.36283957394E+02 -0.23056754189E+02  0.43797933985E+02  0.00000000000E+00 0. -1.
         11    1    1    2    0    0  0.78294797378E+01 -0.49984207157E+02  0.81793421467E+02  0.96176325119E+02  0.00000000000E+00 0.  1.
<mgrwt>
<rscale>  0 0.14525424E+03</rscale>
<asrwt>0</asrwt>
<pdfrwt beam="2">  1        2 0.21044408E-01 0.15188281E+03</pdfrwt>
<pdfrwt beam="1">  1       -2 0.24511275E-01 0.15188281E+03</pdfrwt>
<totfact> 0.37236264E+03</totfact>
</mgrwt>
</event>
<event>
 7    1  0.5928109E-006  0.3944953E+03  0.7546771E-02  0.1046542E+00
          2   -1    0    0  501    0  0.00000000000E+00  0.00000000000E+00  0.17607333253E+04  0.17607333253E+04  0.00000000000E+00 0. -1.
         -2   -1    0    0    0  501 -0.00000000000E+00 -0.00000000000E+00 -0.12033350995E+03  0.12033350995E+03  0.00000000000E+00 0.  1.
         23    2    1    2    0    0 -0.21236134138E+03 -0.30806549625E+03  0.13275218853E+04  0.13848974341E+04  0.12499943069E+03 0.  0.
          5    1    3    3  502    0 -0.32232586703E+02 -0.86986462227E+02  0.52613027182E+03  0.53426654132E+03  0.47000000000E+01 0.  1.
         -5    1    3    3    0  502 -0.18012875468E+03 -0.22107903402E+03  0.80139161349E+03  0.85063089276E+03  0.47000000000E+01 0.  1.
        -11    1    1    2    0    0  0.18983997971E+03  0.20605234301E+03  0.21713779355E+03  0.35446524137E+03  0.00000000000E+00 0.  1.
         11    1    1    2    0    0  0.22521361673E+02  0.10201315324E+03  0.95740136456E+02  0.14170415976E+03  0.00000000000E+00 0. -1.
<mgrwt>
<rscale>  0 0.39212172E+03</rscale>
<asrwt>0</asrwt>
<pdfrwt beam="1">  1        2 0.27088203E+00 0.39449531E+03</pdfrwt>
<pdfrwt beam="2">  1       -2 0.18512849E-01 0.39449531E+03</pdfrwt>
<totfact> 0.23452547E+02</totfact>
</mgrwt>
</event>
<event>
 7    1  0.5928109E-006  0.1471290E+03  0.7546771E-02  0.1213912E+00
         -1   -1    0    0    0  501 -0.00000000000E+00  0.00000000000E+00  0.62961056621E+02  0.62961056621E+02  0.00000000000E+00 0.  1.
          1   -1    0    0  501    0  0.00000000000E+00 -0.00000000000E+00 -0.29442840820E+03  0.29442840820E+03  0.00000000000E+00 0. -1.
         23    2    1    2    0    0  0.16731032913E+01  0.77580742139E+02 -0.16459530685E+03  0.22076810096E+03  0.12500147415E+03 0.  0.
          5    1    3    3  502    0  0.29783637487E+02  0.10251372231E+03 -0.10269810571E+03  0.14820634008E+03  0.47000000000E+01 0.  1.
         -5    1    3    3    0  502 -0.28110534195E+02 -0.24932980171E+02 -0.61897201139E+02  0.72561760879E+02  0.47000000000E+01 0.  1.
        -11    1    1    2    0    0  0.32137217438E+02 -0.48200551451E+02 -0.22270051470E+01  0.57974593200E+02  0.00000000000E+00 0.  1.
         11    1    1    2    0    0 -0.33810320729E+02 -0.29380190688E+02 -0.64645039581E+02  0.78646770659E+02  0.00000000000E+00 0. -1.
<mgrwt>
<rscale>  0 0.13956772E+03</rscale>
<asrwt>0</asrwt>
<pdfrwt beam="2">  1        1 0.45296678E-01 0.14712899E+03</pdfrwt>
<pdfrwt beam="1">  1       -1 0.96863165E-02 0.14712899E+03</pdfrwt>
<totfact> 0.55260643E+03</totfact>
</mgrwt>
</event>
<event>
 7    1  0.5928109E-006  0.1294173E+03  0.7546771E-02  0.1242855E+00
         -1   -1    0    0    0  501 -0.00000000000E+00  0.00000000000E+00  0.12758558693E+03  0.12758558693E+03  0.00000000000E+00 0.  1.
          1   -1    0    0  501    0  0.00000000000E+00 -0.00000000000E+00 -0.10110094105E+03  0.10110094105E+03  0.00000000000E+00 0. -1.
         23    2    1    2    0    0 -0.23798481010E+02 -0.22140411008E+02  0.17759421178E+01  0.12942946694E+03  0.12526878080E+03 0.  0.
          5    1    3    3  502    0  0.12662796865E+02 -0.60501166220E+02  0.30436940226E+02  0.69059647181E+02  0.47000000000E+01 0. -1.
         -5    1    3    3    0  502 -0.36461277876E+02  0.38360755212E+02 -0.28660998108E+02  0.60369819755E+02  0.47000000000E+01 0. -1.
        -11    1    1    2    0    0 -0.11875369255E+02  0.19888796828E+02 -0.27517757373E+02  0.35969648387E+02  0.00000000000E+00 0. -1.
         11    1    1    2    0    0  0.35673850266E+02  0.22516141806E+01  0.52226461135E+02  0.63287412666E+02  0.00000000000E+00 0.  1.
<mgrwt>
<rscale>  0 0.12014666E+03</rscale>
<asrwt>0</asrwt>
<pdfrwt beam="2">  1        1 0.15553991E-01 0.12941728E+03</pdfrwt>
<pdfrwt beam="1">  1       -1 0.19628552E-01 0.12941728E+03</pdfrwt>
<totfact> 0.69714830E+03</totfact>
</mgrwt>
</event>
<event>
 7    1  0.5928109E-006  0.2172441E+03  0.7546771E-02  0.1139776E+00
         -1   -1    0    0    0  501 -0.00000000000E+00  0.00000000000E+00  0.82571161671E+02  0.82571161671E+02  0.00000000000E+00 0.  1.
          1   -1    0    0  501    0  0.00000000000E+00 -0.00000000000E+00 -0.60764640598E+03  0.60764640598E+03  0.00000000000E+00 0. -1.
         23    2    1    2    0    0 -0.16584326543E+03  0.63762948252E+02 -0.14365191004E+03  0.26044360704E+03  0.12500119572E+03 0.  0.
          5    1    3    3  502    0 -0.10151231072E+02 -0.13214582426E+02 -0.69347127912E+02  0.71475777929E+02  0.47000000000E+01 0.  1.
         -5    1    3    3    0  502 -0.15569203436E+03  0.76977530678E+02 -0.74304782129E+02  0.18896782911E+03  0.47000000000E+01 0.  1.
        -11    1    1    2    0    0  0.14946430726E+02 -0.39943900747E+02 -0.11509992635E+03  0.12274731787E+03  0.00000000000E+00 0.  1.
         11    1    1    2    0    0  0.15089683470E+03 -0.23819047506E+02 -0.26632340792E+03  0.30702664274E+03  0.00000000000E+00 0. -1.
<mgrwt>
<rscale>  0 0.21227658E+03</rscale>
<asrwt>0</asrwt>
<pdfrwt beam="2">  1        1 0.93484062E-01 0.21724411E+03</pdfrwt>
<pdfrwt beam="1">  1       -1 0.12703256E-01 0.21724411E+03</pdfrwt>
<totfact> 0.14436916E+03</totfact>
</mgrwt>
</event>
<event>
 7    1  0.5928109E-006  0.1307736E+03  0.7546771E-02  0.1240252E+00
          2   -1    0    0  501    0  0.00000000000E+00  0.00000000000E+00  0.66143949950E+03  0.66143949950E+03  0.00000000000E+00 0. -1.
         -2   -1    0    0    0  501 -0.00000000000E+00 -0.00000000000E+00 -0.21126274635E+02  0.21126274635E+02  0.00000000000E+00 0.  1.
         23    2    1    2    0    0 -0.30285536683E+02  0.23519860121E+02  0.44693069245E+03  0.46567023997E+03  0.12502532140E+03 0.  0.
          5    1    3    3  502    0  0.11922000512E+01  0.54879631565E+02  0.38707967218E+03  0.39098076413E+03  0.47000000000E+01 0.  1.
         -5    1    3    3    0  502 -0.31477736734E+02 -0.31359771443E+02  0.59851020269E+02  0.74689475846E+02  0.47000000000E+01 0.  1.
        -11    1    1    2    0    0 -0.14233741395E+01  0.17719144122E+02  0.12219597414E+01  0.17818171846E+02  0.00000000000E+00 0.  1.
         11    1    1    2    0    0  0.31708910822E+02 -0.41239004243E+02  0.19216057267E+03  0.19907736232E+03  0.00000000000E+00 0. -1.
<mgrwt>
<rscale>  0 0.12174140E+03</rscale>
<asrwt>0</asrwt>
<pdfrwt beam="1">  1        2 0.10175991E+00 0.13077358E+03</pdfrwt>
<pdfrwt beam="2">  1       -2 0.32501966E-02 0.13077358E+03</pdfrwt>
<totfact> 0.15970892E+04</totfact>
</mgrwt>
</event>
<event>
 7    1  0.5928109E-006  0.1680850E+03  0.7546771E-02  0.1185597E+00
          3   -1    0    0  501    0  0.00000000000E+00  0.00000000000E+00  0.19894119397E+03  0.19894119397E+03  0.00000000000E+00 0. -1.
         -3   -1    0    0    0  501 -0.00000000000E+00 -0.00000000000E+00 -0.13718653146E+03  0.13718653146E+03  0.00000000000E+00 0.  1.
         23    2    1    2    0    0 -0.97093164627E+02  0.54713578884E+02 -0.16435295947E+02  0.16888659649E+03  0.12582489893E+03 0.  0.
          5    1    3    3  502    0 -0.67407305155E+01 -0.22473694810E+02  0.32438206309E+02  0.40309200375E+02  0.47000000000E+01 0.  1.
         -5    1    3    3    0  502 -0.90352434112E+02  0.77187273694E+02 -0.48873502256E+02  0.12857739612E+03  0.47000000000E+01 0.  1.
        -11    1    1    2    0    0  0.36299785329E+02 -0.59619486432E+02  0.80067425504E+02  0.10622123236E+03  0.00000000000E+00 0.  1.
         11    1    1    2    0    0  0.60793379299E+02  0.49059075483E+01 -0.18774670394E+01  0.61019896574E+02  0.00000000000E+00 0. -1.
<mgrwt>
<rscale>  0 0.16277693E+03</rscale>
<asrwt>0</asrwt>
<pdfrwt beam="1">  1        3 0.30606338E-01 0.16808499E+03</pdfrwt>
<pdfrwt beam="2">  1       -3 0.21105620E-01 0.16808499E+03</pdfrwt>
<totfact> 0.50371346E+02</totfact>
</mgrwt>
</event>
<event>
 7    1  0.5928109E-006  0.1464758E+03  0.7546771E-02  0.1214456E+00
          1   -1    0    0  501    0  0.00000000000E+00  0.00000000000E+00  0.26991210120E+03  0.26991210120E+03  0.00000000000E+00 0. -1.
         -1   -1    0    0    0  501 -0.00000000000E+00 -0.00000000000E+00 -0.73582487239E+02  0.73582487239E+02  0.00000000000E+00 0.  1.
         23    2    1    2    0    0 -0.75682413744E+02  0.10205349599E+02  0.16389945688E+03  0.21981399246E+03  0.12499272942E+03 0.  0.
          5    1    3    3  502    0 -0.58618086072E+02 -0.52924289402E+02  0.72348383431E+02  0.10720745780E+03  0.47000000000E+01 0.  1.
         -5    1    3    3    0  502 -0.17064327672E+02  0.63129639001E+02  0.91551073445E+02  0.11260653466E+03  0.47000000000E+01 0.  1.
        -11    1    1    2    0    0  0.44640917556E+02  0.50772863820E+01 -0.28788627872E+02  0.53360804454E+02  0.00000000000E+00 0.  1.
         11    1    1    2    0    0  0.31041496188E+02 -0.15282635981E+02  0.61218784959E+02  0.70319791524E+02  0.00000000000E+00 0. -1.
<mgrwt>
<rscale>  0 0.13916591E+03</rscale>
<asrwt>0</asrwt>
<pdfrwt beam="1">  1        1 0.41524938E-01 0.14647580E+03</pdfrwt>
<pdfrwt beam="2">  1       -1 0.11320383E-01 0.14647580E+03</pdfrwt>
<totfact> 0.48448724E+03</totfact>
</mgrwt>
</event>
<event>
 7    1  0.5928109E-006  0.4352039E+03  0.7546771E-02  0.1032869E+00
         -2   -1    0    0    0  501 -0.00000000000E+00  0.00000000000E+00  0.58030093444E+03  0.58030093444E+03  0.00000000000E+00 0.  1.
          2   -1    0    0  501    0  0.00000000000E+00 -0.00000000000E+00 -0.47302977448E+03  0.47302977448E+03  0.00000000000E+00 0. -1.
         23    2    1    2    0    0  0.34283844193E+03 -0.23727170651E+03 -0.24527082825E+03  0.49956002999E+03  0.12476531730E+03 0.  0.
          5    1    3    3  502    0  0.18478106313E+03 -0.15829125821E+03 -0.20519471981E+03  0.31831922147E+03  0.47000000000E+01 0. -1.
         -5    1    3    3    0  502  0.15805737880E+03 -0.78980448293E+02 -0.40076108437E+02  0.18124080852E+03  0.47000000000E+01 0. -1.
        -11    1    1    2    0    0 -0.10833075631E+03  0.66816022386E+02  0.55984482610E+02  0.13904745918E+03  0.00000000000E+00 0. -1.
         11    1    1    2    0    0 -0.23450768562E+03  0.17045568412E+03  0.29655750560E+03  0.41472321974E+03  0.00000000000E+00 0.  1.
<mgrwt>
<rscale>  0 0.43315226E+03</rscale>
<asrwt>0</asrwt>
<pdfrwt beam="2">  1        2 0.72773812E-01 0.43520391E+03</pdfrwt>
<pdfrwt beam="1">  1       -2 0.89277066E-01 0.43520391E+03</pdfrwt>
<totfact> 0.73196901E+01</totfact>
</mgrwt>
</event>
<event>
 7    1  0.5928109E-006  0.1396620E+03  0.7546771E-02  0.1225014E+00
         -3   -1    0    0    0  501 -0.00000000000E+00  0.00000000000E+00  0.13321865059E+03  0.13321865059E+03  0.00000000000E+00 0.  1.
          3   -1    0    0  501    0  0.00000000000E+00 -0.00000000000E+00 -0.11798003978E+03  0.11798003978E+03  0.00000000000E+00 0. -1.
         23    2    1    2    0    0  0.12997139463E+02  0.60935833012E+02 -0.12858004513E+01  0.13966788807E+03  0.12499345701E+03 0.  0.
          5    1    3    3  502    0  0.76135947985E+01  0.51061528806E+02 -0.60235569815E+02  0.79471129479E+02  0.47000000000E+01 0.  1.
         -5    1    3    3    0  502  0.53835446649E+01  0.98743042057E+01  0.58949769364E+02  0.60196758590E+02  0.47000000000E+01 0.  1.
        -11    1    1    2    0    0 -0.15044003714E+02  0.20772808086E+02  0.15142846489E+02  0.29784851910E+02  0.00000000000E+00 0.  1.
         11    1    1    2    0    0  0.20468642503E+01 -0.81708641098E+02  0.13815647693E+01  0.81745950386E+02  0.00000000000E+00 0. -1.
<mgrwt>
<rscale>  0 0.13165955E+03</rscale>
<asrwt>0</asrwt>
<pdfrwt beam="2">  1        3 0.18150775E-01 0.13966197E+03</pdfrwt>
<pdfrwt beam="1">  1       -3 0.20495177E-01 0.13966197E+03</pdfrwt>
<totfact> 0.13227003E+03</totfact>
</mgrwt>
</event>
<event>
 6    1  0.5928109E-006  0.1695520E+03  0.7546771E-02  0.1199399E+00
          3   -1    0    0  501    0  0.00000000000E+00  0.00000000000E+00  0.37409742803E+02  0.37409742803E+02  0.00000000000E+00 0. -1.
         -3   -1    0    0    0  501 -0.00000000000E+00 -0.00000000000E+00 -0.51039220256E+03  0.51039220256E+03  0.00000000000E+00 0.  1.
          5    1    1    2  502    0 -0.56071604231E+02 -0.27519433274E+01 -0.66623047803E+02  0.87248601660E+02  0.47000000000E+01 0. -1.
         -5    1    1    2    0  502  0.10607694413E+03  0.19155592647E+02 -0.23981281941E+03  0.26296679099E+03  0.47000000000E+01 0.  1.
        -11    1    1    2    0    0 -0.68562846066E+02 -0.91070453599E+01 -0.67824920766E+02  0.96871161926E+02  0.00000000000E+00 0. -1.
         11    1    1    2    0    0  0.18557506167E+02 -0.72966039596E+01 -0.98721671775E+02  0.10071539079E+03  0.00000000000E+00 0.  1.
<mgrwt>
<rscale>  0 0.15087763E+03</rscale>
<asrwt>0</asrwt>
<pdfrwt beam="1">  1        3 0.57553452E-02 0.16955200E+03</pdfrwt>
<pdfrwt beam="2">  1       -3 0.78521875E-01 0.16955200E+03</pdfrwt>
<totfact> 0.67545161E+02</totfact>
</mgrwt>
</event>
<event>
 7    1  0.5928109E-006  0.1815317E+03  0.7546771E-02  0.1172062E+00
          1   -1    0    0  501    0  0.00000000000E+00  0.00000000000E+00  0.41083899957E+02  0.41083899957E+02  0.00000000000E+00 0. -1.
         -1   -1    0    0    0  501 -0.00000000000E+00 -0.00000000000E+00 -0.70773213817E+03  0.70773213817E+03  0.00000000000E+00 0.  1.
         23    2    1    2    0    0  0.13031185485E+03 -0.18676035777E+02 -0.33915490655E+03  0.38468144447E+03  0.12499515690E+03 0.  0.
          5    1    3    3  502    0  0.42201443273E+02  0.18618281793E+02 -0.24851383977E+03  0.25280193984E+03  0.47000000000E+01 0.  1.
         -5    1    3    3    0  502  0.88110411580E+02 -0.37294317570E+02 -0.90641066783E+02  0.13187950462E+03  0.47000000000E+01 0.  1.
        -11    1    1    2    0    0 -0.14192666151E+03  0.12639787084E+02 -0.27135699446E+03  0.30649234886E+03  0.00000000000E+00 0. -1.
         11    1    1    2    0    0  0.11614806656E+02  0.60362486924E+01 -0.56136337195E+02  0.57642244800E+02  0.00000000000E+00 0.  1.
<mgrwt>
<rscale>  0 0.17566885E+03</rscale>
<asrwt>0</asrwt>
<pdfrwt beam="1">  1        1 0.63205997E-02 0.18153171E+03</pdfrwt>
<pdfrwt beam="2">  1       -1 0.10888187E+00 0.18153171E+03</pdfrwt>
<totfact> 0.99012988E+02</totfact>
</mgrwt>
</event>
<event>
 7    1  0.5928109E-006  0.1520063E+03  0.7546771E-02  0.1206586E+00
         -1   -1    0    0    0  501 -0.00000000000E+00  0.00000000000E+00  0.32510845102E+03  0.32510845102E+03  0.00000000000E+00 0.  1.
          1   -1    0    0  501    0  0.00000000000E+00 -0.00000000000E+00 -0.66235695054E+02  0.66235695054E+02  0.00000000000E+00 0. -1.
         23    2    1    2    0    0  0.86347304439E+02  0.51149815946E+01  0.78338309452E+02  0.17100526621E+03  0.12499556122E+03 0.  0.
          5    1    3    3  502    0 -0.25947134902E+01 -0.63707764101E+01 -0.29509715889E+02  0.30663213498E+02  0.47000000000E+01 0.  1.
         -5    1    3    3    0  502  0.88942017929E+02  0.11485758005E+02  0.10784802534E+03  0.14034205271E+03  0.47000000000E+01 0.  1.
        -11    1    1    2    0    0 -0.11895699473E+02 -0.36593905129E+02  0.27591061807E+02  0.47348582346E+02  0.00000000000E+00 0. -1.
         11    1    1    2    0    0 -0.74451604966E+02  0.31478923534E+02  0.15294338471E+03  0.17299029752E+03  0.00000000000E+00 0.  1.
<mgrwt>
<rscale>  0 0.14513210E+03</rscale>
<asrwt>0</asrwt>
<pdfrwt beam="2">  1        1 0.10190107E-01 0.15200628E+03</pdfrwt>
<pdfrwt beam="1">  1       -1 0.50016684E-01 0.15200628E+03</pdfrwt>
<totfact> 0.24991073E+03</totfact>
</mgrwt>
</event>
<event>
 7    1  0.5928109E-006  0.1298065E+03  0.7546771E-02  0.1241504E+00
         -2   -1    0    0    0  501 -0.00000000000E+00  0.00000000000E+00  0.14728218575E+03  0.14728218575E+03  0.00000000000E+00 0.  1.
          2   -1    0    0  501    0  0.00000000000E+00 -0.00000000000E+00 -0.88180998195E+02  0.88180998195E+02  0.00000000000E+00 0. -1.
         23    2    1    2    0    0 -0.30064537280E+02  0.17918228890E+02  0.38651255089E+02  0.13543876004E+03  0.12499919549E+03 0.  0.
          5    1    3    3  502    0  0.30094922664E+02  0.41555184201E+02  0.47441807900E+02  0.70038224142E+02  0.47000000000E+01 0. -1.
         -5    1    3    3    0  502 -0.60159459944E+02 -0.23636955311E+02 -0.87905528108E+01  0.65400535899E+02  0.47000000000E+01 0. -1.
        -11    1    1    2    0    0  0.33476434911E+02  0.18927894258E+02 -0.21522120131E+02  0.44069700819E+02  0.00000000000E+00 0. -1.
         11    1    1    2    0    0 -0.34118976314E+01 -0.36846123147E+02  0.41972052598E+02  0.55954723087E+02  0.00000000000E+00 0.  1.
<mgrwt>
<rscale>  0 0.12097092E+03</rscale>
<asrwt>0</asrwt>
<pdfrwt beam="2">  1        2 0.13566307E-01 0.12980654E+03</pdfrwt>
<pdfrwt beam="1">  1       -2 0.22658798E-01 0.12980654E+03</pdfrwt>
<totfact> 0.70132937E+03</totfact>
</mgrwt>
</event>
<event>
 7    1  0.5928109E-006  0.1503605E+03  0.7546771E-02  0.1209467E+00
          1   -1    0    0  501    0  0.00000000000E+00  0.00000000000E+00  0.30005953962E+02  0.30005953962E+02  0.00000000000E+00 0. -1.
         -1   -1    0    0    0  501 -0.00000000000E+00 -0.00000000000E+00 -0.64666497846E+03  0.64666497846E+03  0.00000000000E+00 0.  1.
         23    2    1    2    0    0 -0.67842227854E+02 -0.48763304950E+02 -0.27155473589E+03  0.31040336960E+03  0.12501139741E+03 0.  0.
          5    1    3    3  502    0 -0.17141094161E+02  0.41412715623E+02 -0.10523112234E+03  0.11447492840E+03  0.47000000000E+01 0. -1.
         -5    1    3    3    0  502 -0.50701133692E+02 -0.90176020572E+02 -0.16632361356E+03  0.19592844120E+03  0.47000000000E+01 0. -1.
        -11    1    1    2    0    0  0.48973508758E+02  0.31533113551E+02 -0.33288778840E+03  0.33794529361E+03  0.00000000000E+00 0.  1.
         11    1    1    2    0    0  0.18868719095E+02  0.17230191398E+02 -0.12216500208E+02  0.28322269211E+02  0.00000000000E+00 0. -1.
<mgrwt>
<rscale>  0 0.14290922E+03</rscale>
<asrwt>0</asrwt>
<pdfrwt beam="1">  1        1 0.46163006E-02 0.15036049E+03</pdfrwt>
<pdfrwt beam="2">  1       -1 0.99486920E-01 0.15036049E+03</pdfrwt>
<totfact> 0.18530901E+03</totfact>
</mgrwt>
</event>
<event>
 7    1  0.5928109E-006  0.1339703E+03  0.7546771E-02  0.1234216E+00
          1   -1    0    0  501    0  0.00000000000E+00  0.00000000000E+00  0.35327266806E+03  0.35327266806E+03  0.00000000000E+00 0. -1.
         -1   -1    0    0    0  501 -0.00000000000E+00 -0.00000000000E+00 -0.44383738593E+02  0.44383738593E+02  0.00000000000E+00 0.  1.
         23    2    1    2    0    0 -0.14009787197E+02  0.46125405197E+02  0.23543103922E+03  0.27087971643E+03  0.12499687756E+03 0.  0.
          5    1    3    3  502    0 -0.29551815134E+02  0.18029318918E+02  0.17739758887E+01  0.34980038719E+02  0.47000000000E+01 0. -1.
         -5    1    3    3    0  502  0.15542027937E+02  0.28096086279E+02  0.23365706333E+03  0.23589967771E+03  0.47000000000E+01 0. -1.
        -11    1    1    2    0    0 -0.16928821389E+02 -0.17530948124E+02  0.80460091154E+02  0.84069884051E+02  0.00000000000E+00 0. -1.
         11    1    1    2    0    0  0.30938608586E+02 -0.28594457073E+02 -0.70022009073E+01  0.42706806180E+02  0.00000000000E+00 0.  1.
<mgrwt>
<rscale>  0 0.12554773E+03</rscale>
<asrwt>0</asrwt>
<pdfrwt beam="1">  1        1 0.54349639E-01 0.13397032E+03</pdfrwt>
<pdfrwt beam="2">  1       -1 0.68282677E-02 0.13397032E+03</pdfrwt>
<totfact> 0.74305605E+03</totfact>
</mgrwt>
</event>
<event>
 7    1  0.5928109E-006  0.1297329E+03  0.7546771E-02  0.1242169E+00
          1   -1    0    0  501    0  0.00000000000E+00  0.00000000000E+00  0.24457737457E+03  0.24457737457E+03  0.00000000000E+00 0. -1.
         -1   -1    0    0    0  501 -0.00000000000E+00 -0.00000000000E+00 -0.65337118033E+02  0.65337118033E+02  0.00000000000E+00 0.  1.
         23    2    1    2    0    0  0.19739303281E+02 -0.28544649222E+02  0.16834927914E+03  0.21253732367E+03  0.12500478820E+03 0.  0.
          5    1    3    3  502    0  0.13840697718E+02 -0.77311662520E+02  0.11968431856E+03  0.14323087720E+03  0.47000000000E+01 0. -1.
         -5    1    3    3    0  502  0.58986055629E+01  0.48767013299E+02  0.48664960577E+02  0.69306446465E+02  0.47000000000E+01 0. -1.
        -11    1    1    2    0    0  0.29520308690E+02 -0.71702469554E+01 -0.11586878847E+02  0.32513333080E+02  0.00000000000E+00 0.  1.
         11    1    1    2    0    0 -0.49259611971E+02  0.35714896177E+02  0.22477856247E+02  0.64863835855E+02  0.00000000000E+00 0. -1.
<mgrwt>
<rscale>  0 0.12056427E+03</rscale>
<asrwt>0</asrwt>
<pdfrwt beam="1">  1        1 0.37627288E-01 0.12973293E+03</pdfrwt>
<pdfrwt beam="2">  1       -1 0.10051864E-01 0.12973293E+03</pdfrwt>
<totfact> 0.65178618E+03</totfact>
</mgrwt>
</event>
<event>
 7    1  0.5928109E-006  0.1288648E+03  0.7546771E-02  0.1243370E+00
          2   -1    0    0  501    0  0.00000000000E+00  0.00000000000E+00  0.22224236221E+03  0.22224236221E+03  0.00000000000E+00 0. -1.
         -2   -1    0    0    0  501 -0.00000000000E+00 -0.00000000000E+00 -0.78641256660E+02  0.78641256660E+02  0.00000000000E+00 0.  1.
         23    2    1    2    0    0  0.13682710949E+02 -0.28177420974E+02  0.15752146087E+03  0.20351697608E+03  0.12499986115E+03 0.  0.
          5    1    3    3  502    0 -0.47534978491E+02  0.12567917866E+02  0.94183607272E+02  0.10634927653E+03  0.47000000000E+01 0.  1.
         -5    1    3    3    0  502  0.61217689440E+02 -0.40745338840E+02  0.63337853594E+02  0.97167699548E+02  0.47000000000E+01 0.  1.
        -11    1    1    2    0    0 -0.98185103149E+00 -0.19752094498E+02  0.26729271676E+02  0.33250011019E+02  0.00000000000E+00 0. -1.
         11    1    1    2    0    0 -0.12700859918E+02  0.47929515471E+02 -0.40649626988E+02  0.64116631775E+02  0.00000000000E+00 0.  1.
<mgrwt>
<rscale>  0 0.11983461E+03</rscale>
<asrwt>0</asrwt>
<pdfrwt beam="1">  1        2 0.34191132E-01 0.12886485E+03</pdfrwt>
<pdfrwt beam="2">  1       -2 0.12098655E-01 0.12886485E+03</pdfrwt>
<totfact> 0.70099504E+03</totfact>
</mgrwt>
</event>
<event>
 7    1  0.5928109E-006  0.1392103E+03  0.7546771E-02  0.1227616E+00
         -1   -1    0    0    0  501 -0.00000000000E+00  0.00000000000E+00  0.15311375566E+03  0.15311375566E+03  0.00000000000E+00 0.  1.
          1   -1    0    0  501    0  0.00000000000E+00 -0.00000000000E+00 -0.34016636372E+03  0.34016636372E+03  0.00000000000E+00 0. -1.
         23    2    1    2    0    0 -0.61077172014E+02  0.49776787323E+01 -0.30485209427E+03  0.33513325514E+03  0.12499720436E+03 0.  0.
          5    1    3    3  502    0  0.41045946151E+01  0.37318096725E+02 -0.22011466201E+03  0.22334288095E+03  0.47000000000E+01 0.  1.
         -5    1    3    3    0  502 -0.65181766629E+02 -0.32340417993E+02 -0.84737432261E+02  0.11179037420E+03  0.47000000000E+01 0.  1.
        -11    1    1    2    0    0  0.29445982342E+02  0.14889678950E+02 -0.16057068193E+01  0.33035537073E+02  0.00000000000E+00 0. -1.
         11    1    1    2    0    0  0.31631189672E+02 -0.19867357682E+02  0.11940519303E+03  0.12511132716E+03  0.00000000000E+00 0.  1.
<mgrwt>
<rscale>  0 0.12989231E+03</rscale>
<asrwt>0</asrwt>
<pdfrwt beam="2">  1        1 0.52333287E-01 0.13921027E+03</pdfrwt>
<pdfrwt beam="1">  1       -1 0.23555962E-01 0.13921027E+03</pdfrwt>
<totfact> 0.11386563E+03</totfact>
</mgrwt>
</event>
<event>
 7    1  0.5928109E-006  0.1378443E+03  0.7546771E-02  0.1228215E+00
         -1   -1    0    0    0  501 -0.00000000000E+00  0.00000000000E+00  0.66874303110E+02  0.66874303110E+02  0.00000000000E+00 0. -1.
          1   -1    0    0  501    0  0.00000000000E+00 -0.00000000000E+00 -0.23495574602E+03  0.23495574602E+03  0.00000000000E+00 0.  1.
         23    2    1    2    0    0  0.83885048643E+01  0.57500286286E+02 -0.12527925340E+03  0.18626846373E+03  0.12499759722E+03 0.  0.
          5    1    3    3  502    0 -0.19597551752E+02  0.70408020737E+02 -0.13502311325E+03  0.15360561361E+03  0.47000000000E+01 0.  1.
         -5    1    3    3    0  502  0.27986056616E+02 -0.12907734450E+02  0.97438598503E+01  0.32662850126E+02  0.47000000000E+01 0.  1.
        -11    1    1    2    0    0 -0.13869585907E+02 -0.35356351333E+02 -0.70257463118E+02  0.79865813191E+02  0.00000000000E+00 0.  1.
         11    1    1    2    0    0  0.54810810423E+01 -0.22143934953E+02  0.27455273609E+02  0.35695772209E+02  0.00000000000E+00 0. -1.
<mgrwt>
<rscale>  0 0.12948955E+03</rscale>
<asrwt>0</asrwt>
<pdfrwt beam="2">  1        1 0.36147039E-01 0.13784429E+03</pdfrwt>
<pdfrwt beam="1">  1       -1 0.10288354E-01 0.13784429E+03</pdfrwt>
<totfact> 0.66371723E+03</totfact>
</mgrwt>
</event>
<event>
 7    1  0.5928109E-006  0.1265850E+03  0.7546771E-02  0.1252202E+00
         -2   -1    0    0    0  501 -0.00000000000E+00  0.00000000000E+00  0.65071865701E+02  0.65071865701E+02  0.00000000000E+00 0.  1.
          2   -1    0    0  501    0  0.00000000000E+00 -0.00000000000E+00 -0.18875563832E+03  0.18875563832E+03  0.00000000000E+00 0. -1.
         23    2    1    2    0    0  0.16741741832E+02  0.10781494512E+02 -0.10972876202E+03  0.16752359835E+03  0.12500891266E+03 0.  0.
          5    1    3    3  502    0  0.53212090607E+02 -0.36306414270E+02 -0.72640698775E+02  0.97203103976E+02  0.47000000000E+01 0.  1.
         -5    1    3    3    0  502 -0.36470348776E+02  0.47087908782E+02 -0.37088063243E+02  0.70320494370E+02  0.47000000000E+01 0.  1.
        -11    1    1    2    0    0  0.73643318635E+01  0.11749042156E+02 -0.41226935192E+02  0.43496362615E+02  0.00000000000E+00 0. -1.
         11    1    1    2    0    0 -0.24106073695E+02 -0.22530536668E+02  0.27271924595E+02  0.42807543058E+02  0.00000000000E+00 0.  1.
<mgrwt>
<rscale>  0 0.11464523E+03</rscale>
<asrwt>0</asrwt>
<pdfrwt beam="2">  1        2 0.29039329E-01 0.12658497E+03</pdfrwt>
<pdfrwt beam="1">  1       -2 0.10011056E-01 0.12658497E+03</pdfrwt>
<totfact> 0.11262212E+04</totfact>
</mgrwt>
</event>
<event>
 7    1  0.5928109E-006  0.1254118E+03  0.7546771E-02  0.1249929E+00
         -2   -1    0    0    0  501 -0.00000000000E+00  0.00000000000E+00  0.40070373395E+02  0.40070373395E+02  0.00000000000E+00 0.  1.
          2   -1    0    0  501    0  0.00000000000E+00 -0.00000000000E+00 -0.40624725322E+03  0.40624725322E+03  0.00000000000E+00 0. -1.
         23    2    1    2    0    0 -0.28359486111E+01  0.97763787539E+01 -0.32000273174E+03  0.34370025507E+03  0.12499798730E+03 0.  0.
          5    1    3    3  502    0  0.24774900407E+02  0.41505727060E+02 -0.47507736985E+02  0.67938178827E+02  0.47000000000E+01 0.  1.
         -5    1    3    3    0  502 -0.27610849018E+02 -0.31729348306E+02 -0.27249499475E+03  0.27576207624E+03  0.47000000000E+01 0.  1.
        -11    1    1    2    0    0 -0.23005938880E+02 -0.93356804054E+01  0.19803147583E+02  0.31758350186E+02  0.00000000000E+00 0.  1.
         11    1    1    2    0    0  0.25841887491E+02 -0.44069834846E+00 -0.65977295666E+02  0.70859021356E+02  0.00000000000E+00 0. -1.
<mgrwt>
<rscale>  0 0.11595181E+03</rscale>
<asrwt>0</asrwt>
<pdfrwt beam="2">  1        2 0.62499580E-01 0.12541179E+03</pdfrwt>
<pdfrwt beam="1">  1       -2 0.61646726E-02 0.12541179E+03</pdfrwt>
<totfact> 0.10504891E+04</totfact>
</mgrwt>
</event>
<event>
 7    1  0.5928109E-006  0.1542682E+03  0.7546771E-02  0.1200563E+00
          1   -1    0    0  501    0  0.00000000000E+00  0.00000000000E+00  0.48203196008E+03  0.48203196008E+03  0.00000000000E+00 0. -1.
         -1   -1    0    0    0  501 -0.00000000000E+00 -0.00000000000E+00 -0.44304890441E+02  0.44304890441E+02  0.00000000000E+00 0.  1.
         23    2    1    2    0    0 -0.18394816990E+02  0.88514623109E+02  0.21779749323E+03  0.26689775560E+03  0.12500182434E+03 0.  0.
          5    1    3    3  502    0 -0.12525380627E+02 -0.30280416710E+02  0.67438423011E+02  0.75125359860E+02  0.47000000000E+01 0. -1.
         -5    1    3    3    0  502 -0.58694363632E+01  0.11879503982E+03  0.15035907022E+03  0.19177239574E+03  0.47000000000E+01 0. -1.
        -11    1    1    2    0    0 -0.86743915367E+01  0.17225086132E+02  0.76609165946E+01  0.20751826519E+02  0.00000000000E+00 0. -1.
         11    1    1    2    0    0  0.27069208526E+02 -0.10573970924E+03  0.21226865981E+03  0.23868726841E+03  0.00000000000E+00 0.  1.
<mgrwt>
<rscale>  0 0.14992658E+03</rscale>
<asrwt>0</asrwt>
<pdfrwt beam="1">  1        1 0.74158759E-01 0.15426816E+03</pdfrwt>
<pdfrwt beam="2">  1       -1 0.68161373E-02 0.15426816E+03</pdfrwt>
<totfact> 0.50621821E+03</totfact>
</mgrwt>
</event>
<event>
 7    1  0.5928109E-006  0.1294084E+03  0.7546771E-02  0.1242374E+00
         -2   -1    0    0    0  501 -0.00000000000E+00  0.00000000000E+00  0.55248580297E+03  0.55248580297E+03  0.00000000000E+00 0.  1.
          2   -1    0    0  501    0  0.00000000000E+00 -0.00000000000E+00 -0.23267018950E+02  0.23267018950E+02  0.00000000000E+00 0. -1.
         23    2    1    2    0    0 -0.11672219526E+02  0.31347619604E+02  0.31578747966E+03  0.34127445890E+03  0.12501043966E+03 0.  0.
          5    1    3    3  502    0 -0.49926553348E+02  0.59958901627E+02  0.15686522337E+03  0.17526128755E+03  0.47000000000E+01 0. -1.
         -5    1    3    3    0  502  0.38254333822E+02 -0.28611282023E+02  0.15892225629E+03  0.16601317135E+03  0.47000000000E+01 0. -1.
        -11    1    1    2    0    0 -0.18379144999E+02 -0.30248480293E+02  0.19711114388E+03  0.20026374253E+03  0.00000000000E+00 0.  1.
         11    1    1    2    0    0  0.30051364525E+02 -0.10991393111E+01  0.16320160483E+02  0.34214620489E+02  0.00000000000E+00 0. -1.
<mgrwt>
<rscale>  0 0.12043965E+03</rscale>
<asrwt>0</asrwt>
<pdfrwt beam="2">  1        2 0.35795418E-02 0.12940836E+03</pdfrwt>
<pdfrwt beam="1">  1       -2 0.84997806E-01 0.12940836E+03</pdfrwt>
<totfact> 0.29142714E+03</totfact>
</mgrwt>
</event>
<event>
 7    1  0.5928109E-006  0.1527406E+03  0.7546771E-02  0.1205656E+00
         -2   -1    0    0    0  501 -0.00000000000E+00  0.00000000000E+00  0.31607489418E+02  0.31607489418E+02  0.00000000000E+00 0. -1.
          2   -1    0    0  501    0  0.00000000000E+00 -0.00000000000E+00 -0.64094193774E+03  0.64094193774E+03  0.00000000000E+00 0.  1.
         23    2    1    2    0    0  0.16663729001E+02 -0.86167772156E+02 -0.39363308366E+03  0.42222823785E+03  0.12500846157E+03 0.  0.
          5    1    3    3  502    0  0.44601331653E+02  0.11019596310E+02 -0.17990332664E+03  0.18573639176E+03  0.47000000000E+01 0.  1.
         -5    1    3    3    0  502 -0.27937602652E+02 -0.97187368465E+02 -0.21372975702E+03  0.23649184609E+03  0.47000000000E+01 0.  1.
        -11    1    1    2    0    0 -0.28462833383E+02  0.60869226392E+02 -0.21171577875E+03  0.22212331390E+03  0.00000000000E+00 0.  1.
         11    1    1    2    0    0  0.11799104383E+02  0.25298545764E+02 -0.39855859005E+01  0.28197875398E+02  0.00000000000E+00 0. -1.
<mgrwt>
<rscale>  0 0.14585868E+03</rscale>
<asrwt>0</asrwt>
<pdfrwt beam="2">  1        2 0.98606445E-01 0.15274057E+03</pdfrwt>
<pdfrwt beam="1">  1       -2 0.48626910E-02 0.15274057E+03</pdfrwt>
<totfact> 0.91957151E+03</totfact>
</mgrwt>
</event>
<event>
 7    1  0.5928109E-006  0.1294224E+03  0.7546771E-02  0.1240836E+00
          2   -1    0    0  501    0  0.00000000000E+00  0.00000000000E+00  0.21610663241E+03  0.21610663241E+03  0.00000000000E+00 0.  1.
         -2   -1    0    0    0  501 -0.00000000000E+00 -0.00000000000E+00 -0.71311268340E+02  0.71311268340E+02  0.00000000000E+00 0. -1.
         23    2    1    2    0    0  0.96684481054E+01 -0.32135066686E+02  0.13466338653E+03  0.18677359878E+03  0.12499603246E+03 0.  0.
          5    1    3    3  502    0 -0.15925178531E+02 -0.76115676922E+02  0.88538969751E+02  0.11793407798E+03  0.47000000000E+01 0.  1.
         -5    1    3    3    0  502  0.25593626636E+02  0.43980610236E+02  0.46124416779E+02  0.68839520802E+02  0.47000000000E+01 0.  1.
        -11    1    1    2    0    0 -0.22273319560E+02  0.56821503679E+02 -0.15416247502E+02  0.62947952561E+02  0.00000000000E+00 0.  1.
         11    1    1    2    0    0  0.12604871454E+02 -0.24686436993E+02  0.25548225042E+02  0.37696349406E+02  0.00000000000E+00 0. -1.
<mgrwt>
<rscale>  0 0.12138117E+03</rscale>
<asrwt>0</asrwt>
<pdfrwt beam="1">  1        2 0.33247174E-01 0.12942237E+03</pdfrwt>
<pdfrwt beam="2">  1       -2 0.10970964E-01 0.12942237E+03</pdfrwt>
<totfact> 0.84410372E+03</totfact>
</mgrwt>
</event>
<event>
 7    1  0.5928109E-006  0.1890140E+03  0.7546771E-02  0.1164582E+00
          2   -1    0    0  501    0  0.00000000000E+00  0.00000000000E+00  0.20932863719E+04  0.20932863719E+04  0.00000000000E+00 0. -1.
         -2   -1    0    0    0  501 -0.00000000000E+00 -0.00000000000E+00 -0.17263473945E+02  0.17263473945E+02  0.00000000000E+00 0.  1.
         23    2    1    2    0    0  0.12499557513E+02  0.14123104526E+03  0.14598548030E+04  0.14720401914E+04  0.12499532953E+03 0.  0.
          5    1    3    3  502    0 -0.40479694068E+02  0.12423935787E+03  0.11234485622E+04  0.11310317350E+04  0.47000000000E+01 0.  1.
         -5    1    3    3    0  502  0.52979251582E+02  0.16991687382E+02  0.33640624078E+03  0.34100845646E+03  0.47000000000E+01 0.  1.
        -11    1    1    2    0    0  0.17836340527E+02 -0.12222521776E+01  0.28588913393E+02  0.33718762029E+02  0.00000000000E+00 0.  1.
         11    1    1    2    0    0 -0.30335898040E+02 -0.14000879308E+03  0.58757918161E+03  0.60479089239E+03  0.00000000000E+00 0. -1.
<mgrwt>
<rscale>  0 0.18336909E+03</rscale>
<asrwt>0</asrwt>
<pdfrwt beam="1">  1        2 0.32204386E+00 0.18901397E+03</pdfrwt>
<pdfrwt beam="2">  1       -2 0.26559207E-02 0.18901397E+03</pdfrwt>
<totfact> 0.33728860E+03</totfact>
</mgrwt>
</event>
<event>
 7    1  0.5928109E-006  0.1327243E+03  0.7546771E-02  0.1235111E+00
          1   -1    0    0  501    0  0.00000000000E+00  0.00000000000E+00  0.35536491330E+03  0.35536491330E+03  0.00000000000E+00 0. -1.
         -1   -1    0    0    0  501 -0.00000000000E+00 -0.00000000000E+00 -0.52249966701E+02  0.52249966701E+02  0.00000000000E+00 0.  1.
         23    2    1    2    0    0  0.34051981778E+02 -0.28823523028E+02  0.26528959514E+03  0.29663835040E+03  0.12500163477E+03 0.  0.
          5    1    3    3  502    0  0.16395150676E+01 -0.75056424147E+02  0.16762355434E+03  0.18372778991E+03  0.47000000000E+01 0.  1.
         -5    1    3    3    0  502  0.32412466710E+02  0.46232901119E+02  0.97666040796E+02  0.11291056048E+03  0.47000000000E+01 0.  1.
        -11    1    1    2    0    0 -0.55111293062E+02  0.30259498227E+01 -0.64557064563E+01  0.55570560022E+02  0.00000000000E+00 0. -1.
         11    1    1    2    0    0  0.21059311284E+02  0.25797573205E+02  0.44281057913E+02  0.55405969579E+02  0.00000000000E+00 0.  1.
<mgrwt>
<rscale>  0 0.12497311E+03</rscale>
<asrwt>0</asrwt>
<pdfrwt beam="1">  1        1 0.54671524E-01 0.13272431E+03</pdfrwt>
<pdfrwt beam="2">  1       -1 0.80384566E-02 0.13272431E+03</pdfrwt>
<totfact> 0.57690251E+03</totfact>
</mgrwt>
</event>
<event>
 6    1  0.5928109E-006  0.1872973E+03  0.7546771E-02  0.1239682E+00
          2   -1    0    0  501    0  0.00000000000E+00  0.00000000000E+00  0.23545728717E+03  0.23545728717E+03  0.00000000000E+00 0. -1.
         -2   -1    0    0    0  501 -0.00000000000E+00 -0.00000000000E+00 -0.61376860134E+02  0.61376860134E+02  0.00000000000E+00 0.  1.
          5    1    1    2  502    0 -0.36051129965E+02  0.77504010367E+01  0.21519002554E+03  0.21837717322E+03  0.47000000000E+01 0. -1.
         -5    1    1    2    0  502  0.13025696986E+02 -0.25738658629E+02 -0.32190756525E+02  0.43479674971E+02  0.47000000000E+01 0.  1.
        -11    1    1    2    0    0  0.10305701755E+02 -0.74787826627E+00 -0.64891822506E+01  0.12201487485E+02  0.00000000000E+00 0. -1.
         11    1    1    2    0    0  0.12719731223E+02  0.18736135858E+02 -0.24296597283E+01  0.22775811636E+02  0.00000000000E+00 0.  1.
<mgrwt>
<rscale>  0 0.12209433E+03</rscale>
<asrwt>0</asrwt>
<pdfrwt beam="1">  1        2 0.36224198E-01 0.18729729E+03</pdfrwt>
<pdfrwt beam="2">  1       -2 0.94425940E-02 0.18729729E+03</pdfrwt>
<totfact> 0.10014306E+04</totfact>
</mgrwt>
</event>
<event>
 7    1  0.5928109E-006  0.2632716E+03  0.7546771E-02  0.1107427E+00
         -2   -1    0    0    0  501 -0.00000000000E+00  0.00000000000E+00  0.82459147057E+02  0.82459147057E+02  0.00000000000E+00 0.  1.
          2   -1    0    0  501    0  0.00000000000E+00 -0.00000000000E+00 -0.11522377194E+04  0.11522377194E+04  0.00000000000E+00 0. -1.
         23    2    1    2    0    0  0.15950225472E+03  0.16806257660E+03 -0.88938393825E+03  0.92753205689E+03  0.12500371210E+03 0.  0.
          5    1    3    3  502    0  0.14037844497E+03  0.78971153973E+02 -0.68515514419E+03  0.70384814597E+03  0.47000000000E+01 0.  1.
         -5    1    3    3    0  502  0.19123809744E+02  0.89091422623E+02 -0.20422879406E+03  0.22368391093E+03  0.47000000000E+01 0.  1.
        -11    1    1    2    0    0 -0.13974070102E+03 -0.11390851676E+03 -0.17151607932E+03  0.24883805814E+03  0.00000000000E+00 0. -1.
         11    1    1    2    0    0 -0.19761553699E+02 -0.54154059833E+02 -0.88785548118E+01  0.58326751465E+02  0.00000000000E+00 0.  1.
<mgrwt>
<rscale>  0 0.25952761E+03</rscale>
<asrwt>0</asrwt>
<pdfrwt beam="2">  1        2 0.17726733E+00 0.26327158E+03</pdfrwt>
<pdfrwt beam="1">  1       -2 0.12686023E-01 0.26327158E+03</pdfrwt>
<totfact> 0.96352228E+02</totfact>
</mgrwt>
</event>
<event>
 7    1  0.5928109E-006  0.1423515E+03  0.7546771E-02  0.1230846E+00
          1   -1    0    0  501    0  0.00000000000E+00  0.00000000000E+00  0.71593007936E+02  0.71593007936E+02  0.00000000000E+00 0. -1.
         -1   -1    0    0    0  501 -0.00000000000E+00 -0.00000000000E+00 -0.19233936534E+03  0.19233936534E+03  0.00000000000E+00 0.  1.
         23    2    1    2    0    0  0.28824418663E+02 -0.61716118972E+02 -0.75368528818E+02  0.16107254653E+03  0.12499689459E+03 0.  0.
          5    1    3    3  502    0 -0.31740003078E+02 -0.73696233681E+02 -0.44824088972E+02  0.92031796713E+02  0.47000000000E+01 0.  1.
         -5    1    3    3    0  502  0.60564421741E+02  0.11980114709E+02 -0.30544439846E+02  0.69040749813E+02  0.47000000000E+01 0.  1.
        -11    1    1    2    0    0 -0.96327297072E+01  0.69668561668E+02 -0.41695469282E+02  0.81761911213E+02  0.00000000000E+00 0.  1.
         11    1    1    2    0    0 -0.19191688956E+02 -0.79524426965E+01 -0.36823593013E+01  0.21097915533E+02  0.00000000000E+00 0. -1.
<mgrwt>
<rscale>  0 0.12774174E+03</rscale>
<asrwt>0</asrwt>
<pdfrwt beam="1">  1        1 0.11014309E-01 0.14235150E+03</pdfrwt>
<pdfrwt beam="2">  1       -1 0.29590671E-01 0.14235150E+03</pdfrwt>
<totfact> 0.56228832E+03</totfact>
</mgrwt>
</event>
<event>
 7    1  0.5928109E-006  0.1254394E+03  0.7546771E-02  0.1247318E+00
         -2   -1    0    0    0  501 -0.00000000000E+00  0.00000000000E+00  0.80746444482E+02  0.80746444482E+02  0.00000000000E+00 0.  1.
          2   -1    0    0  501    0  0.00000000000E+00 -0.00000000000E+00 -0.15405342901E+03  0.15405342901E+03  0.00000000000E+00 0. -1.
         23    2    1    2    0    0  0.15134295423E+01 -0.10409312870E+02 -0.53073640591E+02  0.13620515222E+03  0.12499755158E+03 0.  0.
          5    1    3    3  502    0  0.11598820672E+02 -0.56884307023E+02 -0.64667341270E+02  0.87030523688E+02  0.47000000000E+01 0.  1.
         -5    1    3    3    0  502 -0.10085391129E+02  0.46474994153E+02  0.11593700679E+02  0.49174628531E+02  0.47000000000E+01 0.  1.
        -11    1    1    2    0    0 -0.22028383078E+02 -0.25597310356E+02 -0.40276741045E+02  0.52561276884E+02  0.00000000000E+00 0. -1.
         11    1    1    2    0    0  0.20514953536E+02  0.36006623226E+02  0.20043397107E+02  0.46033444389E+02  0.00000000000E+00 0.  1.
<mgrwt>
<rscale>  0 0.11747704E+03</rscale>
<asrwt>0</asrwt>
<pdfrwt beam="2">  1        2 0.23700527E-01 0.12543936E+03</pdfrwt>
<pdfrwt beam="1">  1       -2 0.12422530E-01 0.12543936E+03</pdfrwt>
<totfact> 0.99886622E+03</totfact>
</mgrwt>
</event>
<event>
 7    1  0.5928109E-006  0.1608979E+03  0.7546771E-02  0.1195205E+00
         -2   -1    0    0    0  501 -0.00000000000E+00  0.00000000000E+00  0.22488076465E+02  0.22488076465E+02  0.00000000000E+00 0.  1.
          2   -1    0    0  501    0  0.00000000000E+00 -0.00000000000E+00 -0.10524083620E+04  0.10524083620E+04  0.00000000000E+00 0. -1.
         23    2    1    2    0    0 -0.91957593138E+02 -0.42498505577E+02 -0.69312683481E+03  0.71155669743E+03  0.12500321040E+03 0.  0.
          5    1    3    3  502    0 -0.74936477529E+02 -0.79909158818E+02 -0.37345789673E+03  0.38922209592E+03  0.47000000000E+01 0.  1.
         -5    1    3    3    0  502 -0.17021115610E+02  0.37410653241E+02 -0.31966893808E+03  0.32233460151E+03  0.47000000000E+01 0.  1.
        -11    1    1    2    0    0  0.19927193808E+02  0.15480156092E+02 -0.92379014660E+01  0.26871306429E+02  0.00000000000E+00 0.  1.
         11    1    1    2    0    0  0.72030399330E+02  0.27018349485E+02 -0.32755554926E+03  0.33646843461E+03  0.00000000000E+00 0. -1.
<mgrwt>
<rscale>  0 0.15436925E+03</rscale>
<asrwt>0</asrwt>
<pdfrwt beam="2">  1        2 0.16190897E+00 0.16089787E+03</pdfrwt>
<pdfrwt beam="1">  1       -2 0.34597042E-02 0.16089787E+03</pdfrwt>
<totfact> 0.81504794E+03</totfact>
</mgrwt>
</event>
<event>
 7    1  0.5928109E-006  0.1681187E+03  0.7546771E-02  0.1185931E+00
          2   -1    0    0  501    0  0.00000000000E+00  0.00000000000E+00  0.71095166509E+03  0.71095166509E+03  0.00000000000E+00 0. -1.
         -2   -1    0    0    0  501 -0.00000000000E+00 -0.00000000000E+00 -0.34861118130E+02  0.34861118130E+02  0.00000000000E+00 0.  1.
         23    2    1    2    0    0 -0.10672408853E+03  0.35310482346E+02  0.35222418176E+03  0.39028932320E+03  0.12500808114E+03 0.  0.
          5    1    3    3  502    0 -0.12602717523E+03  0.37054091017E+02  0.21777919185E+03  0.25437319230E+03  0.47000000000E+01 0.  1.
         -5    1    3    3    0  502  0.19303086695E+02 -0.17436086715E+01  0.13444498991E+03  0.13591613090E+03  0.47000000000E+01 0.  1.
        -11    1    1    2    0    0  0.65117319638E+02 -0.40502472009E+02  0.91414516595E+02  0.11932028076E+03  0.00000000000E+00 0.  1.
         11    1    1    2    0    0  0.41606768893E+02  0.51919896637E+01  0.23245184861E+03  0.23620317926E+03  0.00000000000E+00 0. -1.
<mgrwt>
<rscale>  0 0.16247468E+03</rscale>
<asrwt>0</asrwt>
<pdfrwt beam="1">  1        2 0.10937717E+00 0.16811865E+03</pdfrwt>
<pdfrwt beam="2">  1       -2 0.53632495E-02 0.16811865E+03</pdfrwt>
<totfact> 0.70534497E+03</totfact>
</mgrwt>
</event>
<event>
 7    1  0.5928109E-006  0.1582787E+03  0.7546771E-02  0.1198543E+00
          1   -1    0    0  501    0  0.00000000000E+00  0.00000000000E+00  0.20975380734E+03  0.20975380734E+03  0.00000000000E+00 0. -1.
         -1   -1    0    0    0  501 -0.00000000000E+00 -0.00000000000E+00 -0.10209216620E+03  0.10209216620E+03  0.00000000000E+00 0.  1.
         23    2    1    2    0    0 -0.60380087612E+02  0.76033468893E+02  0.72785472133E+02  0.17421216438E+03  0.12500123957E+03 0.  0.
          5    1    3    3  502    0  0.36686509695E+02  0.39085319240E+02  0.18333609599E+02  0.56848688767E+02  0.47000000000E+01 0. -1.
         -5    1    3    3    0  502 -0.97066597307E+02  0.36948149653E+02  0.54451862535E+02  0.11736347562E+03  0.47000000000E+01 0. -1.
        -11    1    1    2    0    0  0.13527978020E+02  0.99290888640E+01 -0.19434732334E+02  0.25676873172E+02  0.00000000000E+00 0.  1.
         11    1    1    2    0    0  0.46852109592E+02 -0.85962557757E+02  0.54310901337E+02  0.11195693598E+03  0.00000000000E+00 0. -1.
<mgrwt>
<rscale>  0 0.15158123E+03</rscale>
<asrwt>0</asrwt>
<pdfrwt beam="1">  1        1 0.32269816E-01 0.15827872E+03</pdfrwt>
<pdfrwt beam="2">  1       -1 0.15706487E-01 0.15827872E+03</pdfrwt>
<totfact> 0.39942883E+03</totfact>
</mgrwt>
</event>
<event>
 7    1  0.5928109E-006  0.1143559E+03  0.7546771E-02  0.1264060E+00
          1   -1    0    0  501    0  0.00000000000E+00  0.00000000000E+00  0.83827887894E+03  0.83827887894E+03  0.00000000000E+00 0. -1.
         -1   -1    0    0    0  501 -0.00000000000E+00 -0.00000000000E+00 -0.12808975615E+02  0.12808975615E+02  0.00000000000E+00 0.  1.
         23    2    1    2    0    0  0.60146060208E+01  0.79723351181E+00  0.50805242586E+03  0.52076341479E+03  0.11419481468E+03 0.  0.
          5    1    3    3  502    0  0.33135566431E+02  0.39695963643E+02  0.39023732830E+03  0.39367626001E+03  0.47000000000E+01 0. -1.
         -5    1    3    3    0  502 -0.27120960410E+02 -0.38898730132E+02  0.11781509756E+03  0.12708715479E+03  0.47000000000E+01 0.  1.
        -11    1    1    2    0    0  0.39378293366E+02  0.14855640048E+02  0.17659685994E+03  0.18154280754E+03  0.00000000000E+00 0. -1.
         11    1    1    2    0    0 -0.45392899386E+02 -0.15652873560E+02  0.14082061752E+03  0.14878163221E+03  0.00000000000E+00 0.  1.
<mgrwt>
<rscale>  0 0.10813645E+03</rscale>
<asrwt>0</asrwt>
<pdfrwt beam="1">  1        1 0.12896594E+00 0.11435588E+03</pdfrwt>
<pdfrwt beam="2">  1       -1 0.19706123E-02 0.11435588E+03</pdfrwt>
<totfact> 0.14156404E+04</totfact>
</mgrwt>
</event>
<event>
 7    1  0.5928109E-006  0.1798145E+03  0.7546771E-02  0.1174732E+00
         -4   -1    0    0    0  501 -0.00000000000E+00  0.00000000000E+00  0.76460376136E+03  0.76460376136E+03  0.00000000000E+00 0.  1.
          4   -1    0    0  501    0  0.00000000000E+00 -0.00000000000E+00 -0.36784161280E+02  0.36784161280E+02  0.00000000000E+00 0. -1.
         23    2    1    2    0    0 -0.85044535880E+02 -0.97346377072E+02  0.42874279775E+03  0.46492328048E+03  0.12499751957E+03 0.  0.
          5    1    3    3  502    0 -0.44274967977E+02 -0.12062276078E+03  0.26544503687E+03  0.29494623376E+03  0.47000000000E+01 0.  1.
         -5    1    3    3    0  502 -0.40769567903E+02  0.23276383708E+02  0.16329776088E+03  0.16997704673E+03  0.47000000000E+01 0.  1.
        -11    1    1    2    0    0  0.52582210041E+02  0.48332809109E+02  0.24962944688E+03  0.25964554685E+03  0.00000000000E+00 0.  1.
         11    1    1    2    0    0  0.32462325839E+02  0.49013567963E+02  0.49447355457E+02  0.76819095315E+02  0.00000000000E+00 0. -1.
<mgrwt>
<rscale>  0 0.17302262E+03</rscale>
<asrwt>0</asrwt>
<pdfrwt beam="2">  1        4 0.56591023E-02 0.17981454E+03</pdfrwt>
<pdfrwt beam="1">  1       -4 0.11763134E+00 0.17981454E+03</pdfrwt>
<totfact> 0.19911170E+02</totfact>
</mgrwt>
</event>
<event>
 7    1  0.5928109E-006  0.2520081E+03  0.7546771E-02  0.1114643E+00
          1   -1    0    0  501    0  0.00000000000E+00  0.00000000000E+00  0.11659353674E+03  0.11659353674E+03  0.00000000000E+00 0. -1.
         -1   -1    0    0    0  501 -0.00000000000E+00 -0.00000000000E+00 -0.51129355420E+03  0.51129355420E+03  0.00000000000E+00 0.  1.
         23    2    1    2    0    0  0.21856502219E+03 -0.10383914168E+02 -0.19178007195E+03  0.31668233426E+03  0.12501843959E+03 0.  0.
          5    1    3    3  502    0  0.10158340688E+03 -0.58151519678E+02 -0.13302418360E+03  0.17725211202E+03  0.47000000000E+01 0. -1.
         -5    1    3    3    0  502  0.11698161532E+03  0.47767605509E+02 -0.58755888350E+02  0.13943022224E+03  0.47000000000E+01 0. -1.
        -11    1    1    2    0    0 -0.25318253286E+02 -0.28522041208E+02 -0.24529645609E+02  0.45345609466E+02  0.00000000000E+00 0.  1.
         11    1    1    2    0    0 -0.19324676891E+03  0.38905955377E+02 -0.17839029990E+03  0.26585914721E+03  0.00000000000E+00 0. -1.
<mgrwt>
<rscale>  0 0.24789367E+03</rscale>
<asrwt>0</asrwt>
<pdfrwt beam="1">  1        1 0.17937467E-01 0.25200814E+03</pdfrwt>
<pdfrwt beam="2">  1       -1 0.78660546E-01 0.25200814E+03</pdfrwt>
<totfact> 0.49861269E+02</totfact>
</mgrwt>
</event>
<event>
 7    1  0.5928109E-006  0.1574262E+03  0.7546771E-02  0.1200876E+00
         -3   -1    0    0    0  501 -0.00000000000E+00  0.00000000000E+00  0.17402093788E+03  0.17402093788E+03  0.00000000000E+00 0. -1.
          3   -1    0    0  501    0  0.00000000000E+00 -0.00000000000E+00 -0.12341929247E+03  0.12341929247E+03  0.00000000000E+00 0.  1.
         23    2    1    2    0    0 -0.31906371968E+02 -0.90221117698E+02 -0.45375516391E+01  0.15749160783E+03  0.12500060205E+03 0.  0.
          5    1    3    3  502    0  0.20540748030E+02 -0.24318047284E+02  0.48238957482E+02  0.57986004969E+02  0.47000000000E+01 0. -1.
         -5    1    3    3    0  502 -0.52447119998E+02 -0.65903070414E+02 -0.52776509121E+02  0.99505602863E+02  0.47000000000E+01 0. -1.
        -11    1    1    2    0    0 -0.28382092555E+01  0.76963315231E+02  0.65762986132E+02  0.10127278839E+03  0.00000000000E+00 0. -1.
         11    1    1    2    0    0  0.34744581224E+02  0.13257802466E+02 -0.10623789090E+02  0.38675834125E+02  0.00000000000E+00 0.  1.
<mgrwt>
<rscale>  0 0.14967253E+03</rscale>
<asrwt>0</asrwt>
<pdfrwt beam="2">  1        3 0.18987583E-01 0.15742623E+03</pdfrwt>
<pdfrwt beam="1">  1       -3 0.26772452E-01 0.15742623E+03</pdfrwt>
<totfact> 0.77042549E+02</totfact>
</mgrwt>
</event>
<event>
 7    1  0.5928109E-006  0.1721259E+03  0.7546771E-02  0.1182015E+00
         -2   -1    0    0    0  501 -0.00000000000E+00  0.00000000000E+00  0.30053933883E+02  0.30053933883E+02  0.00000000000E+00 0.  1.
          2   -1    0    0  501    0  0.00000000000E+00 -0.00000000000E+00 -0.98949655044E+03  0.98949655044E+03  0.00000000000E+00 0. -1.
         23    2    1    2    0    0 -0.26283608394E+01  0.11830464715E+03 -0.69456897191E+03  0.71557905646E+03  0.12499772593E+03 0.  0.
          5    1    3    3  502    0  0.54996237267E+02  0.83469843871E+02 -0.33095083801E+03  0.34574896692E+03  0.47000000000E+01 0. -1.
         -5    1    3    3    0  502 -0.57624598106E+02  0.34834803283E+02 -0.36361813390E+03  0.36983008954E+03  0.47000000000E+01 0. -1.
        -11    1    1    2    0    0 -0.68718824407E+01 -0.20941522021E+02 -0.46366242435E+00  0.22045069646E+02  0.00000000000E+00 0.  1.
         11    1    1    2    0    0  0.95002432801E+01 -0.97363125132E+02 -0.26440998222E+03  0.28192635822E+03  0.00000000000E+00 0. -1.
<mgrwt>
<rscale>  0 0.16606494E+03</rscale>
<asrwt>0</asrwt>
<pdfrwt beam="2">  1        2 0.15223022E+00 0.17212591E+03</pdfrwt>
<pdfrwt beam="1">  1       -2 0.46236826E-02 0.17212591E+03</pdfrwt>
<totfact> 0.57780551E+03</totfact>
</mgrwt>
</event>
<event>
 7    1  0.5928109E-006  0.1463877E+03  0.7546771E-02  0.1214690E+00
          1   -1    0    0  501    0  0.00000000000E+00  0.00000000000E+00  0.17545913993E+03  0.17545913993E+03  0.00000000000E+00 0. -1.
         -1   -1    0    0    0  501 -0.00000000000E+00 -0.00000000000E+00 -0.10300378846E+03  0.10300378846E+03  0.00000000000E+00 0.  1.
         23    2    1    2    0    0 -0.37730725668E+02 -0.66192721875E+02  0.62168951492E+02  0.15904193123E+03  0.12499709305E+03 0.  0.
          5    1    3    3  502    0 -0.23940231176E+02  0.19917371623E+02  0.64389920742E+02  0.71679761818E+02  0.47000000000E+01 0.  1.
         -5    1    3    3    0  502 -0.13790494492E+02 -0.86110093497E+02 -0.22209692505E+01  0.87362169415E+02  0.47000000000E+01 0.  1.
        -11    1    1    2    0    0  0.38978832601E+02 -0.23240561782E+01 -0.20719734818E+02  0.44204728695E+02  0.00000000000E+00 0. -1.
         11    1    1    2    0    0 -0.12481069328E+01  0.68516778053E+02  0.31006134803E+02  0.75216268460E+02  0.00000000000E+00 0.  1.
<mgrwt>
<rscale>  0 0.13899345E+03</rscale>
<asrwt>0</asrwt>
<pdfrwt beam="1">  1        1 0.26993714E-01 0.14638770E+03</pdfrwt>
<pdfrwt beam="2">  1       -1 0.15846737E-01 0.14638770E+03</pdfrwt>
<totfact> 0.49012465E+03</totfact>
</mgrwt>
</event>
<event>
 7    1  0.5928109E-006  0.1408575E+03  0.7546771E-02  0.1223225E+00
         -1   -1    0    0    0  501 -0.00000000000E+00  0.00000000000E+00  0.42700335946E+02  0.42700335946E+02  0.00000000000E+00 0.  1.
          1   -1    0    0  501    0  0.00000000000E+00 -0.00000000000E+00 -0.56865464341E+03  0.56865464341E+03  0.00000000000E+00 0. -1.
         23    2    1    2    0    0  0.64647352285E+02 -0.61760767622E+01 -0.46141398942E+03  0.48243519147E+03  0.12499368089E+03 0.  0.
          5    1    3    3  502    0  0.79071096010E+02 -0.38608890751E+02 -0.41255617873E+03  0.42186203347E+03  0.47000000000E+01 0. -1.
         -5    1    3    3    0  502 -0.14423743724E+02  0.32432813989E+02 -0.48857810683E+02  0.60573158007E+02  0.47000000000E+01 0. -1.
        -11    1    1    2    0    0 -0.35424344516E+02 -0.78167687032E+01 -0.83738639061E+02  0.91258674816E+02  0.00000000000E+00 0. -1.
         11    1    1    2    0    0 -0.29223007769E+02  0.13992845465E+02  0.19198321016E+02  0.37661113063E+02  0.00000000000E+00 0.  1.
<mgrwt>
<rscale>  0 0.13289309E+03</rscale>
<asrwt>0</asrwt>
<pdfrwt beam="2">  1        1 0.87485328E-01 0.14085753E+03</pdfrwt>
<pdfrwt beam="1">  1       -1 0.65692826E-02 0.14085753E+03</pdfrwt>
<totfact> 0.42820577E+03</totfact>
</mgrwt>
</event>
<event>
 7    1  0.5928109E-006  0.1441267E+03  0.7546771E-02  0.1217187E+00
         -1   -1    0    0    0  501 -0.00000000000E+00  0.00000000000E+00  0.16198477274E+03  0.16198477274E+03  0.00000000000E+00 0.  1.
          1   -1    0    0  501    0  0.00000000000E+00 -0.00000000000E+00 -0.22467939739E+03  0.22467939739E+03  0.00000000000E+00 0. -1.
         23    2    1    2    0    0  0.40625402346E+02  0.62890828764E+02 -0.17284884026E+03  0.22505380693E+03  0.12315362266E+03 0.  0.
          5    1    3    3  502    0  0.63586041581E+02  0.30639939100E+02 -0.17110170864E+03  0.18514825209E+03  0.47000000000E+01 0. -1.
         -5    1    3    3    0  502 -0.22960639235E+02  0.32250889664E+02 -0.17471316237E+01  0.39905554841E+02  0.47000000000E+01 0.  1.
        -11    1    1    2    0    0 -0.45072424484E+02 -0.33632331443E+02  0.11823870717E+03  0.13093146696E+03  0.00000000000E+00 0.  1.
         11    1    1    2    0    0  0.44470221383E+01 -0.29258497322E+02 -0.80844915564E+01  0.30678896251E+02  0.00000000000E+00 0. -1.
<mgrwt>
<rscale>  0 0.13717091E+03</rscale>
<asrwt>0</asrwt>
<pdfrwt beam="2">  1        1 0.34566061E-01 0.14412666E+03</pdfrwt>
<pdfrwt beam="1">  1       -1 0.24920734E-01 0.14412666E+03</pdfrwt>
<totfact> 0.17376690E+03</totfact>
</mgrwt>
</event>
<event>
 7    1  0.5928109E-006  0.2008867E+03  0.7546771E-02  0.1152473E+00
         -1   -1    0    0    0  501 -0.00000000000E+00  0.00000000000E+00  0.54862091741E+02  0.54862091741E+02  0.00000000000E+00 0.  1.
          1   -1    0    0  501    0  0.00000000000E+00 -0.00000000000E+00 -0.68792430838E+03  0.68792430838E+03  0.00000000000E+00 0. -1.
         23    2    1    2    0    0 -0.10440192691E+03 -0.11758710854E+03 -0.37263953188E+03  0.42333871533E+03  0.12501582597E+03 0.  0.
          5    1    3    3  502    0 -0.82955605470E+02 -0.73710759857E+02 -0.11060199007E+03  0.15674756396E+03  0.47000000000E+01 0.  1.
         -5    1    3    3    0  502 -0.21446321441E+02 -0.43876348683E+02 -0.26203754180E+03  0.26659115138E+03  0.47000000000E+01 0.  1.
        -11    1    1    2    0    0  0.51092300703E+02 -0.24934876038E+01 -0.97936236673E+02  0.11049048432E+03  0.00000000000E+00 0. -1.
         11    1    1    2    0    0  0.53309626208E+02  0.12008059614E+03 -0.16248644809E+03  0.20895720047E+03  0.00000000000E+00 0.  1.
<mgrwt>
<rscale>  0 0.19679279E+03</rscale>
<asrwt>0</asrwt>
<pdfrwt beam="2">  1        1 0.10583451E+00 0.20088665E+03</pdfrwt>
<pdfrwt beam="1">  1       -1 0.84403220E-02 0.20088665E+03</pdfrwt>
<totfact> 0.22763179E+03</totfact>
</mgrwt>
</event>
<event>
 7    1  0.5928109E-006  0.1348586E+03  0.7546771E-02  0.1233654E+00
         -2   -1    0    0    0  501 -0.00000000000E+00  0.00000000000E+00  0.67943570860E+02  0.67943570860E+02  0.00000000000E+00 0.  1.
          2   -1    0    0  501    0  0.00000000000E+00 -0.00000000000E+00 -0.31521224067E+03  0.31521224067E+03  0.00000000000E+00 0. -1.
         23    2    1    2    0    0  0.35635947481E+02  0.35953304402E+02 -0.24615664880E+03  0.28067764277E+03  0.12499713019E+03 0.  0.
          5    1    3    3  502    0  0.52900275346E+02  0.96917860973E+01 -0.29142782489E+02  0.61349503834E+02  0.47000000000E+01 0. -1.
         -5    1    3    3    0  502 -0.17264327865E+02  0.26261518305E+02 -0.21701386631E+03  0.21932813894E+03  0.47000000000E+01 0. -1.
        -11    1    1    2    0    0  0.24112141791E+01 -0.19894568718E+02  0.39666002780E+02  0.44440967528E+02  0.00000000000E+00 0.  1.
         11    1    1    2    0    0 -0.38047161660E+02 -0.16058735685E+02 -0.40778023794E+02  0.58037201231E+02  0.00000000000E+00 0. -1.
<mgrwt>
<rscale>  0 0.12591006E+03</rscale>
<asrwt>0</asrwt>
<pdfrwt beam="2">  1        2 0.48494191E-01 0.13485861E+03</pdfrwt>
<pdfrwt beam="1">  1       -2 0.10452857E-01 0.13485861E+03</pdfrwt>
<totfact> 0.61160458E+03</totfact>
</mgrwt>
</event>
<event>
 7    1  0.5928109E-006  0.1845849E+03  0.7546771E-02  0.1168508E+00
          1   -1    0    0  501    0  0.00000000000E+00  0.00000000000E+00  0.32326160703E+03  0.32326160703E+03  0.00000000000E+00 0. -1.
         -1   -1    0    0    0  501 -0.00000000000E+00 -0.00000000000E+00 -0.97588636058E+02  0.97588636058E+02  0.00000000000E+00 0.  1.
         23    2    1    2    0    0 -0.11889951931E+03 -0.65642904525E+02  0.15889516460E+03  0.24355548139E+03  0.12500205028E+03 0.  0.
          5    1    3    3  502    0 -0.43015870646E+02 -0.93639061674E+02  0.80887205520E+02  0.13108573155E+03  0.47000000000E+01 0.  1.
         -5    1    3    3    0  502 -0.75883648662E+02  0.27996157149E+02  0.78007959082E+02  0.11246974984E+03  0.47000000000E+01 0.  1.
        -11    1    1    2    0    0  0.52026046506E+02  0.79694271726E+02  0.30576339720E+02  0.99963988574E+02  0.00000000000E+00 0. -1.
         11    1    1    2    0    0  0.66873472801E+02 -0.14051367201E+02  0.36201466654E+02  0.77330773128E+02  0.00000000000E+00 0.  1.
<mgrwt>
<rscale>  0 0.17927333E+03</rscale>
<asrwt>0</asrwt>
<pdfrwt beam="1">  1        1 0.49732554E-01 0.18458494E+03</pdfrwt>
<pdfrwt beam="2">  1       -1 0.15013636E-01 0.18458494E+03</pdfrwt>
<totfact> 0.25178706E+03</totfact>
</mgrwt>
</event>
<event>
 6    1  0.5928109E-006  0.2256952E+03  0.7546771E-02  0.1148524E+00
         -2   -1    0    0    0  501 -0.00000000000E+00  0.00000000000E+00  0.27455637495E+02  0.27455637495E+02  0.00000000000E+00 0.  1.
          2   -1    0    0  501    0  0.00000000000E+00 -0.00000000000E+00 -0.13557055298E+04  0.13557055298E+04  0.00000000000E+00 0. -1.
          5    1    1    2  502    0 -0.91829996944E+01  0.39362568908E+02 -0.65553702788E+03  0.65679876998E+03  0.47000000000E+01 0. -1.
         -5    1    1    2    0  502 -0.79129517268E+02 -0.10333168971E+03 -0.34214694989E+03  0.36609499303E+03  0.47000000000E+01 0.  1.
        -11    1    1    2    0    0  0.10396689160E+03  0.37067082784E+02 -0.23228919133E+03  0.25717960958E+03  0.00000000000E+00 0.  1.
         11    1    1    2    0    0 -0.15654374639E+02  0.26902038023E+02 -0.98276723247E+02  0.10308779475E+03  0.00000000000E+00 0. -1.
<mgrwt>
<rscale>  0 0.20144695E+03</rscale>
<asrwt>0</asrwt>
<pdfrwt beam="2">  1        2 0.20857009E+00 0.22569522E+03</pdfrwt>
<pdfrwt beam="1">  1       -2 0.42239442E-02 0.22569522E+03</pdfrwt>
<totfact> 0.41228669E+03</totfact>
</mgrwt>
</event>
<event>
 7    1  0.5928109E-006  0.1328282E+03  0.7546771E-02  0.1239182E+00
          1   -1    0    0  501    0  0.00000000000E+00  0.00000000000E+00  0.73891366938E+02  0.73891366938E+02  0.00000000000E+00 0.  1.
         -1   -1    0    0    0  501 -0.00000000000E+00 -0.00000000000E+00 -0.17792929766E+03  0.17792929766E+03  0.00000000000E+00 0. -1.
         23    2    1    2    0    0 -0.43745091751E+02 -0.10387507792E+02 -0.70142744063E+02  0.15021098198E+03  0.12498720411E+03 0.  0.
          5    1    3    3  502    0 -0.81879102301E+02 -0.20260110846E+02 -0.71266379170E+02  0.11052441488E+03  0.47000000000E+01 0.  1.
         -5    1    3    3    0  502  0.38134010550E+02  0.98726030534E+01  0.11236351077E+01  0.39686567092E+02  0.47000000000E+01 0.  1.
        -11    1    1    2    0    0  0.63266010589E+02 -0.12652900949E+02 -0.15873583864E+02  0.66442867660E+02  0.00000000000E+00 0. -1.
         11    1    1    2    0    0 -0.19520918838E+02  0.23040408742E+02 -0.18021602795E+02  0.35166814962E+02  0.00000000000E+00 0.  1.
<mgrwt>
<rscale>  0 0.12240448E+03</rscale>
<asrwt>0</asrwt>
<pdfrwt beam="1">  1        1 0.11367903E-01 0.13282821E+03</pdfrwt>
<pdfrwt beam="2">  1       -1 0.27373738E-01 0.13282821E+03</pdfrwt>
<totfact> 0.61134840E+03</totfact>
</mgrwt>
</event>
<event>
 7    1  0.5928109E-006  0.1759866E+03  0.7546771E-02  0.1177691E+00
          2   -1    0    0  501    0  0.00000000000E+00  0.00000000000E+00  0.15615497414E+03  0.15615497414E+03  0.00000000000E+00 0. -1.
         -2   -1    0    0    0  501 -0.00000000000E+00 -0.00000000000E+00 -0.17745943010E+03  0.17745943010E+03  0.00000000000E+00 0.  1.
         23    2    1    2    0    0  0.29553066383E+02 -0.12030246210E+03  0.11550593933E+02  0.17636528290E+03  0.12500092270E+03 0.  0.
          5    1    3    3  502    0  0.47502665517E+02 -0.10250270925E+03  0.55106764079E+02  0.12578614424E+03  0.47000000000E+01 0. -1.
         -5    1    3    3    0  502 -0.17949599134E+02 -0.17799752841E+02 -0.43556170145E+02  0.50579138664E+02  0.47000000000E+01 0. -1.
        -11    1    1    2    0    0 -0.45813809870E+02  0.16612939332E+02 -0.79378355222E+01  0.49375137071E+02  0.00000000000E+00 0.  1.
         11    1    1    2    0    0  0.16260743487E+02  0.10368952276E+03 -0.24917214363E+02  0.10787398426E+03  0.00000000000E+00 0. -1.
<mgrwt>
<rscale>  0 0.17015068E+03</rscale>
<asrwt>0</asrwt>
<pdfrwt beam="1">  1        2 0.24023842E-01 0.17598664E+03</pdfrwt>
<pdfrwt beam="2">  1       -2 0.27301451E-01 0.17598664E+03</pdfrwt>
<totfact> 0.26734949E+03</totfact>
</mgrwt>
</event>
<event>
 7    1  0.5928109E-006  0.2963057E+03  0.7546771E-02  0.1088766E+00
          1   -1    0    0  501    0  0.00000000000E+00  0.00000000000E+00  0.37055273754E+03  0.37055273754E+03  0.00000000000E+00 0. -1.
         -1   -1    0    0    0  501 -0.00000000000E+00 -0.00000000000E+00 -0.24337180552E+03  0.24337180552E+03  0.00000000000E+00 0.  1.
         23    2    1    2    0    0  0.15156915587E+03  0.22181153002E+03  0.14495360795E+03  0.32986154351E+03  0.12499410213E+03 0.  0.
          5    1    3    3  502    0  0.97866170596E+02  0.54827896775E+02  0.19015209722E+02  0.11387516767E+03  0.47000000000E+01 0.  1.
         -5    1    3    3    0  502  0.53702985276E+02  0.16698363324E+03  0.12593839823E+03  0.21598637583E+03  0.47000000000E+01 0.  1.
        -11    1    1    2    0    0  0.26086069829E+01 -0.28992177577E+02 -0.23043249054E+02  0.37126035582E+02  0.00000000000E+00 0.  1.
         11    1    1    2    0    0 -0.15417776285E+03 -0.19281935244E+03  0.52705731257E+01  0.24693696397E+03  0.00000000000E+00 0. -1.
<mgrwt>
<rscale>  0 0.29305274E+03</rscale>
<asrwt>0</asrwt>
<pdfrwt beam="1">  1        1 0.57008113E-01 0.29630574E+03</pdfrwt>
<pdfrwt beam="2">  1       -1 0.37441816E-01 0.29630574E+03</pdfrwt>
<totfact> 0.46649820E+02</totfact>
</mgrwt>
</event>
<event>
 7    1  0.5928109E-006  0.1354569E+03  0.7546771E-02  0.1232072E+00
          2   -1    0    0  501    0  0.00000000000E+00  0.00000000000E+00  0.83690137742E+03  0.83690137742E+03  0.00000000000E+00 0. -1.
         -2   -1    0    0    0  501 -0.00000000000E+00 -0.00000000000E+00 -0.18422864384E+02  0.18422864384E+02  0.00000000000E+00 0.  1.
         23    2    1    2    0    0  0.11185061942E+02  0.50965871757E+02  0.56814129930E+03  0.58406601075E+03  0.12500377292E+03 0.  0.
          5    1    3    3  502    0  0.53786310152E+02  0.10823112189E+02  0.11924725806E+03  0.13134727052E+03  0.47000000000E+01 0.  1.
         -5    1    3    3    0  502 -0.42601248210E+02  0.40142759568E+02  0.44889404124E+03  0.45271874023E+03  0.47000000000E+01 0.  1.
        -11    1    1    2    0    0 -0.51162293876E+02 -0.27160049632E+02  0.13704913792E+03  0.14878748205E+03  0.00000000000E+00 0.  1.
         11    1    1    2    0    0  0.39977231934E+02 -0.23805822125E+02  0.11328807582E+03  0.12247074901E+03  0.00000000000E+00 0. -1.
<mgrwt>
<rscale>  0 0.12693763E+03</rscale>
<asrwt>0</asrwt>
<pdfrwt beam="1">  1        2 0.12875403E+00 0.13545689E+03</pdfrwt>
<pdfrwt beam="2">  1       -2 0.28342875E-02 0.13545689E+03</pdfrwt>
<totfact> 0.14722728E+04</totfact>
</mgrwt>
</event>
<event>
 7    1  0.5928109E-006  0.1260062E+03  0.7546771E-02  0.1248921E+00
         -2   -1    0    0    0  501 -0.00000000000E+00  0.00000000000E+00  0.50651854657E+02  0.50651854657E+02  0.00000000000E+00 0.  1.
          2   -1    0    0  501    0  0.00000000000E+00 -0.00000000000E+00 -0.34362582816E+03  0.34362582816E+03  0.00000000000E+00 0. -1.
         23    2    1    2    0    0 -0.14030667106E+02 -0.74868703982E+01 -0.27194579071E+03  0.29971997526E+03  0.12499855054E+03 0.  0.
          5    1    3    3  502    0 -0.48295384527E+02  0.10993778937E+02 -0.38250208192E+02  0.62757276619E+02  0.47000000000E+01 0. -1.
         -5    1    3    3    0  502  0.34264717420E+02 -0.18480649335E+02 -0.23369558251E+03  0.23696269864E+03  0.47000000000E+01 0. -1.
        -11    1    1    2    0    0  0.84558942210E+01  0.19743057704E+02  0.32725169708E+02  0.39143673908E+02  0.00000000000E+00 0.  1.
         11    1    1    2    0    0  0.55747728854E+01 -0.12256187306E+02 -0.53753352510E+02  0.55414033656E+02  0.00000000000E+00 0. -1.
<mgrwt>
<rscale>  0 0.11653722E+03</rscale>
<asrwt>0</asrwt>
<pdfrwt beam="2">  1        2 0.52865511E-01 0.12600615E+03</pdfrwt>
<pdfrwt beam="1">  1       -2 0.77925932E-02 0.12600615E+03</pdfrwt>
<totfact> 0.87777977E+03</totfact>
</mgrwt>
</event>
<event>
 7    1  0.5928109E-006  0.1394989E+03  0.7546771E-02  0.1222329E+00
         -2   -1    0    0    0  501 -0.00000000000E+00  0.00000000000E+00  0.10090129698E+03  0.10090129698E+03  0.00000000000E+00 0.  1.
          2   -1    0    0  501    0  0.00000000000E+00 -0.00000000000E+00 -0.18341189148E+03  0.18341189148E+03  0.00000000000E+00 0. -1.
         23    2    1    2    0    0 -0.14747757834E+02  0.60226452219E+02 -0.91618478817E+02  0.16689483125E+03  0.12496086238E+03 0.  0.
          5    1    3    3  502    0 -0.41529311973E+02  0.38338456061E+02  0.11638866714E+02  0.57897099966E+02  0.47000000000E+01 0. -1.
         -5    1    3    3    0  502  0.26781554139E+02  0.21887996158E+02 -0.10325734553E+03  0.10899773128E+03  0.47000000000E+01 0. -1.
        -11    1    1    2    0    0  0.11108041801E+02 -0.76480394760E+02  0.36414828683E+02  0.85432307257E+02  0.00000000000E+00 0.  1.
         11    1    1    2    0    0  0.36397160338E+01  0.16253942540E+02 -0.27306944373E+02  0.31986049958E+02  0.00000000000E+00 0. -1.
<mgrwt>
<rscale>  0 0.13351635E+03</rscale>
<asrwt>0</asrwt>
<pdfrwt beam="2">  1        2 0.28217214E-01 0.13949889E+03</pdfrwt>
<pdfrwt beam="1">  1       -2 0.15523277E-01 0.13949889E+03</pdfrwt>
<totfact> 0.57933500E+03</totfact>
</mgrwt>
</event>
<event>
 7    1  0.5928109E-006  0.1449998E+03  0.7546771E-02  0.1221837E+00
          1   -1    0    0  501    0  0.00000000000E+00  0.00000000000E+00  0.12396256994E+03  0.12396256994E+03  0.00000000000E+00 0. -1.
         -1   -1    0    0    0  501 -0.00000000000E+00 -0.00000000000E+00 -0.12942602554E+03  0.12942602554E+03  0.00000000000E+00 0.  1.
         23    2    1    2    0    0 -0.23177073158E+02 -0.68223063965E+02 -0.22388841994E+02  0.14671807561E+03  0.12583072077E+03 0.  0.
          5    1    3    3  502    0 -0.78637167707E+00 -0.34360779839E+02  0.51609787743E+02  0.62184738983E+02  0.47000000000E+01 0. -1.
         -5    1    3    3    0  502 -0.22390701481E+02 -0.33862284126E+02 -0.73998629737E+02  0.84533336631E+02  0.47000000000E+01 0. -1.
        -11    1    1    2    0    0  0.36760515732E+02  0.42253898534E+01  0.18196767111E+02  0.41234836845E+02  0.00000000000E+00 0.  1.
         11    1    1    2    0    0 -0.13583442574E+02  0.63997674112E+02 -0.12713807217E+01  0.65435683024E+02  0.00000000000E+00 0. -1.
<mgrwt>
<rscale>  0 0.13386047E+03</rscale>
<asrwt>0</asrwt>
<pdfrwt beam="1">  1        1 0.19071165E-01 0.14499977E+03</pdfrwt>
<pdfrwt beam="2">  1       -1 0.19911696E-01 0.14499977E+03</pdfrwt>
<totfact> 0.52849099E+03</totfact>
</mgrwt>
</event>
<event>
 7    1  0.5928109E-006  0.1540033E+03  0.7546771E-02  0.1204190E+00
          2   -1    0    0  501    0  0.00000000000E+00  0.00000000000E+00  0.62531251944E+03  0.62531251944E+03  0.00000000000E+00 0. -1.
         -2   -1    0    0    0  501 -0.00000000000E+00 -0.00000000000E+00 -0.47655908894E+02  0.47655908894E+02  0.00000000000E+00 0.  1.
         23    2    1    2    0    0  0.70242235733E+02  0.56206212899E+02  0.50037248536E+03  0.52353571520E+03  0.12499564364E+03 0.  0.
          5    1    3    3  502    0  0.86142910767E+02  0.24897112743E+02  0.17942480015E+03  0.20063852125E+03  0.47000000000E+01 0.  1.
         -5    1    3    3    0  502 -0.15900675035E+02  0.31309100156E+02  0.32094768521E+03  0.32289719395E+03  0.47000000000E+01 0.  1.
        -11    1    1    2    0    0  0.18647049477E+02 -0.15770172375E+02 -0.74521097676E+00  0.24432890339E+02  0.00000000000E+00 0.  1.
         11    1    1    2    0    0 -0.88889285210E+02 -0.40436040524E+02  0.78029336164E+02  0.12499982280E+03  0.00000000000E+00 0. -1.
<mgrwt>
<rscale>  0 0.14701495E+03</rscale>
<asrwt>0</asrwt>
<pdfrwt beam="1">  1        2 0.96201920E-01 0.15400331E+03</pdfrwt>
<pdfrwt beam="2">  1       -2 0.73316787E-02 0.15400331E+03</pdfrwt>
<totfact> 0.50697380E+03</totfact>
</mgrwt>
</event>
<event>
 7    1  0.5928109E-006  0.1508281E+03  0.7546771E-02  0.1208494E+00
         -4   -1    0    0    0  501 -0.00000000000E+00  0.00000000000E+00  0.10024669232E+04  0.10024669232E+04  0.00000000000E+00 0. -1.
          4   -1    0    0  501    0  0.00000000000E+00 -0.00000000000E+00 -0.18852316371E+02  0.18852316371E+02  0.00000000000E+00 0.  1.
         23    2    1    2    0    0 -0.19981243972E+02  0.82005829814E+02  0.53998729490E+03  0.56065620466E+03  0.12499957973E+03 0.  0.
          5    1    3    3  502    0  0.18005315123E+02  0.97884718595E+01  0.81106366740E+01  0.22536148324E+02  0.47000000000E+01 0. -1.
         -5    1    3    3    0  502 -0.37986559095E+02  0.72217357955E+02  0.53187665823E+03  0.53812005634E+03  0.47000000000E+01 0. -1.
        -11    1    1    2    0    0 -0.33524586269E+02 -0.17070665894E+02  0.98832704831E+02  0.10575069297E+03  0.00000000000E+00 0.  1.
         11    1    1    2    0    0  0.53505830242E+02 -0.64935163920E+02  0.34479460708E+03  0.35491234193E+03  0.00000000000E+00 0. -1.
<mgrwt>
<rscale>  0 0.14365480E+03</rscale>
<asrwt>0</asrwt>
<pdfrwt beam="2">  1        4 0.29003571E-02 0.15082805E+03</pdfrwt>
<pdfrwt beam="1">  1       -4 0.15422564E+00 0.15082805E+03</pdfrwt>
<totfact> 0.28685679E+02</totfact>
</mgrwt>
</event>
<event>
 7    1  0.5928109E-006  0.4014150E+03  0.7546771E-02  0.1043690E+00
          2   -1    0    0  501    0  0.00000000000E+00  0.00000000000E+00  0.97087343627E+02  0.97087343627E+02  0.00000000000E+00 0. -1.
         -2   -1    0    0    0  501 -0.00000000000E+00 -0.00000000000E+00 -0.19626225560E+04  0.19626225560E+04  0.00000000000E+00 0.  1.
         23    2    1    2    0    0  0.25865077591E+03 -0.28037247699E+03 -0.52017072835E+03  0.65704760299E+03  0.12500006491E+03 0.  0.
          5    1    3    3  502    0  0.84760499907E+02 -0.73017293787E+02 -0.70852014749E+02  0.13250647354E+03  0.47000000000E+01 0. -1.
         -5    1    3    3    0  502  0.17389027601E+03 -0.20735518320E+03 -0.44931871360E+03  0.52454112945E+03  0.47000000000E+01 0. -1.
        -11    1    1    2    0    0 -0.20305692561E+02  0.59652206002E+02 -0.12754970154E+03  0.14226606480E+03  0.00000000000E+00 0. -1.
         11    1    1    2    0    0 -0.23834508335E+03  0.22072027099E+03 -0.12178147824E+04  0.12603962318E+04  0.00000000000E+00 0.  1.
<mgrwt>
<rscale>  0 0.40025801E+03</rscale>
<asrwt>0</asrwt>
<pdfrwt beam="1">  1        2 0.14936515E-01 0.40141495E+03</pdfrwt>
<pdfrwt beam="2">  1       -2 0.30194192E+00 0.40141495E+03</pdfrwt>
<totfact> 0.13581277E+01</totfact>
</mgrwt>
</event>
<event>
 7    1  0.5928109E-006  0.1257638E+03  0.7546771E-02  0.1253114E+00
         -2   -1    0    0    0  501 -0.00000000000E+00  0.00000000000E+00  0.14777324263E+03  0.14777324263E+03  0.00000000000E+00 0.  1.
          2   -1    0    0  501    0  0.00000000000E+00 -0.00000000000E+00 -0.16353123282E+04  0.16353123282E+04  0.00000000000E+00 0. -1.
         23    2    1    2    0    0  0.66509078202E+01  0.63508865036E+01 -0.16203642482E+04  0.16252374726E+04  0.12542717873E+03 0.  0.
          5    1    3    3  502    0  0.11573154392E+02  0.30020340635E+02 -0.15557328308E+04  0.15560725849E+04  0.47000000000E+01 0. -1.
         -5    1    3    3    0  502 -0.49222465714E+01 -0.23669454131E+02 -0.64631417344E+02  0.69164887610E+02  0.47000000000E+01 0.  1.
        -11    1    1    2    0    0 -0.29396692487E+02 -0.17026114210E+01  0.13132287436E+03  0.13458366077E+03  0.00000000000E+00 0.  1.
         11    1    1    2    0    0  0.22745784667E+02 -0.46482750826E+01  0.15022882475E+01  0.23264437482E+02  0.00000000000E+00 0. -1.
<mgrwt>
<rscale>  0 0.11412605E+03</rscale>
<asrwt>0</asrwt>
<pdfrwt beam="2">  1        2 0.25158653E+00 0.12576385E+03</pdfrwt>
<pdfrwt beam="1">  1       -2 0.22734344E-01 0.12576385E+03</pdfrwt>
<totfact> 0.20482858E+02</totfact>
</mgrwt>
</event>
<event>
 7    1  0.5928109E-006  0.1447959E+03  0.7546771E-02  0.1217426E+00
         -4   -1    0    0    0  501 -0.00000000000E+00  0.00000000000E+00  0.36137874893E+03  0.36137874893E+03  0.00000000000E+00 0. -1.
          4   -1    0    0  501    0  0.00000000000E+00 -0.00000000000E+00 -0.58102399883E+02  0.58102399883E+02  0.00000000000E+00 0.  1.
         23    2    1    2    0    0 -0.60545624737E+02  0.40933636656E+02  0.74218265830E+02  0.16270895076E+03  0.12499806554E+03 0.  0.
          5    1    3    3  502    0 -0.36341980527E+02  0.80448475079E+02  0.75293946383E+02  0.11612047646E+03  0.47000000000E+01 0. -1.
         -5    1    3    3    0  502 -0.24203644210E+02 -0.39514838423E+02 -0.10756805531E+01  0.46588474296E+02  0.47000000000E+01 0. -1.
        -11    1    1    2    0    0  0.75137772644E+02 -0.56490235941E+02  0.17483119699E+03  0.19850133268E+03  0.00000000000E+00 0. -1.
         11    1    1    2    0    0 -0.14592147908E+02  0.15556599285E+02  0.54226886226E+02  0.58270865376E+02  0.00000000000E+00 0.  1.
<mgrwt>
<rscale>  0 0.13699837E+03</rscale>
<asrwt>0</asrwt>
<pdfrwt beam="2">  1        4 0.89388310E-02 0.14479590E+03</pdfrwt>
<pdfrwt beam="1">  1       -4 0.55596729E-01 0.14479590E+03</pdfrwt>
<totfact> 0.47999283E+02</totfact>
</mgrwt>
</event>
<event>
 7    1  0.5928109E-006  0.1435069E+03  0.7546771E-02  0.1219223E+00
          1   -1    0    0  501    0  0.00000000000E+00  0.00000000000E+00  0.11744749687E+04  0.11744749687E+04  0.00000000000E+00 0. -1.
         -1   -1    0    0    0  501 -0.00000000000E+00 -0.00000000000E+00 -0.14299404023E+02  0.14299404023E+02  0.00000000000E+00 0.  1.
         23    2    1    2    0    0 -0.67074481103E+02  0.21668409527E+02  0.69373444197E+03  0.70842198146E+03  0.12500288734E+03 0.  0.
          5    1    3    3  502    0 -0.89067883391E+01  0.74090738427E+01  0.57701126217E+03  0.57714669879E+03  0.47000000000E+01 0. -1.
         -5    1    3    3    0  502 -0.58167692763E+02  0.14259335685E+02  0.11672317980E+03  0.13127528266E+03  0.47000000000E+01 0. -1.
        -11    1    1    2    0    0  0.18432318207E+02 -0.51092009051E+02  0.28791226745E+03  0.29299081469E+03  0.00000000000E+00 0. -1.
         11    1    1    2    0    0  0.48642162896E+02  0.29423599523E+02  0.17852885529E+03  0.18736157662E+03  0.00000000000E+00 0.  1.
<mgrwt>
<rscale>  0 0.13570858E+03</rscale>
<asrwt>0</asrwt>
<pdfrwt beam="1">  1        1 0.18068838E+00 0.14350689E+03</pdfrwt>
<pdfrwt beam="2">  1       -1 0.21999092E-02 0.14350689E+03</pdfrwt>
<totfact> 0.69440015E+03</totfact>
</mgrwt>
</event>
<event>
 6    1  0.5928109E-006  0.1810222E+03  0.7546771E-02  0.1190386E+00
         -1   -1    0    0    0  501 -0.00000000000E+00  0.00000000000E+00  0.56205445723E+02  0.56205445723E+02  0.00000000000E+00 0.  1.
          1   -1    0    0  501    0  0.00000000000E+00 -0.00000000000E+00 -0.46930334967E+03  0.46930334967E+03  0.00000000000E+00 0. -1.
          5    1    1    2  502    0  0.69953969507E+02 -0.75304703525E+02 -0.33209791928E+03  0.34767150331E+03  0.47000000000E+01 0. -1.
         -5    1    1    2    0  502 -0.45676023962E+02  0.22046796605E+02 -0.35515490977E+02  0.62095092438E+02  0.47000000000E+01 0.  1.
        -11    1    1    2    0    0 -0.25796062105E+02  0.41200124829E+02  0.17448687080E+02  0.51646333722E+02  0.00000000000E+00 0.  1.
         11    1    1    2    0    0  0.15181165602E+01  0.12057782090E+02 -0.62933180766E+02  0.64095865920E+02  0.00000000000E+00 0. -1.
<mgrwt>
<rscale>  0 0.15851314E+03</rscale>
<asrwt>0</asrwt>
<pdfrwt beam="2">  1        1 0.72200513E-01 0.18102222E+03</pdfrwt>
<pdfrwt beam="1">  1       -1 0.86469919E-02 0.18102222E+03</pdfrwt>
<totfact> 0.36826455E+03</totfact>
</mgrwt>
</event>
<event>
 7    1  0.5928109E-006  0.1995836E+03  0.7546771E-02  0.1154144E+00
         -1   -1    0    0    0  501 -0.00000000000E+00  0.00000000000E+00  0.58872200769E+02  0.58872200769E+02  0.00000000000E+00 0.  1.
          1   -1    0    0  501    0  0.00000000000E+00 -0.00000000000E+00 -0.76871059829E+03  0.76871059829E+03  0.00000000000E+00 0. -1.
         23    2    1    2    0    0  0.85414521107E+02 -0.13005114418E+03 -0.55261102281E+03  0.58754791780E+03  0.12499869064E+03 0.  0.
          5    1    3    3  502    0  0.41594908292E+02  0.11171530370E+02 -0.20899251880E+03  0.21343594449E+03  0.47000000000E+01 0.  1.
         -5    1    3    3    0  502  0.43819612815E+02 -0.14122267455E+03 -0.34361850401E+03  0.37411197331E+03  0.47000000000E+01 0.  1.
        -11    1    1    2    0    0 -0.56317579983E+02  0.95091448588E+02 -0.45707473791E+02  0.11959609764E+03  0.00000000000E+00 0.  1.
         11    1    1    2    0    0 -0.29096941124E+02  0.34959695596E+02 -0.11151990092E+03  0.12043878362E+03  0.00000000000E+00 0. -1.
<mgrwt>
<rscale>  0 0.19486642E+03</rscale>
<asrwt>0</asrwt>
<pdfrwt beam="2">  1        1 0.11826316E+00 0.19958360E+03</pdfrwt>
<pdfrwt beam="1">  1       -1 0.90572625E-02 0.19958360E+03</pdfrwt>
<totfact> 0.17354124E+03</totfact>
</mgrwt>
</event>
<event>
 7    1  0.5928109E-006  0.1550821E+03  0.7546771E-02  0.1204907E+00
         -2   -1    0    0    0  501 -0.00000000000E+00  0.00000000000E+00  0.65671932371E+02  0.65671932371E+02  0.00000000000E+00 0.  1.
          2   -1    0    0  501    0  0.00000000000E+00 -0.00000000000E+00 -0.41213682003E+03  0.41213682003E+03  0.00000000000E+00 0. -1.
         23    2    1    2    0    0 -0.90888191011E+02 -0.12858873927E+02 -0.31411328311E+03  0.35031073706E+03  0.12499777586E+03 0.  0.
          5    1    3    3  502    0 -0.10236021899E+03  0.27912650825E+01 -0.31403875091E+03  0.33034502064E+03  0.47000000000E+01 0.  1.
         -5    1    3    3    0  502  0.11472027981E+02 -0.15650139010E+02 -0.74532205400E-01  0.19965716418E+02  0.47000000000E+01 0.  1.
        -11    1    1    2    0    0  0.14573243918E+02  0.20357632069E+02  0.22143705589E+02  0.33423888448E+02  0.00000000000E+00 0.  1.
         11    1    1    2    0    0  0.76314947093E+02 -0.74987581420E+01 -0.54495310132E+02  0.94074126889E+02  0.00000000000E+00 0. -1.
<mgrwt>
<rscale>  0 0.14644827E+03</rscale>
<asrwt>0</asrwt>
<pdfrwt beam="2">  1        2 0.63405664E-01 0.15508210E+03</pdfrwt>
<pdfrwt beam="1">  1       -2 0.10103374E-01 0.15508210E+03</pdfrwt>
<totfact> 0.48867397E+03</totfact>
</mgrwt>
</event>
<event>
 7    1  0.5928109E-006  0.1308887E+03  0.7546771E-02  0.1238616E+00
         -2   -1    0    0    0  501 -0.00000000000E+00  0.00000000000E+00  0.69309854928E+02  0.69309854928E+02  0.00000000000E+00 0.  1.
          2   -1    0    0  501    0  0.00000000000E+00 -0.00000000000E+00 -0.28149445028E+03  0.28149445028E+03  0.00000000000E+00 0. -1.
         23    2    1    2    0    0  0.34901241113E+02 -0.17015844098E+02 -0.21244832658E+03  0.24953185553E+03  0.12499687945E+03 0.  0.
          5    1    3    3  502    0  0.60386243853E+02 -0.21140505604E+02 -0.41106365554E+02  0.76192143381E+02  0.47000000000E+01 0. -1.
         -5    1    3    3    0  502 -0.25485002740E+02  0.41246615055E+01 -0.17134196103E+03  0.17333971215E+03  0.47000000000E+01 0. -1.
        -11    1    1    2    0    0 -0.38205051030E+02 -0.32876572328E+02  0.67443550836E+01  0.50852544260E+02  0.00000000000E+00 0.  1.
         11    1    1    2    0    0  0.33038099168E+01  0.49892416426E+02 -0.64806238462E+01  0.50419905417E+02  0.00000000000E+00 0. -1.
<mgrwt>
<rscale>  0 0.12275780E+03</rscale>
<asrwt>0</asrwt>
<pdfrwt beam="2">  1        2 0.43306838E-01 0.13088871E+03</pdfrwt>
<pdfrwt beam="1">  1       -2 0.10663055E-01 0.13088871E+03</pdfrwt>
<totfact> 0.66683863E+03</totfact>
</mgrwt>
</event>
<event>
 7    1  0.5928109E-006  0.1478278E+03  0.7546771E-02  0.1213343E+00
          3   -1    0    0  501    0  0.00000000000E+00  0.00000000000E+00  0.64001268268E+03  0.64001268268E+03  0.00000000000E+00 0.  1.
         -3   -1    0    0    0  501 -0.00000000000E+00 -0.00000000000E+00 -0.28558655284E+02  0.28558655284E+02  0.00000000000E+00 0. -1.
         23    2    1    2    0    0 -0.45704087597E+02 -0.64252325386E+02  0.39267684062E+03  0.41958094423E+03  0.12504336313E+03 0.  0.
          5    1    3    3  502    0 -0.51378140291E+02 -0.53695416591E+02  0.90798134960E+02  0.11742786030E+03  0.47000000000E+01 0.  1.
         -5    1    3    3    0  502  0.56740526941E+01 -0.10556908795E+02  0.30187870566E+03  0.30215308393E+03  0.47000000000E+01 0.  1.
        -11    1    1    2    0    0  0.64363999020E+02  0.73690239658E+02  0.17568307629E+03  0.20109082298E+03  0.00000000000E+00 0.  1.
         11    1    1    2    0    0 -0.18659911424E+02 -0.94379142720E+01  0.43094110486E+02  0.47899570757E+02  0.00000000000E+00 0. -1.
<mgrwt>
<rscale>  0 0.13998952E+03</rscale>
<asrwt>0</asrwt>
<pdfrwt beam="1">  1        3 0.98463478E-01 0.14782783E+03</pdfrwt>
<pdfrwt beam="2">  1       -3 0.43936398E-02 0.14782783E+03</pdfrwt>
<totfact> 0.61699340E+02</totfact>
</mgrwt>
</event>
<event>
 7    1  0.5928109E-006  0.1478318E+03  0.7546771E-02  0.1212489E+00
         -1   -1    0    0    0  501 -0.00000000000E+00  0.00000000000E+00  0.39521695419E+03  0.39521695419E+03  0.00000000000E+00 0.  1.
          1   -1    0    0  501    0  0.00000000000E+00 -0.00000000000E+00 -0.51662467456E+02  0.51662467456E+02  0.00000000000E+00 0. -1.
         23    2    1    2    0    0 -0.78118859191E+02 -0.11350112267E+02  0.11155673218E+03  0.18520032193E+03  0.12499149387E+03 0.  0.
          5    1    3    3  502    0 -0.30538697598E+02  0.51043212820E+02  0.16606361326E+02  0.61934504620E+02  0.47000000000E+01 0. -1.
         -5    1    3    3    0  502 -0.47580161592E+02 -0.62393325087E+02  0.94950370855E+02  0.12326581731E+03  0.47000000000E+01 0. -1.
        -11    1    1    2    0    0  0.92172315970E+02  0.25224933849E+02  0.21623916116E+03  0.23641363738E+03  0.00000000000E+00 0.  1.
         11    1    1    2    0    0 -0.14053456779E+02 -0.13874821582E+02  0.15758593398E+02  0.25265462340E+02  0.00000000000E+00 0. -1.
<mgrwt>
<rscale>  0 0.14062638E+03</rscale>
<asrwt>0</asrwt>
<pdfrwt beam="2">  1        1 0.79480722E-02 0.14783185E+03</pdfrwt>
<pdfrwt beam="1">  1       -1 0.60802606E-01 0.14783185E+03</pdfrwt>
<totfact> 0.24156793E+03</totfact>
</mgrwt>
</event>
<event>
 7    1  0.5928109E-006  0.1294036E+03  0.7546771E-02  0.1244609E+00
          2   -1    0    0  501    0  0.00000000000E+00  0.00000000000E+00  0.20571847340E+03  0.20571847340E+03  0.00000000000E+00 0. -1.
         -2   -1    0    0    0  501 -0.00000000000E+00 -0.00000000000E+00 -0.91631307877E+02  0.91631307877E+02  0.00000000000E+00 0.  1.
         23    2    1    2    0    0 -0.24079973795E+02  0.23115803691E+02  0.14975127463E+03  0.19791597446E+03  0.12502441032E+03 0.  0.
          5    1    3    3  502    0 -0.52468895947E+02 -0.35010118293E+02  0.60000976116E+02  0.87183143782E+02  0.47000000000E+01 0. -1.
         -5    1    3    3    0  502  0.28388922151E+02  0.58125921984E+02  0.89750298512E+02  0.11073283068E+03  0.47000000000E+01 0. -1.
        -11    1    1    2    0    0  0.35204608325E+02  0.12733160608E+02  0.11493832881E+02  0.39161282163E+02  0.00000000000E+00 0. -1.
         11    1    1    2    0    0 -0.11124634530E+02 -0.35848964299E+02 -0.47157941990E+02  0.60272524648E+02  0.00000000000E+00 0.  1.
<mgrwt>
<rscale>  0 0.11908789E+03</rscale>
<asrwt>0</asrwt>
<pdfrwt beam="1">  1        2 0.31648996E-01 0.12940359E+03</pdfrwt>
<pdfrwt beam="2">  1       -2 0.14097124E-01 0.12940359E+03</pdfrwt>
<totfact> 0.59578316E+03</totfact>
</mgrwt>
</event>
<event>
 7    1  0.5928109E-006  0.1142647E+03  0.7546771E-02  0.1274712E+00
          1   -1    0    0  501    0  0.00000000000E+00  0.00000000000E+00  0.11079541988E+03  0.11079541988E+03  0.00000000000E+00 0. -1.
         -1   -1    0    0    0  501 -0.00000000000E+00 -0.00000000000E+00 -0.92281091079E+02  0.92281091079E+02  0.00000000000E+00 0.  1.
         23    2    1    2    0    0 -0.53455094876E+01 -0.18968143092E+02  0.46580234312E+02  0.12339420734E+03  0.11255242002E+03 0.  0.
          5    1    3    3  502    0 -0.10901345532E+02 -0.42932593156E+02  0.73928472837E+02  0.86310810363E+02  0.47000000000E+01 0. -1.
         -5    1    3    3    0  502  0.55558360443E+01  0.23964450064E+02 -0.27348238525E+02  0.37083396978E+02  0.47000000000E+01 0.  1.
        -11    1    1    2    0    0  0.11225593241E+02 -0.26302223487E+02 -0.14470458955E+02  0.32050196354E+02  0.00000000000E+00 0. -1.
         11    1    1    2    0    0 -0.58800837539E+01  0.45270366578E+02 -0.13595446558E+02  0.47632107262E+02  0.00000000000E+00 0.  1.
<mgrwt>
<rscale>  0 0.10270313E+03</rscale>
<asrwt>0</asrwt>
<pdfrwt beam="1">  1        1 0.17045449E-01 0.11426466E+03</pdfrwt>
<pdfrwt beam="2">  1       -1 0.14197091E-01 0.11426466E+03</pdfrwt>
<totfact> 0.10225707E+04</totfact>
</mgrwt>
</event>
<event>
 7    1  0.5928109E-006  0.1973416E+03  0.7546771E-02  0.1156835E+00
          1   -1    0    0  501    0  0.00000000000E+00  0.00000000000E+00  0.40643231915E+02  0.40643231915E+02  0.00000000000E+00 0. -1.
         -1   -1    0    0    0  501 -0.00000000000E+00 -0.00000000000E+00 -0.86552657450E+03  0.86552657450E+03  0.00000000000E+00 0.  1.
         23    2    1    2    0    0  0.75988249395E+02  0.13244019884E+03 -0.39351881638E+03  0.44022806363E+03  0.12501627434E+03 0.  0.
          5    1    3    3  502    0  0.68058230302E+02  0.15090005591E+03 -0.28378145884E+03  0.32856773422E+03  0.47000000000E+01 0.  1.
         -5    1    3    3    0  502  0.79300190925E+01 -0.18459857069E+02 -0.10973735754E+03  0.11166032942E+03  0.47000000000E+01 0.  1.
        -11    1    1    2    0    0 -0.31093967430E+02 -0.81420943733E+01 -0.32318335593E+02  0.45580734163E+02  0.00000000000E+00 0. -1.
         11    1    1    2    0    0 -0.44894281965E+02 -0.12429810447E+03 -0.39904619061E+03  0.42036100861E+03  0.00000000000E+00 0.  1.
<mgrwt>
<rscale>  0 0.19181398E+03</rscale>
<asrwt>0</asrwt>
<pdfrwt beam="1">  1        1 0.62528050E-02 0.19734155E+03</pdfrwt>
<pdfrwt beam="2">  1       -1 0.13315793E+00 0.19734155E+03</pdfrwt>
<totfact> 0.62414645E+02</totfact>
</mgrwt>
</event>
<event>
 7    1  0.5928109E-006  0.1390949E+03  0.7546771E-02  0.1225991E+00
         -2   -1    0    0    0  501 -0.00000000000E+00  0.00000000000E+00  0.82621712940E+02  0.82621712940E+02  0.00000000000E+00 0.  1.
          2   -1    0    0  501    0  0.00000000000E+00 -0.00000000000E+00 -0.19207409923E+03  0.19207409923E+03  0.00000000000E+00 0. -1.
         23    2    1    2    0    0 -0.54503323876E+02  0.27415677471E+02 -0.83566331594E+02  0.16226741328E+03  0.12500059981E+03 0.  0.
          5    1    3    3  502    0  0.17721396447E+02  0.41652989163E+02 -0.75376628092E+02  0.88049676097E+02  0.47000000000E+01 0.  1.
         -5    1    3    3    0  502 -0.72224720323E+02 -0.14237311691E+02 -0.81897035015E+01  0.74217737188E+02  0.47000000000E+01 0.  1.
        -11    1    1    2    0    0  0.34344759234E+02 -0.48007029866E+02 -0.48019687938E+02  0.76092889504E+02  0.00000000000E+00 0. -1.
         11    1    1    2    0    0  0.20158564642E+02  0.20591352395E+02  0.22133633239E+02  0.36335509384E+02  0.00000000000E+00 0.  1.
<mgrwt>
<rscale>  0 0.13099217E+03</rscale>
<asrwt>0</asrwt>
<pdfrwt beam="2">  1        2 0.29549861E-01 0.13909487E+03</pdfrwt>
<pdfrwt beam="1">  1       -2 0.12711033E-01 0.13909487E+03</pdfrwt>
<totfact> 0.76205440E+03</totfact>
</mgrwt>
</event>
<event>
 7    1  0.5928109E-006  0.1944984E+03  0.7546771E-02  0.1159750E+00
         -2   -1    0    0    0  501 -0.00000000000E+00  0.00000000000E+00  0.18708215556E+02  0.18708215556E+02  0.00000000000E+00 0.  1.
          2   -1    0    0  501    0  0.00000000000E+00 -0.00000000000E+00 -0.18417605404E+04  0.18417605404E+04  0.00000000000E+00 0. -1.
         23    2    1    2    0    0  0.52464310494E+02 -0.13947255014E+03 -0.11162493528E+04  0.11330676271E+04  0.12499813527E+03 0.  0.
          5    1    3    3  502    0  0.49732301887E+01 -0.10501791958E+03 -0.37507805758E+03  0.38956274941E+03  0.47000000000E+01 0. -1.
         -5    1    3    3    0  502  0.47491080305E+02 -0.34454630556E+02 -0.74117129521E+03  0.74350487767E+03  0.47000000000E+01 0. -1.
        -11    1    1    2    0    0  0.19907333722E+02  0.49852561099E+02 -0.16591305843E+03  0.17438097012E+03  0.00000000000E+00 0.  1.
         11    1    1    2    0    0 -0.72371644216E+02  0.89619989042E+02 -0.54088991366E+03  0.55302015879E+03  0.00000000000E+00 0. -1.
<mgrwt>
<rscale>  0 0.18857840E+03</rscale>
<asrwt>0</asrwt>
<pdfrwt beam="2">  1        2 0.28334785E+00 0.19449841E+03</pdfrwt>
<pdfrwt beam="1">  1       -2 0.28781863E-02 0.19449841E+03</pdfrwt>
<totfact> 0.40459313E+03</totfact>
</mgrwt>
</event>
<event>
 7    1  0.5928109E-006  0.1619046E+03  0.7546771E-02  0.1193852E+00
          2   -1    0    0  501    0  0.00000000000E+00  0.00000000000E+00  0.21198812585E+04  0.21198812585E+04  0.00000000000E+00 0.  1.
         -2   -1    0    0    0  501 -0.00000000000E+00 -0.00000000000E+00 -0.13647654985E+02  0.13647654985E+02  0.00000000000E+00 0. -1.
         23    2    1    2    0    0  0.57363354863E+01  0.10273589328E+03  0.16220242746E+04  0.16300846128E+04  0.12500211270E+03 0.  0.
          5    1    3    3  502    0  0.99891356015E+01  0.10262289328E+03  0.65854351521E+03  0.66658299745E+03  0.47000000000E+01 0.  1.
         -5    1    3    3    0  502 -0.42528001152E+01  0.11299999874E+00  0.96348075936E+03  0.96350161532E+03  0.47000000000E+01 0.  1.
        -11    1    1    2    0    0  0.35557352401E+02 -0.31508162035E+02  0.10276072474E+03  0.11321155477E+03  0.00000000000E+00 0. -1.
         11    1    1    2    0    0 -0.41293687887E+02 -0.71227731247E+02  0.38144860419E+03  0.39023274593E+03  0.00000000000E+00 0.  1.
<mgrwt>
<rscale>  0 0.15551827E+03</rscale>
<asrwt>0</asrwt>
<pdfrwt beam="1">  1        2 0.32613532E+00 0.16190459E+03</pdfrwt>
<pdfrwt beam="2">  1       -2 0.20996409E-02 0.16190459E+03</pdfrwt>
<totfact> 0.46118917E+03</totfact>
</mgrwt>
</event>
<event>
 7    1  0.5928109E-006  0.1814225E+03  0.7546771E-02  0.1172001E+00
         -2   -1    0    0    0  501 -0.00000000000E+00  0.00000000000E+00  0.24991163469E+02  0.24991163469E+02  0.00000000000E+00 0.  1.
          2   -1    0    0  501    0  0.00000000000E+00 -0.00000000000E+00 -0.13128412072E+04  0.13128412072E+04  0.00000000000E+00 0. -1.
         23    2    1    2    0    0 -0.36056922306E+02  0.12643587630E+03 -0.90505328428E+03  0.92305772411E+03  0.12501192819E+03 0.  0.
          5    1    3    3  502    0 -0.66479783343E+02  0.10708091400E+03 -0.83145068217E+03  0.84096266898E+03  0.47000000000E+01 0. -1.
         -5    1    3    3    0  502  0.30422861036E+02  0.19354962305E+02 -0.73602602114E+02  0.82095055133E+02  0.47000000000E+01 0. -1.
        -11    1    1    2    0    0 -0.56242319678E+01 -0.75109433386E+02 -0.29730807312E+03  0.30670042274E+03  0.00000000000E+00 0. -1.
         11    1    1    2    0    0  0.41681154274E+02 -0.51326442918E+02 -0.85488686366E+02  0.10807422385E+03  0.00000000000E+00 0.  1.
<mgrwt>
<rscale>  0 0.17572993E+03</rscale>
<asrwt>0</asrwt>
<pdfrwt beam="2">  1        2 0.20197570E+00 0.18142248E+03</pdfrwt>
<pdfrwt beam="1">  1       -2 0.38447920E-02 0.18142248E+03</pdfrwt>
<totfact> 0.49887483E+03</totfact>
</mgrwt>
</event>
<event>
 7    1  0.5928109E-006  0.1366084E+03  0.7546771E-02  0.1229557E+00
         -2   -1    0    0    0  501 -0.00000000000E+00  0.00000000000E+00  0.39988711066E+02  0.39988711066E+02  0.00000000000E+00 0.  1.
          2   -1    0    0  501    0  0.00000000000E+00 -0.00000000000E+00 -0.37182104032E+03  0.37182104032E+03  0.00000000000E+00 0. -1.
         23    2    1    2    0    0  0.50475031556E+02 -0.22124786646E+02 -0.18662301312E+03  0.23127903742E+03  0.12499843651E+03 0.  0.
          5    1    3    3  502    0 -0.11358841113E+02 -0.51717706856E+02 -0.13574196623E+03  0.14577968264E+03  0.47000000000E+01 0.  1.
         -5    1    3    3    0  502  0.61833872670E+02  0.29592920211E+02 -0.50881046892E+02  0.85499354785E+02  0.47000000000E+01 0.  1.
        -11    1    1    2    0    0  0.20798708836E+02 -0.15294990411E+02 -0.46216586134E+02  0.52938604579E+02  0.00000000000E+00 0. -1.
         11    1    1    2    0    0 -0.71273740392E+02  0.37419777057E+02 -0.98992729997E+02  0.12759210938E+03  0.00000000000E+00 0.  1.
<mgrwt>
<rscale>  0 0.12859426E+03</rscale>
<asrwt>0</asrwt>
<pdfrwt beam="2">  1        2 0.57203234E-01 0.13660836E+03</pdfrwt>
<pdfrwt beam="1">  1       -2 0.61521097E-02 0.13660836E+03</pdfrwt>
<totfact> 0.11655019E+04</totfact>
</mgrwt>
</event>
<event>
 7    1  0.5928109E-006  0.1372494E+03  0.7546771E-02  0.1227809E+00
          1   -1    0    0  501    0  0.00000000000E+00  0.00000000000E+00  0.88504694016E+03  0.88504694016E+03  0.00000000000E+00 0. -1.
         -1   -1    0    0    0  501 -0.00000000000E+00 -0.00000000000E+00 -0.36479461396E+02  0.36479461396E+02  0.00000000000E+00 0.  1.
         23    2    1    2    0    0 -0.72091573844E+01 -0.56218709901E+02  0.78045850060E+03  0.79243477938E+03  0.12499957246E+03 0.  0.
          5    1    3    3  502    0 -0.14777366238E+02 -0.12319676644E+02  0.13045090173E+02  0.23715171582E+02  0.47000000000E+01 0.  1.
         -5    1    3    3    0  502  0.75682088540E+01 -0.43899033258E+02  0.76741341043E+03  0.76871960780E+03  0.47000000000E+01 0.  1.
        -11    1    1    2    0    0 -0.32647267556E+02  0.39650029938E+01 -0.20615160937E+01  0.32951709762E+02  0.00000000000E+00 0.  1.
         11    1    1    2    0    0  0.39856424941E+02  0.52253706908E+02  0.70170494252E+02  0.96139912410E+02  0.00000000000E+00 0. -1.
<mgrwt>
<rscale>  0 0.12976191E+03</rscale>
<asrwt>0</asrwt>
<pdfrwt beam="1">  1        1 0.13616105E+00 0.13724944E+03</pdfrwt>
<pdfrwt beam="2">  1       -1 0.56122255E-02 0.13724944E+03</pdfrwt>
<totfact> 0.28543516E+03</totfact>
</mgrwt>
</event>
<event>
 6    1  0.5928109E-006  0.4507112E+03  0.7546771E-02  0.1068455E+00
          2   -1    0    0  501    0  0.00000000000E+00  0.00000000000E+00  0.80238408019E+03  0.80238408019E+03  0.00000000000E+00 0. -1.
         -2   -1    0    0    0  501 -0.00000000000E+00 -0.00000000000E+00 -0.13241377929E+03  0.13241377929E+03  0.00000000000E+00 0.  1.
          5    1    1    2  502    0  0.22950948799E+03  0.37528865664E+02  0.31004339171E+03  0.38759774971E+03  0.47000000000E+01 0. -1.
         -5    1    1    2    0  502 -0.20577206757E+03  0.68576951928E+02  0.34422701679E+03  0.40688975315E+03  0.47000000000E+01 0.  1.
        -11    1    1    2    0    0  0.31015735004E+01  0.98832069085E+01 -0.14183652902E+02  0.17563415004E+02  0.00000000000E+00 0. -1.
         11    1    1    2    0    0 -0.26838993916E+02 -0.11598902450E+03  0.29883545300E+02  0.12274694163E+03  0.00000000000E+00 0.  1.
<mgrwt>
<rscale>  0 0.33613385E+03</rscale>
<asrwt>0</asrwt>
<pdfrwt beam="1">  1        2 0.12344370E+00 0.45071124E+03</pdfrwt>
<pdfrwt beam="2">  1       -2 0.20371351E-01 0.45071124E+03</pdfrwt>
<totfact> 0.71736488E+02</totfact>
</mgrwt>
</event>
<event>
 7    1  0.5928109E-006  0.1331269E+03  0.7546771E-02  0.1236272E+00
          1   -1    0    0  501    0  0.00000000000E+00  0.00000000000E+00  0.21757094237E+03  0.21757094237E+03  0.00000000000E+00 0. -1.
         -1   -1    0    0    0  501 -0.00000000000E+00 -0.00000000000E+00 -0.63767311327E+02  0.63767311327E+02  0.00000000000E+00 0.  1.
         23    2    1    2    0    0 -0.66225057994E+01  0.45335920820E+02  0.10296795318E+03  0.16830085661E+03  0.12499430249E+03 0.  0.
          5    1    3    3  502    0 -0.44608765046E+02  0.51325324872E+02  0.10952906812E+03  0.12900751007E+03  0.47000000000E+01 0.  1.
         -5    1    3    3    0  502  0.37986259246E+02 -0.59894040515E+01 -0.65611149463E+01  0.39293346533E+02  0.47000000000E+01 0.  1.
        -11    1    1    2    0    0 -0.12764591254E+02  0.23551275367E+02  0.25880477513E+02  0.37247771445E+02  0.00000000000E+00 0.  1.
         11    1    1    2    0    0  0.19387097053E+02 -0.68887196188E+02  0.24955200355E+02  0.75789625646E+02  0.00000000000E+00 0. -1.
<mgrwt>
<rscale>  0 0.12423335E+03</rscale>
<asrwt>0</asrwt>
<pdfrwt beam="1">  1        1 0.33472452E-01 0.13312693E+03</pdfrwt>
<pdfrwt beam="2">  1       -1 0.98103557E-02 0.13312693E+03</pdfrwt>
<totfact> 0.78315672E+03</totfact>
</mgrwt>
</event>
<event>
 7    1  0.5928109E-006  0.1437255E+03  0.7546771E-02  0.1218575E+00
          1   -1    0    0  501    0  0.00000000000E+00  0.00000000000E+00  0.14520093917E+03  0.14520093917E+03  0.00000000000E+00 0.  1.
         -1   -1    0    0    0  501 -0.00000000000E+00 -0.00000000000E+00 -0.16419294285E+03  0.16419294285E+03  0.00000000000E+00 0. -1.
         23    2    1    2    0    0 -0.46478607432E+02  0.53594027862E+02  0.73271035460E+02  0.16132471982E+03  0.12499775924E+03 0.  0.
          5    1    3    3  502    0  0.10776826400E+02  0.25690498926E+02  0.90802228630E+02  0.95096143174E+02  0.47000000000E+01 0. -1.
         -5    1    3    3    0  502 -0.57255433832E+02  0.27903528937E+02 -0.17531193170E+02  0.66228576645E+02  0.47000000000E+01 0. -1.
        -11    1    1    2    0    0  0.44497383366E+01 -0.22243098755E+02 -0.92902185067E+02  0.95631436274E+02  0.00000000000E+00 0. -1.
         11    1    1    2    0    0  0.42028869095E+02 -0.31350929108E+02  0.63914592363E+00  0.52437725932E+02  0.00000000000E+00 0.  1.
<mgrwt>
<rscale>  0 0.13617178E+03</rscale>
<asrwt>0</asrwt>
<pdfrwt beam="1">  1        1 0.22338606E-01 0.14372550E+03</pdfrwt>
<pdfrwt beam="2">  1       -1 0.25260453E-01 0.14372550E+03</pdfrwt>
<totfact> 0.29340072E+03</totfact>
</mgrwt>
</event>
<event>
 7    1  0.5928109E-006  0.2093550E+03  0.7546771E-02  0.1145910E+00
          1   -1    0    0  501    0  0.00000000000E+00  0.00000000000E+00  0.11780842305E+04  0.11780842305E+04  0.00000000000E+00 0. -1.
         -1   -1    0    0    0  501 -0.00000000000E+00 -0.00000000000E+00 -0.39146357434E+02  0.39146357434E+02  0.00000000000E+00 0.  1.
         23    2    1    2    0    0  0.52340366778E+02  0.15956767392E+03  0.81235489826E+03  0.83889808812E+03  0.12501265927E+03 0.  0.
          5    1    3    3  502    0  0.32163137148E+01 -0.20479614905E+02  0.57590674321E+02  0.61388395233E+02  0.47000000000E+01 0.  1.
         -5    1    3    3    0  502  0.49124053063E+02  0.18004728882E+03  0.75476422394E+03  0.77750969289E+03  0.47000000000E+01 0.  1.
        -11    1    1    2    0    0 -0.58433870742E+02 -0.48416916681E+02  0.17045203546E+03  0.18658138027E+03  0.00000000000E+00 0.  1.
         11    1    1    2    0    0  0.60935039649E+01 -0.11115075724E+03  0.15613093936E+03  0.19175111955E+03  0.00000000000E+00 0. -1.
<mgrwt>
<rscale>  0 0.20460580E+03</rscale>
<asrwt>0</asrwt>
<pdfrwt beam="1">  1        1 0.18124370E+00 0.20935501E+03</pdfrwt>
<pdfrwt beam="2">  1       -1 0.60225174E-02 0.20935501E+03</pdfrwt>
<totfact> 0.15769044E+03</totfact>
</mgrwt>
</event>
<event>
 6    1  0.5928109E-006  0.1660768E+03  0.7546771E-02  0.1207842E+00
          2   -1    0    0  501    0  0.00000000000E+00  0.00000000000E+00  0.40280591270E+04  0.40280591270E+04  0.00000000000E+00 0. -1.
         -2   -1    0    0    0  501 -0.00000000000E+00 -0.00000000000E+00 -0.20257626607E+02  0.20257626607E+02  0.00000000000E+00 0.  1.
          5    1    1    2  502    0 -0.54403113561E+02  0.21850968413E+02  0.17406816626E+04  0.17416750283E+04  0.47000000000E+01 0. -1.
         -5    1    1    2    0  502  0.10445021122E+03  0.74718051472E+01  0.21654505530E+04  0.21679861305E+04  0.47000000000E+01 0.  1.
        -11    1    1    2    0    0  0.93817519203E+00 -0.14720130723E+02  0.80026251774E+02  0.81374218240E+02  0.00000000000E+00 0. -1.
         11    1    1    2    0    0 -0.50985272855E+02 -0.14602642837E+02  0.21643032988E+02  0.57281376580E+02  0.00000000000E+00 0.  1.
<mgrwt>
<rscale>  0 0.14415729E+03</rscale>
<asrwt>0</asrwt>
<pdfrwt beam="1">  1        2 0.61970077E+00 0.16607676E+03</pdfrwt>
<pdfrwt beam="2">  1       -2 0.31165611E-02 0.16607676E+03</pdfrwt>
<totfact> 0.17918099E+02</totfact>
</mgrwt>
</event>
<event>
 7    1  0.5928109E-006  0.2173176E+03  0.7546771E-02  0.1139330E+00
          2   -1    0    0  501    0  0.00000000000E+00  0.00000000000E+00  0.12092832533E+03  0.12092832533E+03  0.00000000000E+00 0. -1.
         -2   -1    0    0    0  501 -0.00000000000E+00 -0.00000000000E+00 -0.44557113416E+03  0.44557113416E+03  0.00000000000E+00 0.  1.
         23    2    1    2    0    0 -0.25215361406E+02  0.17597126398E+03 -0.43733972694E+02  0.22167450287E+03  0.12500089862E+03 0.  0.
          5    1    3    3  502    0  0.24540362527E+02  0.29615891580E+01  0.18402197381E+02  0.31172604507E+02  0.47000000000E+01 0. -1.
         -5    1    3    3    0  502 -0.49755723933E+02  0.17300967483E+03 -0.62136170075E+02  0.19050189836E+03  0.47000000000E+01 0. -1.
        -11    1    1    2    0    0 -0.15979097283E+02 -0.11832016247E+03 -0.12133410721E+03  0.17022619649E+03  0.00000000000E+00 0. -1.
         11    1    1    2    0    0  0.41194458689E+02 -0.57651101511E+02 -0.15957472892E+03  0.17459876014E+03  0.00000000000E+00 0.  1.
<mgrwt>
<rscale>  0 0.21284876E+03</rscale>
<asrwt>0</asrwt>
<pdfrwt beam="1">  1        2 0.18604358E-01 0.21731757E+03</pdfrwt>
<pdfrwt beam="2">  1       -2 0.68549405E-01 0.21731757E+03</pdfrwt>
<totfact> 0.60175971E+02</totfact>
</mgrwt>
</event>
<event>
 7    1  0.5928109E-006  0.1883947E+03  0.7546771E-02  0.1164803E+00
         -2   -1    0    0    0  501 -0.00000000000E+00  0.00000000000E+00  0.60313382398E+02  0.60313382398E+02  0.00000000000E+00 0. -1.
          2   -1    0    0  501    0  0.00000000000E+00 -0.00000000000E+00 -0.61015608386E+03  0.61015608386E+03  0.00000000000E+00 0.  1.
         23    2    1    2    0    0  0.42471991730E+02 -0.13439668328E+03 -0.41184281975E+03  0.45288748913E+03  0.12500492419E+03 0.  0.
          5    1    3    3  502    0 -0.10340441231E+02 -0.71406312453E+02 -0.67764973630E+02  0.99095750837E+02  0.47000000000E+01 0.  1.
         -5    1    3    3    0  502  0.52812432962E+02 -0.62990370823E+02 -0.34407784612E+03  0.35379173829E+03  0.47000000000E+01 0.  1.
        -11    1    1    2    0    0  0.18147664477E+02  0.19071518558E+02  0.19196156692E+01  0.26395936626E+02  0.00000000000E+00 0. -1.
         11    1    1    2    0    0 -0.60619656207E+02  0.11532516472E+03 -0.13991949738E+03  0.19118604050E+03  0.00000000000E+00 0.  1.
<mgrwt>
<rscale>  0 0.18313481E+03</rscale>
<asrwt>0</asrwt>
<pdfrwt beam="2">  1        2 0.93870166E-01 0.18839472E+03</pdfrwt>
<pdfrwt beam="1">  1       -2 0.92789820E-02 0.18839472E+03</pdfrwt>
<totfact> 0.36440775E+03</totfact>
</mgrwt>
</event>
<event>
 7    1  0.5928109E-006  0.1331868E+03  0.7546771E-02  0.1235734E+00
          1   -1    0    0  501    0  0.00000000000E+00  0.00000000000E+00  0.52436961794E+03  0.52436961794E+03  0.00000000000E+00 0. -1.
         -1   -1    0    0    0  501 -0.00000000000E+00 -0.00000000000E+00 -0.29046170029E+02  0.29046170029E+02  0.00000000000E+00 0.  1.
         23    2    1    2    0    0 -0.43833314146E+02  0.13998745228E+02  0.36103205276E+03  0.38481538248E+03  0.12498564387E+03 0.  0.
          5    1    3    3  502    0 -0.63758855137E+02  0.30709940575E+02  0.34836099515E+03  0.35550775660E+03  0.47000000000E+01 0. -1.
         -5    1    3    3    0  502  0.19925540991E+02 -0.16711195347E+02  0.12671057610E+02  0.29307625879E+02  0.47000000000E+01 0. -1.
        -11    1    1    2    0    0  0.60038323752E+02 -0.32742820848E+02  0.12432708980E+03  0.14189403756E+03  0.00000000000E+00 0. -1.
         11    1    1    2    0    0 -0.16205009605E+02  0.18744075619E+02  0.99643053482E+01  0.26706367934E+02  0.00000000000E+00 0.  1.
<mgrwt>
<rscale>  0 0.12457559E+03</rscale>
<asrwt>0</asrwt>
<pdfrwt beam="1">  1        1 0.80672242E-01 0.13318684E+03</pdfrwt>
<pdfrwt beam="2">  1       -1 0.44686419E-02 0.13318684E+03</pdfrwt>
<totfact> 0.84240429E+03</totfact>
</mgrwt>
</event>
<event>
 6    1  0.5928109E-006  0.1650724E+03  0.7546771E-02  0.1192272E+00
          1   -1    0    0  501    0  0.00000000000E+00  0.00000000000E+00  0.24324453307E+04  0.24324453307E+04  0.00000000000E+00 0. -1.
         -1   -1    0    0    0  501 -0.00000000000E+00 -0.00000000000E+00 -0.14598216078E+02  0.14598216078E+02  0.00000000000E+00 0.  1.
          5    1    1    2  502    0  0.11177099298E+03  0.10092705124E+02  0.18581203135E+04  0.18615122366E+04  0.47000000000E+01 0. -1.
         -5    1    1    2    0  502 -0.19970395991E+02  0.26551785496E+02  0.16779981331E+03  0.17112183197E+03  0.47000000000E+01 0.  1.
        -11    1    1    2    0    0 -0.67765812056E+02 -0.32549229435E+02  0.37981875236E+03  0.38718721862E+03  0.00000000000E+00 0. -1.
         11    1    1    2    0    0 -0.24034784929E+02 -0.40952611845E+01  0.12108235432E+02  0.27222259569E+02  0.00000000000E+00 0.  1.
<mgrwt>
<rscale>  0 0.15687399E+03</rscale>
<asrwt>0</asrwt>
<pdfrwt beam="1">  1        1 0.37422204E+00 0.16507240E+03</pdfrwt>
<pdfrwt beam="2">  1       -1 0.22458813E-02 0.16507240E+03</pdfrwt>
<totfact> 0.10294430E+03</totfact>
</mgrwt>
</event>
<event>
 7    1  0.5928109E-006  0.1263056E+03  0.7546771E-02  0.1249193E+00
         -1   -1    0    0    0  501 -0.00000000000E+00  0.00000000000E+00  0.20026186414E+02  0.20026186414E+02  0.00000000000E+00 0.  1.
          1   -1    0    0  501    0  0.00000000000E+00 -0.00000000000E+00 -0.89433549871E+03  0.89433549871E+03  0.00000000000E+00 0. -1.
         23    2    1    2    0    0  0.48448171822E+01  0.17436964919E+02 -0.74841843016E+03  0.75900147804E+03  0.12500230826E+03 0.  0.
          5    1    3    3  502    0 -0.74206133615E+01 -0.53461078600E+02 -0.31391325041E+03  0.31855418881E+03  0.47000000000E+01 0. -1.
         -5    1    3    3    0  502  0.12265430544E+02  0.70898043519E+02 -0.43450517975E+03  0.44044728923E+03  0.47000000000E+01 0. -1.
        -11    1    1    2    0    0 -0.36310333147E+02 -0.37486206148E+02 -0.87099552509E+02  0.10153811103E+03  0.00000000000E+00 0. -1.
         11    1    1    2    0    0  0.31465515964E+02  0.20049241229E+02 -0.38791329628E+02  0.53822096049E+02  0.00000000000E+00 0.  1.
<mgrwt>
<rscale>  0 0.11637908E+03</rscale>
<asrwt>0</asrwt>
<pdfrwt beam="2">  1        1 0.13759008E+00 0.12630557E+03</pdfrwt>
<pdfrwt beam="1">  1       -1 0.30809517E-02 0.12630557E+03</pdfrwt>
<totfact> 0.67546544E+03</totfact>
</mgrwt>
</event>
<event>
 7    1  0.1168469E-005  0.2855781E+03  0.7546771E-02  0.1094503E+00
         -1   -1    0    0    0  501 -0.00000000000E+00  0.00000000000E+00  0.69249120588E+03  0.69249120588E+03  0.00000000000E+00 0.  1.
          1   -1    0    0  501    0  0.00000000000E+00 -0.00000000000E+00 -0.11647018641E+03  0.11647018641E+03  0.00000000000E+00 0. -1.
         23    2    1    2    0    0  0.28268991502E+02 -0.25520646425E+03  0.37088114191E+03  0.46808941513E+03  0.12500161540E+03 0.  0.
          5    1    3    3  502    0  0.36239915038E+02 -0.16322118022E+03  0.32355315170E+03  0.36422962137E+03  0.47000000000E+01 0.  1.
         -5    1    3    3    0  502 -0.79709235365E+01 -0.91985284038E+02  0.47327990217E+02  0.10385979376E+03  0.47000000000E+01 0.  1.
        -11    1    1    2    0    0  0.30343036221E+02  0.13368323588E+03  0.11040286423E+03  0.17601335129E+03  0.00000000000E+00 0. -1.
         11    1    1    2    0    0 -0.58612027723E+02  0.12152322837E+03  0.94737013332E+02  0.16485862587E+03  0.00000000000E+00 0.  1.
<mgrwt>
<rscale>  0 0.28218200E+03</rscale>
<asrwt>0</asrwt>
<pdfrwt beam="2">  1        1 0.17918491E-01 0.28557815E+03</pdfrwt>
<pdfrwt beam="1">  1       -1 0.10653711E+00 0.28557815E+03</pdfrwt>
<totfact> 0.25815412E+02</totfact>
</mgrwt>
</event>
<event>
 7    1  0.5928109E-006  0.1638544E+03  0.7546771E-02  0.1192215E+00
          2   -1    0    0  501    0  0.00000000000E+00  0.00000000000E+00  0.12340718190E+04  0.12340718190E+04  0.00000000000E+00 0. -1.
         -2   -1    0    0    0  501 -0.00000000000E+00 -0.00000000000E+00 -0.18438820917E+02  0.18438820917E+02  0.00000000000E+00 0.  1.
         23    2    1    2    0    0  0.48239634265E+02  0.94318747372E+02  0.66152505674E+03  0.68151570164E+03  0.12500064986E+03 0.  0.
          5    1    3    3  502    0  0.60378545958E+02  0.34897712104E+02  0.14023787551E+03  0.15669132347E+03  0.47000000000E+01 0.  1.
         -5    1    3    3    0  502 -0.12138911692E+02  0.59421035268E+02  0.52128718123E+03  0.52482437817E+03  0.47000000000E+01 0.  1.
        -11    1    1    2    0    0 -0.61045001971E+02 -0.28477834620E+02  0.21456220142E+03  0.22488756659E+03  0.00000000000E+00 0.  1.
         11    1    1    2    0    0  0.12805367705E+02 -0.65840912751E+02  0.33954573990E+03  0.34610737166E+03  0.00000000000E+00 0. -1.
<mgrwt>
<rscale>  0 0.15692299E+03</rscale>
<asrwt>0</asrwt>
<pdfrwt beam="1">  1        2 0.18985714E+00 0.16385436E+03</pdfrwt>
<pdfrwt beam="2">  1       -2 0.28367426E-02 0.16385436E+03</pdfrwt>
<totfact> 0.86234939E+03</totfact>
</mgrwt>
</event>
<event>
 7    1  0.1111426E-005  0.2124597E+03  0.7546771E-02  0.1143365E+00
         -1   -1    0    0    0  501 -0.00000000000E+00  0.00000000000E+00  0.31450935397E+02  0.31450935397E+02  0.00000000000E+00 0.  1.
          1   -1    0    0  501    0  0.00000000000E+00 -0.00000000000E+00 -0.18065432710E+04  0.18065432710E+04  0.00000000000E+00 0. -1.
         23    2    1    2    0    0  0.12228414847E+03 -0.12066626404E+03 -0.13957314389E+04  0.14118092597E+04  0.12500150436E+03 0.  0.
          5    1    3    3  502    0  0.10404976671E+03 -0.54726873677E+02 -0.50863080838E+03  0.52206204027E+03  0.47000000000E+01 0.  1.
         -5    1    3    3    0  502  0.18234381760E+02 -0.65939390366E+02 -0.88710063049E+03  0.88974721944E+03  0.47000000000E+01 0.  1.
        -11    1    1    2    0    0 -0.87032841101E+02  0.38620633088E+02 -0.12870567709E+03  0.16009815753E+03  0.00000000000E+00 0.  1.
         11    1    1    2    0    0 -0.35251307372E+02  0.82045630954E+02 -0.25065521963E+03  0.26608678915E+03  0.00000000000E+00 0. -1.
<mgrwt>
<rscale>  0 0.20774347E+03</rscale>
<asrwt>0</asrwt>
<pdfrwt beam="2">  1        1 0.27792980E+00 0.21245973E+03</pdfrwt>
<pdfrwt beam="1">  1       -1 0.48386043E-02 0.21245973E+03</pdfrwt>
<totfact> 0.83825082E+02</totfact>
</mgrwt>
</event>
<event>
 7    1  0.5928109E-006  0.1279570E+03  0.7546771E-02  0.1244602E+00
          2   -1    0    0  501    0  0.00000000000E+00  0.00000000000E+00  0.91818407503E+03  0.91818407503E+03  0.00000000000E+00 0. -1.
         -2   -1    0    0    0  501 -0.00000000000E+00 -0.00000000000E+00 -0.16501051399E+02  0.16501051399E+02  0.00000000000E+00 0.  1.
         23    2    1    2    0    0 -0.25274342222E+02  0.10891665320E+02  0.69639830970E+03  0.70805621216E+03  0.12496228664E+03 0.  0.
          5    1    3    3  502    0 -0.60864596305E+02 -0.27657057233E+02  0.26034294363E+03  0.26883070918E+03  0.47000000000E+01 0.  1.
         -5    1    3    3    0  502  0.35590254084E+02  0.38548722553E+02  0.43605536607E+03  0.43922550299E+03  0.47000000000E+01 0.  1.
        -11    1    1    2    0    0  0.56316483920E+02  0.90655674025E+01  0.10082735488E+03  0.11584423320E+03  0.00000000000E+00 0.  1.
         11    1    1    2    0    0 -0.31042141698E+02 -0.19957232722E+02  0.10445735905E+03  0.11078468107E+03  0.00000000000E+00 0. -1.
<mgrwt>
<rscale>  0 0.11909201E+03</rscale>
<asrwt>0</asrwt>
<pdfrwt beam="1">  1        2 0.14125905E+00 0.12795700E+03</pdfrwt>
<pdfrwt beam="2">  1       -2 0.25386240E-02 0.12795700E+03</pdfrwt>
<totfact> 0.15287391E+04</totfact>
</mgrwt>
</event>
<event>
 7    1  0.5928109E-006  0.1674428E+03  0.7546771E-02  0.1187153E+00
          3   -1    0    0  501    0  0.00000000000E+00  0.00000000000E+00  0.26372350704E+03  0.26372350704E+03  0.00000000000E+00 0. -1.
         -3   -1    0    0    0  501 -0.00000000000E+00 -0.00000000000E+00 -0.92223107466E+02  0.92223107466E+02  0.00000000000E+00 0.  1.
         23    2    1    2    0    0 -0.47832188252E+02 -0.10062211083E+03  0.91175487543E+02  0.19065687865E+03  0.12499739367E+03 0.  0.
          5    1    3    3  502    0 -0.49223823120E+02 -0.28420499946E+02 -0.17883665012E+02  0.59771440119E+02  0.47000000000E+01 0. -1.
         -5    1    3    3    0  502  0.13916348679E+01 -0.72201610886E+02  0.10905915256E+03  0.13088543853E+03  0.47000000000E+01 0. -1.
        -11    1    1    2    0    0  0.53823275878E+02  0.87582205254E+02  0.98337385118E+02  0.14225972380E+03  0.00000000000E+00 0. -1.
         11    1    1    2    0    0 -0.59910876263E+01  0.13039905578E+02 -0.18012473093E+02  0.23030012057E+02  0.00000000000E+00 0.  1.
<mgrwt>
<rscale>  0 0.16137507E+03</rscale>
<asrwt>0</asrwt>
<pdfrwt beam="1">  1        3 0.40572847E-01 0.16744275E+03</pdfrwt>
<pdfrwt beam="2">  1       -3 0.14188170E-01 0.16744275E+03</pdfrwt>
<totfact> 0.58892143E+02</totfact>
</mgrwt>
</event>
<event>
 7    1  0.5928109E-006  0.1258348E+03  0.7546771E-02  0.1248882E+00
          1   -1    0    0  501    0  0.00000000000E+00  0.00000000000E+00  0.30725515869E+03  0.30725515869E+03  0.00000000000E+00 0. -1.
         -1   -1    0    0    0  501 -0.00000000000E+00 -0.00000000000E+00 -0.38838396049E+02  0.38838396049E+02  0.00000000000E+00 0.  1.
         23    2    1    2    0    0 -0.72691798559E+01  0.12526757803E+02  0.15356296678E+03  0.19853459500E+03  0.12499856003E+03 0.  0.
          5    1    3    3  502    0 -0.41677211319E+02  0.12510624062E+02  0.15760801543E+03  0.16357225372E+03  0.47000000000E+01 0. -1.
         -5    1    3    3    0  502  0.34408031463E+02  0.16133740719E-01 -0.40450486524E+01  0.34962341284E+02  0.47000000000E+01 0. -1.
        -11    1    1    2    0    0 -0.27698242167E+02 -0.10256060757E+02  0.10785456752E+03  0.11182569980E+03  0.00000000000E+00 0. -1.
         11    1    1    2    0    0  0.34967422022E+02 -0.22706970455E+01  0.69992283373E+01  0.35733259931E+02  0.00000000000E+00 0.  1.
<mgrwt>
<rscale>  0 0.11656033E+03</rscale>
<asrwt>0</asrwt>
<pdfrwt beam="1">  1        1 0.47270023E-01 0.12583481E+03</pdfrwt>
<pdfrwt beam="2">  1       -1 0.59751381E-02 0.12583481E+03</pdfrwt>
<totfact> 0.10732858E+04</totfact>
</mgrwt>
</event>
<event>
 7    1  0.5928109E-006  0.1396748E+03  0.7546771E-02  0.1224169E+00
          2   -1    0    0  501    0  0.00000000000E+00  0.00000000000E+00  0.53371490063E+03  0.53371490063E+03  0.00000000000E+00 0. -1.
         -2   -1    0    0    0  501 -0.00000000000E+00 -0.00000000000E+00 -0.29796436442E+02  0.29796436442E+02  0.00000000000E+00 0.  1.
         23    2    1    2    0    0  0.38401354368E+02 -0.49074071274E+02  0.26548168246E+03  0.29998261216E+03  0.12500446148E+03 0.  0.
          5    1    3    3  502    0  0.31331016476E+01 -0.85514800580E+02  0.19522673394E+03  0.21320920498E+03  0.47000000000E+01 0.  1.
         -5    1    3    3    0  502  0.35268252720E+02  0.36440729305E+02  0.70254948519E+02  0.86773407180E+02  0.47000000000E+01 0.  1.
        -11    1    1    2    0    0  0.27108200713E+02  0.36025920657E+02  0.86073959185E+02  0.97167113547E+02  0.00000000000E+00 0. -1.
         11    1    1    2    0    0 -0.65509555081E+02  0.13048150617E+02  0.15236282254E+03  0.16636161136E+03  0.00000000000E+00 0.  1.
<mgrwt>
<rscale>  0 0.13224051E+03</rscale>
<asrwt>0</asrwt>
<pdfrwt beam="1">  1        2 0.82109978E-01 0.13967478E+03</pdfrwt>
<pdfrwt beam="2">  1       -2 0.45840675E-02 0.13967478E+03</pdfrwt>
<totfact> 0.12294674E+04</totfact>
</mgrwt>
</event>
<event>
 7    1  0.5928109E-006  0.1602168E+03  0.7546771E-02  0.1196214E+00
          1   -1    0    0  501    0  0.00000000000E+00  0.00000000000E+00  0.38991591896E+03  0.38991591896E+03  0.00000000000E+00 0. -1.
         -1   -1    0    0    0  501 -0.00000000000E+00 -0.00000000000E+00 -0.55966806683E+02  0.55966806683E+02  0.00000000000E+00 0.  1.
         23    2    1    2    0    0 -0.76585332808E+02 -0.64653052965E+02  0.17361461560E+03  0.23624451111E+03  0.12499641523E+03 0.  0.
          5    1    3    3  502    0  0.14529854830E+02 -0.21813730985E+02 -0.86238195370E+01  0.27989565990E+02  0.47000000000E+01 0. -1.
         -5    1    3    3    0  502 -0.91115187638E+02 -0.42839321980E+02  0.18223843514E+03  0.20825494512E+03  0.47000000000E+01 0. -1.
        -11    1    1    2    0    0  0.86986544060E+01 -0.54136522483E+01 -0.93734327416E+01  0.13886520821E+02  0.00000000000E+00 0.  1.
         11    1    1    2    0    0  0.67886678402E+02  0.70066705214E+02  0.16970792942E+03  0.19575169371E+03  0.00000000000E+00 0. -1.
<mgrwt>
<rscale>  0 0.15351905E+03</rscale>
<asrwt>0</asrwt>
<pdfrwt beam="1">  1        1 0.59987063E-01 0.16021684E+03</pdfrwt>
<pdfrwt beam="2">  1       -1 0.86102782E-02 0.16021684E+03</pdfrwt>
<totfact> 0.46751144E+03</totfact>
</mgrwt>
</event>
<event>
 7    1  0.5928109E-006  0.1726776E+03  0.7546771E-02  0.1181164E+00
         -1   -1    0    0    0  501 -0.00000000000E+00  0.00000000000E+00  0.13229590459E+03  0.13229590459E+03  0.00000000000E+00 0.  1.
          1   -1    0    0  501    0  0.00000000000E+00 -0.00000000000E+00 -0.21762994882E+03  0.21762994882E+03  0.00000000000E+00 0. -1.
         23    2    1    2    0    0 -0.90910379470E+00  0.11912811331E+03 -0.98506713723E+02  0.19879921257E+03  0.12500088167E+03 0.  0.
          5    1    3    3  502    0 -0.30817091396E+02  0.13015482503E+03 -0.99167146186E+02  0.16657185982E+03  0.47000000000E+01 0.  1.
         -5    1    3    3    0  502  0.29907987602E+02 -0.11026711727E+02  0.66043246249E+00  0.32227352745E+02  0.47000000000E+01 0.  1.
        -11    1    1    2    0    0  0.24517154545E+02 -0.71973224404E+02  0.46136484073E+02  0.88937118577E+02  0.00000000000E+00 0.  1.
         11    1    1    2    0    0 -0.23608050750E+02 -0.47154888903E+02 -0.32963814577E+02  0.62189522261E+02  0.00000000000E+00 0. -1.
<mgrwt>
<rscale>  0 0.16685847E+03</rscale>
<asrwt>0</asrwt>
<pdfrwt beam="2">  1        1 0.33481530E-01 0.17267760E+03</pdfrwt>
<pdfrwt beam="1">  1       -1 0.20353216E-01 0.17267760E+03</pdfrwt>
<totfact> 0.25310904E+03</totfact>
</mgrwt>
</event>
<event>
 7    1  0.5928109E-006  0.1354282E+03  0.7546771E-02  0.1230220E+00
          1   -1    0    0  501    0  0.00000000000E+00  0.00000000000E+00  0.41380763537E+02  0.41380763537E+02  0.00000000000E+00 0. -1.
         -1   -1    0    0    0  501 -0.00000000000E+00 -0.00000000000E+00 -0.46359550311E+03  0.46359550311E+03  0.00000000000E+00 0.  1.
         23    2    1    2    0    0 -0.41816551811E+01 -0.51941692092E+02 -0.11018458067E+03  0.17458937220E+03  0.12500152579E+03 0.  0.
          5    1    3    3  502    0  0.73960133271E+01 -0.61462883874E+02 -0.13306456337E+03  0.14683546960E+03  0.47000000000E+01 0. -1.
         -5    1    3    3    0  502 -0.11577668508E+02  0.95211917814E+01  0.22879982704E+02  0.27753902600E+02  0.47000000000E+01 0. -1.
        -11    1    1    2    0    0  0.27734520095E+02  0.46592852607E+00 -0.23496269800E+02  0.36352378035E+02  0.00000000000E+00 0. -1.
         11    1    1    2    0    0 -0.23552864913E+02  0.51475763566E+02 -0.28853388910E+03  0.29403451641E+03  0.00000000000E+00 0.  1.
<mgrwt>
<rscale>  0 0.12815439E+03</rscale>
<asrwt>0</asrwt>
<pdfrwt beam="1">  1        1 0.63662711E-02 0.13542824E+03</pdfrwt>
<pdfrwt beam="2">  1       -1 0.71322387E-01 0.13542824E+03</pdfrwt>
<totfact> 0.23796743E+03</totfact>
</mgrwt>
</event>
<event>
 7    1  0.5928109E-006  0.1377043E+03  0.7546771E-02  0.1226886E+00
         -4   -1    0    0    0  501 -0.00000000000E+00  0.00000000000E+00  0.40115559626E+02  0.40115559626E+02  0.00000000000E+00 0.  1.
          4   -1    0    0  501    0  0.00000000000E+00 -0.00000000000E+00 -0.38753993076E+03  0.38753993076E+03  0.00000000000E+00 0. -1.
         23    2    1    2    0    0  0.34867411273E+02  0.46080249461E+02 -0.17356891366E+03  0.22155955387E+03  0.12499336927E+03 0.  0.
          5    1    3    3  502    0 -0.80088918477E+01  0.36945624297E+02  0.42731780066E+01  0.38333686929E+02  0.47000000000E+01 0. -1.
         -5    1    3    3    0  502  0.42876303121E+02  0.91346251639E+01 -0.17784209167E+03  0.18322586694E+03  0.47000000000E+01 0. -1.
        -11    1    1    2    0    0 -0.38883347945E+02  0.98539008515E+01 -0.12646848041E+03  0.13267739313E+03  0.00000000000E+00 0. -1.
         11    1    1    2    0    0  0.40159366717E+01 -0.55934150312E+02 -0.47386977053E+02  0.73418543385E+02  0.00000000000E+00 0.  1.
<mgrwt>
<rscale>  0 0.13038474E+03</rscale>
<asrwt>0</asrwt>
<pdfrwt beam="2">  1        4 0.59621531E-01 0.13770428E+03</pdfrwt>
<pdfrwt beam="1">  1       -4 0.61716243E-02 0.13770428E+03</pdfrwt>
<totfact> 0.75698859E+02</totfact>
</mgrwt>
</event>
<event>
 7    1  0.5928109E-006  0.1397490E+03  0.7546771E-02  0.1221508E+00
          2   -1    0    0  501    0  0.00000000000E+00  0.00000000000E+00  0.10834602321E+03  0.10834602321E+03  0.00000000000E+00 0.  1.
         -2   -1    0    0    0  501 -0.00000000000E+00 -0.00000000000E+00 -0.17069194659E+03  0.17069194659E+03  0.00000000000E+00 0. -1.
         23    2    1    2    0    0  0.58370092975E+02  0.22311379012E+02  0.10219383419E+02  0.14012214379E+03  0.12499965598E+03 0.  0.
          5    1    3    3  502    0 -0.22843089865E+02  0.39299267880E+02 -0.22341324299E+02  0.50867120834E+02  0.47000000000E+01 0.  1.
         -5    1    3    3    0  502  0.81213182840E+02 -0.16987888868E+02  0.32560707718E+02  0.89255022953E+02  0.47000000000E+01 0.  1.
        -11    1    1    2    0    0 -0.92762461623E+01 -0.95127513802E+01  0.25359004703E+02  0.28629011530E+02  0.00000000000E+00 0.  1.
         11    1    1    2    0    0 -0.49093846813E+02 -0.12798627632E+02 -0.97924311502E+02  0.11028681448E+03  0.00000000000E+00 0. -1.
<mgrwt>
<rscale>  0 0.13409142E+03</rscale>
<asrwt>0</asrwt>
<pdfrwt beam="1">  1        2 0.16668619E-01 0.13974899E+03</pdfrwt>
<pdfrwt beam="2">  1       -2 0.26260299E-01 0.13974899E+03</pdfrwt>
<totfact> 0.42856598E+03</totfact>
</mgrwt>
</event>
<event>
 7    1  0.5928109E-006  0.1538084E+03  0.7546771E-02  0.1202114E+00
          2   -1    0    0  501    0  0.00000000000E+00  0.00000000000E+00  0.92022952688E+03  0.92022952688E+03  0.00000000000E+00 0.  1.
         -2   -1    0    0    0  501 -0.00000000000E+00 -0.00000000000E+00 -0.22824343143E+02  0.22824343143E+02  0.00000000000E+00 0. -1.
         23    2    1    2    0    0  0.46519693486E+02 -0.76592460184E+02  0.53071247348E+03  0.55255112123E+03  0.12500610076E+03 0.  0.
          5    1    3    3  502    0  0.40908861647E+02 -0.55795763278E+02  0.10239737130E+03  0.12366896866E+03  0.47000000000E+01 0. -1.
         -5    1    3    3    0  502  0.56108318398E+01 -0.20796696906E+02  0.42831510217E+03  0.42888215256E+03  0.47000000000E+01 0. -1.
        -11    1    1    2    0    0 -0.59446617849E+02  0.88829650478E+02  0.35051333942E+03  0.36644809768E+03  0.00000000000E+00 0.  1.
         11    1    1    2    0    0  0.12926924362E+02 -0.12237190294E+02  0.16179370841E+02  0.24054651122E+02  0.00000000000E+00 0. -1.
<mgrwt>
<rscale>  0 0.14867261E+03</rscale>
<asrwt>0</asrwt>
<pdfrwt beam="1">  1        2 0.14157374E+00 0.15380836E+03</pdfrwt>
<pdfrwt beam="2">  1       -2 0.35114381E-02 0.15380836E+03</pdfrwt>
<totfact> 0.95661414E+03</totfact>
</mgrwt>
</event>
<event>
 7    1  0.5928109E-006  0.1439687E+03  0.7546771E-02  0.1219036E+00
         -1   -1    0    0    0  501 -0.00000000000E+00  0.00000000000E+00  0.80246780220E+02  0.80246780220E+02  0.00000000000E+00 0.  1.
          1   -1    0    0  501    0  0.00000000000E+00 -0.00000000000E+00 -0.20762997351E+03  0.20762997351E+03  0.00000000000E+00 0. -1.
         23    2    1    2    0    0  0.21244405775E+02 -0.68190642412E+02 -0.67522754336E+02  0.15901671143E+03  0.12500281465E+03 0.  0.
          5    1    3    3  502    0 -0.14642169321E+00 -0.99174916219E+02 -0.25723621037E+02  0.10256451689E+03  0.47000000000E+01 0.  1.
         -5    1    3    3    0  502  0.21390827468E+02  0.30984273806E+02 -0.41799133299E+02  0.56452194533E+02  0.47000000000E+01 0.  1.
        -11    1    1    2    0    0 -0.58356380861E+00  0.49556038529E+02  0.12689274078E+02  0.51158178017E+02  0.00000000000E+00 0.  1.
         11    1    1    2    0    0 -0.20660841966E+02  0.18634603883E+02 -0.72549713027E+02  0.77701864282E+02  0.00000000000E+00 0. -1.
<mgrwt>
<rscale>  0 0.13584208E+03</rscale>
<asrwt>0</asrwt>
<pdfrwt beam="2">  1        1 0.31943072E-01 0.14396872E+03</pdfrwt>
<pdfrwt beam="1">  1       -1 0.12345659E-01 0.14396872E+03</pdfrwt>
<totfact> 0.58615116E+03</totfact>
</mgrwt>
</event>
<event>
 7    1  0.5928109E-006  0.1391170E+03  0.7546771E-02  0.1226341E+00
          1   -1    0    0  501    0  0.00000000000E+00  0.00000000000E+00  0.39870160805E+03  0.39870160805E+03  0.00000000000E+00 0. -1.
         -1   -1    0    0    0  501 -0.00000000000E+00 -0.00000000000E+00 -0.50342672666E+02  0.50342672666E+02  0.00000000000E+00 0.  1.
         23    2    1    2    0    0 -0.49371475231E+02 -0.35928886421E+02  0.29901781063E+03  0.32979566021E+03  0.12500039588E+03 0.  0.
          5    1    3    3  502    0 -0.37694538900E+02 -0.68904598263E+02  0.97877601486E+02  0.12558199233E+03  0.47000000000E+01 0. -1.
         -5    1    3    3    0  502 -0.11676936331E+02  0.32975711842E+02  0.20114020914E+03  0.20421366788E+03  0.47000000000E+01 0. -1.
        -11    1    1    2    0    0  0.72294926680E+02  0.41586622789E+02  0.29690344215E+02  0.88529769899E+02  0.00000000000E+00 0.  1.
         11    1    1    2    0    0 -0.22923451449E+02 -0.56577363677E+01  0.19650780544E+02  0.30718850616E+02  0.00000000000E+00 0. -1.
<mgrwt>
<rscale>  0 0.13075383E+03</rscale>
<asrwt>0</asrwt>
<pdfrwt beam="1">  1        1 0.61338707E-01 0.13911695E+03</pdfrwt>
<pdfrwt beam="2">  1       -1 0.77450268E-02 0.13911695E+03</pdfrwt>
<totfact> 0.52959357E+03</totfact>
</mgrwt>
</event>
<event>
 7    1  0.5928109E-006  0.1476912E+03  0.7546771E-02  0.1213067E+00
          2   -1    0    0  501    0  0.00000000000E+00  0.00000000000E+00  0.26319666670E+03  0.26319666670E+03  0.00000000000E+00 0. -1.
         -2   -1    0    0    0  501 -0.00000000000E+00 -0.00000000000E+00 -0.70994957659E+02  0.70994957659E+02  0.00000000000E+00 0.  1.
         23    2    1    2    0    0 -0.32217455672E+02 -0.71758040425E+02  0.13968310484E+03  0.20328321645E+03  0.12500206197E+03 0.  0.
          5    1    3    3  502    0 -0.54587971372E+02 -0.10941282271E+02  0.12464552856E+03  0.13659486105E+03  0.47000000000E+01 0. -1.
         -5    1    3    3    0  502  0.22370515700E+02 -0.60816758154E+02  0.15037576284E+02  0.66688355397E+02  0.47000000000E+01 0. -1.
        -11    1    1    2    0    0 -0.19792327089E+02  0.37534733652E+02 -0.90056429310E+01  0.43378497514E+02  0.00000000000E+00 0.  1.
         11    1    1    2    0    0  0.52009782761E+02  0.34223306773E+02  0.61524247135E+02  0.87529910402E+02  0.00000000000E+00 0. -1.
<mgrwt>
<rscale>  0 0.14019463E+03</rscale>
<asrwt>0</asrwt>
<pdfrwt beam="1">  1        2 0.40491794E-01 0.14769122E+03</pdfrwt>
<pdfrwt beam="2">  1       -2 0.10922301E-01 0.14769122E+03</pdfrwt>
<totfact> 0.69486458E+03</totfact>
</mgrwt>
</event>
<event>
 7    1  0.5928109E-006  0.1139883E+03  0.7546771E-02  0.1262026E+00
         -2   -1    0    0    0  501 -0.00000000000E+00  0.00000000000E+00  0.12184289188E+02  0.12184289188E+02  0.00000000000E+00 0.  1.
          2   -1    0    0  501    0  0.00000000000E+00 -0.00000000000E+00 -0.11730954355E+04  0.11730954355E+04  0.00000000000E+00 0. -1.
         23    2    1    2    0    0 -0.24659899809E+02 -0.46418966506E+01 -0.90100485264E+03  0.90818669807E+03  0.11119206901E+03 0.  0.
          5    1    3    3  502    0  0.84862282212E+01  0.48739188173E+02 -0.46593968407E+03  0.46858233399E+03  0.47000000000E+01 0. -1.
         -5    1    3    3    0  502 -0.33146128030E+02 -0.53381084824E+02 -0.43506516856E+03  0.43960436408E+03  0.47000000000E+01 0.  1.
        -11    1    1    2    0    0  0.55686681798E+02  0.11919622107E+02 -0.11034063582E+03  0.12416980243E+03  0.00000000000E+00 0.  1.
         11    1    1    2    0    0 -0.31026781989E+02 -0.72777254566E+01 -0.14956565786E+03  0.15292322420E+03  0.00000000000E+00 0. -1.
<mgrwt>
<rscale>  0 0.10921722E+03</rscale>
<asrwt>0</asrwt>
<pdfrwt beam="2">  1        2 0.18047622E+00 0.11398831E+03</pdfrwt>
<pdfrwt beam="1">  1       -2 0.18745061E-02 0.11398831E+03</pdfrwt>
<totfact> 0.16716067E+04</totfact>
</mgrwt>
</event>
<event>
 7    1  0.5928109E-006  0.1260682E+03  0.7546771E-02  0.1248648E+00
          2   -1    0    0  501    0  0.00000000000E+00  0.00000000000E+00  0.18297496053E+03  0.18297496053E+03  0.00000000000E+00 0. -1.
         -2   -1    0    0    0  501 -0.00000000000E+00 -0.00000000000E+00 -0.86181048469E+02  0.86181048469E+02  0.00000000000E+00 0.  1.
         23    2    1    2    0    0  0.14024068935E+02 -0.83474697718E+01  0.11965858563E+03  0.17381415802E+03  0.12500731839E+03 0.  0.
          5    1    3    3  502    0  0.68157061971E+02 -0.14514039905E+02  0.53494906623E+02  0.87976346170E+02  0.47000000000E+01 0. -1.
         -5    1    3    3    0  502 -0.54132993036E+02  0.61665701329E+01  0.66163679011E+02  0.85837811846E+02  0.47000000000E+01 0. -1.
        -11    1    1    2    0    0 -0.39541810976E+02  0.29374940910E+02 -0.34665337580E+02  0.60233940584E+02  0.00000000000E+00 0.  1.
         11    1    1    2    0    0  0.25517742042E+02 -0.21027471138E+02  0.11800664006E+02  0.35107910396E+02  0.00000000000E+00 0. -1.
<mgrwt>
<rscale>  0 0.11669693E+03</rscale>
<asrwt>0</asrwt>
<pdfrwt beam="1">  1        2 0.28149994E-01 0.12606817E+03</pdfrwt>
<pdfrwt beam="2">  1       -2 0.13258623E-01 0.12606817E+03</pdfrwt>
<totfact> 0.74531806E+03</totfact>
</mgrwt>
</event>
<event>
 7    1  0.5928109E-006  0.1292121E+03  0.7546771E-02  0.1242611E+00
          2   -1    0    0  501    0  0.00000000000E+00  0.00000000000E+00  0.34037715338E+03  0.34037715338E+03  0.00000000000E+00 0. -1.
         -2   -1    0    0    0  501 -0.00000000000E+00 -0.00000000000E+00 -0.44554454375E+02  0.44554454375E+02  0.00000000000E+00 0.  1.
         23    2    1    2    0    0 -0.20320767072E+01  0.32675649917E+02  0.24099478422E+03  0.27344880818E+03  0.12499574888E+03 0.  0.
          5    1    3    3  502    0  0.15741714488E+02 -0.52682774500E+01  0.22894969069E+03  0.22959879614E+03  0.47000000000E+01 0. -1.
         -5    1    3    3    0  502 -0.17773791196E+02  0.37943927367E+02  0.12045093532E+02  0.43850012038E+02  0.47000000000E+01 0. -1.
        -11    1    1    2    0    0  0.26346746071E+02 -0.28237740007E+02 -0.11828874207E+02  0.40391128410E+02  0.00000000000E+00 0.  1.
         11    1    1    2    0    0 -0.24314669364E+02 -0.44379099104E+01  0.66656788992E+02  0.71091671167E+02  0.00000000000E+00 0. -1.
<mgrwt>
<rscale>  0 0.12029486E+03</rscale>
<asrwt>0</asrwt>
<pdfrwt beam="1">  1        2 0.52365714E-01 0.12921209E+03</pdfrwt>
<pdfrwt beam="2">  1       -2 0.68545316E-02 0.12921209E+03</pdfrwt>
<totfact> 0.10812958E+04</totfact>
</mgrwt>
</event>
<event>
 7    1  0.5928109E-006  0.1317282E+03  0.7546771E-02  0.1238236E+00
          1   -1    0    0  501    0  0.00000000000E+00  0.00000000000E+00  0.87519835328E+02  0.87519835328E+02  0.00000000000E+00 0. -1.
         -1   -1    0    0    0  501 -0.00000000000E+00 -0.00000000000E+00 -0.15559516734E+03  0.15559516734E+03  0.00000000000E+00 0.  1.
         23    2    1    2    0    0 -0.41569944043E+02 -0.11818470346E+01 -0.24791789117E+02  0.13404084302E+03  0.12499143083E+03 0.  0.
          5    1    3    3  502    0  0.25197482861E+02 -0.44957503148E+02 -0.98686429407E+01  0.52683681964E+02  0.47000000000E+01 0.  1.
         -5    1    3    3    0  502 -0.66767426904E+02  0.43775656113E+02 -0.14923146176E+02  0.81357161058E+02  0.47000000000E+01 0.  1.
        -11    1    1    2    0    0 -0.25978006350E+02  0.16534482696E+02 -0.11672975461E+02  0.32931812705E+02  0.00000000000E+00 0.  1.
         11    1    1    2    0    0  0.67547950393E+02 -0.15352635661E+02 -0.31610567432E+02  0.76142346939E+02  0.00000000000E+00 0. -1.
<mgrwt>
<rscale>  0 0.12299503E+03</rscale>
<asrwt>0</asrwt>
<pdfrwt beam="1">  1        1 0.13464590E-01 0.13172819E+03</pdfrwt>
<pdfrwt beam="2">  1       -1 0.23937718E-01 0.13172819E+03</pdfrwt>
<totfact> 0.61053383E+03</totfact>
</mgrwt>
</event>
<event>
 7    1  0.5928109E-006  0.1454350E+03  0.7546771E-02  0.1217931E+00
         -1   -1    0    0    0  501 -0.00000000000E+00  0.00000000000E+00  0.16995653243E+03  0.16995653243E+03  0.00000000000E+00 0.  1.
          1   -1    0    0  501    0  0.00000000000E+00 -0.00000000000E+00 -0.11244704789E+03  0.11244704789E+03  0.00000000000E+00 0. -1.
         23    2    1    2    0    0 -0.72843564200E+02  0.14877013255E+02 -0.17558579554E+02  0.14649112851E+03  0.12499534650E+03 0.  0.
          5    1    3    3  502    0 -0.53047146787E+00 -0.46658318820E+02 -0.20947344341E+02  0.51363034860E+02  0.47000000000E+01 0. -1.
         -5    1    3    3    0  502 -0.72313092732E+02  0.61535332075E+02  0.33887647868E+01  0.95128093647E+02  0.47000000000E+01 0. -1.
        -11    1    1    2    0    0  0.10010019194E+02 -0.34771346951E+02  0.57100061504E+02  0.67599290505E+02  0.00000000000E+00 0.  1.
         11    1    1    2    0    0  0.62833545006E+02  0.19894333696E+02  0.17968002583E+02  0.68313161310E+02  0.00000000000E+00 0. -1.
<mgrwt>
<rscale>  0 0.13663426E+03</rscale>
<asrwt>0</asrwt>
<pdfrwt beam="2">  1        1 0.17299546E-01 0.14543503E+03</pdfrwt>
<pdfrwt beam="1">  1       -1 0.26147159E-01 0.14543503E+03</pdfrwt>
<totfact> 0.38418249E+03</totfact>
</mgrwt>
</event>
<event>
 7    1  0.5928109E-006  0.1258935E+03  0.7546771E-02  0.1252292E+00
         -4   -1    0    0    0  501 -0.00000000000E+00  0.00000000000E+00  0.11051926162E+03  0.11051926162E+03  0.00000000000E+00 0.  1.
          4   -1    0    0  501    0  0.00000000000E+00 -0.00000000000E+00 -0.11609331219E+03  0.11609331219E+03  0.00000000000E+00 0. -1.
         23    2    1    2    0    0 -0.44528551052E+01 -0.14486552710E+02 -0.42157086967E+02  0.13276447493E+03  0.12497798884E+03 0.  0.
          5    1    3    3  502    0  0.18385396115E+02  0.48481645810E+02  0.25008515869E+01  0.52123286824E+02  0.47000000000E+01 0. -1.
         -5    1    3    3    0  502 -0.22838251220E+02 -0.62968198519E+02 -0.44657938554E+02  0.80641188108E+02  0.47000000000E+01 0. -1.
        -11    1    1    2    0    0  0.41679161666E+02  0.15831576220E+02  0.34794079615E+02  0.56554569214E+02  0.00000000000E+00 0.  1.
         11    1    1    2    0    0 -0.37226306561E+02 -0.13450235101E+01  0.17889567914E+01  0.37293529664E+02  0.00000000000E+00 0. -1.
<mgrwt>
<rscale>  0 0.11459390E+03</rscale>
<asrwt>0</asrwt>
<pdfrwt beam="2">  1        4 0.17860510E-01 0.12589355E+03</pdfrwt>
<pdfrwt beam="1">  1       -4 0.17002963E-01 0.12589355E+03</pdfrwt>
<totfact> 0.13530926E+03</totfact>
</mgrwt>
</event>
<event>
 7    1  0.5928109E-006  0.1289475E+03  0.7546771E-02  0.1243016E+00
         -1   -1    0    0    0  501 -0.00000000000E+00  0.00000000000E+00  0.15925863826E+03  0.15925863826E+03  0.00000000000E+00 0.  1.
          1   -1    0    0  501    0  0.00000000000E+00 -0.00000000000E+00 -0.80093088423E+02  0.80093088423E+02  0.00000000000E+00 0. -1.
         23    2    1    2    0    0  0.31218089730E+02 -0.54883686532E+01  0.42459271390E+02  0.13575808514E+03  0.12499110623E+03 0.  0.
          5    1    3    3  502    0 -0.22410067162E+02  0.27744675313E+01  0.70728585914E+02  0.74394432895E+02  0.47000000000E+01 0. -1.
         -5    1    3    3    0  502  0.53628156892E+02 -0.82628361845E+01 -0.28269314525E+02  0.61363652247E+02  0.47000000000E+01 0. -1.
        -11    1    1    2    0    0 -0.34366270634E+02 -0.28775979203E+02 -0.96625601058E+01  0.45852618292E+02  0.00000000000E+00 0. -1.
         11    1    1    2    0    0  0.31481809045E+01  0.34264347856E+02  0.46368838555E+02  0.57741023250E+02  0.00000000000E+00 0.  1.
<mgrwt>
<rscale>  0 0.12004940E+03</rscale>
<asrwt>0</asrwt>
<pdfrwt beam="2">  1        1 0.12322014E-01 0.12894754E+03</pdfrwt>
<pdfrwt beam="1">  1       -1 0.24501329E-01 0.12894754E+03</pdfrwt>
<totfact> 0.65880922E+03</totfact>
</mgrwt>
</event>
<event>
 7    1  0.5928109E-006  0.1254900E+03  0.7546771E-02  0.1249665E+00
          1   -1    0    0  501    0  0.00000000000E+00  0.00000000000E+00  0.51594681405E+03  0.51594681405E+03  0.00000000000E+00 0. -1.
         -1   -1    0    0    0  501 -0.00000000000E+00 -0.00000000000E+00 -0.29537004608E+02  0.29537004608E+02  0.00000000000E+00 0.  1.
         23    2    1    2    0    0 -0.72117007842E+01  0.83885536020E+01  0.40029013828E+03  0.41949962710E+03  0.12500146346E+03 0.  0.
          5    1    3    3  502    0  0.25929051551E+02 -0.50857836826E+02  0.19362761511E+03  0.20192220932E+03  0.47000000000E+01 0.  1.
         -5    1    3    3    0  502 -0.33140752336E+02  0.59246390428E+02  0.20666252317E+03  0.21757741778E+03  0.47000000000E+01 0.  1.
        -11    1    1    2    0    0  0.27277473993E+02 -0.34422821465E+02  0.81782206983E+02  0.92829524421E+02  0.00000000000E+00 0. -1.
         11    1    1    2    0    0 -0.20065773209E+02  0.26034267863E+02  0.43374641733E+01  0.33154667139E+02  0.00000000000E+00 0.  1.
<mgrwt>
<rscale>  0 0.11610442E+03</rscale>
<asrwt>0</asrwt>
<pdfrwt beam="1">  1        1 0.79376426E-01 0.12549001E+03</pdfrwt>
<pdfrwt beam="2">  1       -1 0.45441549E-02 0.12549001E+03</pdfrwt>
<totfact> 0.83618819E+03</totfact>
</mgrwt>
</event>
<event>
 7    1  0.5928109E-006  0.1353538E+03  0.7546771E-02  0.1231670E+00
          2   -1    0    0  501    0  0.00000000000E+00  0.00000000000E+00  0.10884083525E+03  0.10884083525E+03  0.00000000000E+00 0. -1.
         -2   -1    0    0    0  501 -0.00000000000E+00 -0.00000000000E+00 -0.20356888511E+03  0.20356888511E+03  0.00000000000E+00 0.  1.
         23    2    1    2    0    0  0.25788687921E+01  0.51801507736E+02  0.40098827397E+02  0.14116859221E+03  0.12502243279E+03 0.  0.
          5    1    3    3  502    0  0.58133373483E+02  0.30247531503E+02 -0.55832466071E+01  0.65936825198E+02  0.47000000000E+01 0. -1.
         -5    1    3    3    0  502 -0.55554504691E+02  0.21553976233E+02  0.45682074004E+02  0.75231767015E+02  0.47000000000E+01 0. -1.
        -11    1    1    2    0    0 -0.34576263779E+02 -0.47406912523E+02 -0.39866530711E+02  0.70938520162E+02  0.00000000000E+00 0.  1.
         11    1    1    2    0    0  0.31997394987E+02 -0.43945952131E+01 -0.94960346541E+02  0.10030260798E+03  0.00000000000E+00 0. -1.
<mgrwt>
<rscale>  0 0.12720057E+03</rscale>
<asrwt>0</asrwt>
<pdfrwt beam="1">  1        2 0.16744744E-01 0.13535382E+03</pdfrwt>
<pdfrwt beam="2">  1       -2 0.31318290E-01 0.13535382E+03</pdfrwt>
<totfact> 0.31070306E+03</totfact>
</mgrwt>
</event>
<event>
 7    1  0.5928109E-006  0.1806624E+03  0.7546771E-02  0.1170490E+00
         -1   -1    0    0    0  501 -0.00000000000E+00  0.00000000000E+00  0.18992835165E+03  0.18992835165E+03  0.00000000000E+00 0.  1.
          1   -1    0    0  501    0  0.00000000000E+00 -0.00000000000E+00 -0.16122436409E+03  0.16122436409E+03  0.00000000000E+00 0. -1.
         23    2    1    2    0    0  0.58408779028E+02  0.12800720401E+03 -0.34328785765E+01  0.18069499116E+03  0.11332018986E+03 0.  0.
          5    1    3    3  502    0 -0.15436123284E+02  0.95819686627E+02 -0.17653785451E+02  0.98759467334E+02  0.47000000000E+01 0. -1.
         -5    1    3    3    0  502  0.73844902312E+02  0.32187517387E+02  0.14220906875E+02  0.81935523831E+02  0.47000000000E+01 0.  1.
        -11    1    1    2    0    0  0.17236123218E+01 -0.56648122130E+02  0.49845499996E+02  0.75475522192E+02  0.00000000000E+00 0. -1.
         11    1    1    2    0    0 -0.60132391350E+02 -0.71359081884E+02 -0.17708633852E+02  0.94982202384E+02  0.00000000000E+00 0.  1.
<mgrwt>
<rscale>  0 0.17725163E+03</rscale>
<asrwt>0</asrwt>
<pdfrwt beam="2">  1        1 0.24803748E-01 0.18066238E+03</pdfrwt>
<pdfrwt beam="1">  1       -1 0.29219746E-01 0.18066238E+03</pdfrwt>
<totfact> 0.20349769E+03</totfact>
</mgrwt>
</event>
<event>
 7    1  0.5928109E-006  0.1474823E+03  0.7546771E-02  0.1212873E+00
         -2   -1    0    0    0  501 -0.00000000000E+00  0.00000000000E+00  0.95236613776E+02  0.95236613776E+02  0.00000000000E+00 0.  1.
          2   -1    0    0  501    0  0.00000000000E+00 -0.00000000000E+00 -0.20637303471E+03  0.20637303471E+03  0.00000000000E+00 0. -1.
         23    2    1    2    0    0  0.62609593301E+02  0.46967230525E+02 -0.10402886666E+03  0.18048004555E+03  0.12500063930E+03 0.  0.
          5    1    3    3  502    0 -0.34918753055E+02  0.18040881806E+02 -0.54175394844E+02  0.67095872733E+02  0.47000000000E+01 0.  1.
         -5    1    3    3    0  502  0.97528346356E+02  0.28926348719E+02 -0.49853471821E+02  0.11338417282E+03  0.47000000000E+01 0.  1.
        -11    1    1    2    0    0 -0.59263026021E+02 -0.13445039423E+01  0.25930203954E+02  0.64701541103E+02  0.00000000000E+00 0.  1.
         11    1    1    2    0    0 -0.33465672800E+01 -0.45622726583E+02 -0.33037758219E+02  0.56428061827E+02  0.00000000000E+00 0. -1.
<mgrwt>
<rscale>  0 0.14033964E+03</rscale>
<asrwt>0</asrwt>
<pdfrwt beam="2">  1        2 0.31749697E-01 0.14748234E+03</pdfrwt>
<pdfrwt beam="1">  1       -2 0.14651787E-01 0.14748234E+03</pdfrwt>
<totfact> 0.56225775E+03</totfact>
</mgrwt>
</event>
<event>
 7    1  0.5928109E-006  0.1388992E+03  0.7546771E-02  0.1226085E+00
          1   -1    0    0  501    0  0.00000000000E+00  0.00000000000E+00  0.16004640374E+03  0.16004640374E+03  0.00000000000E+00 0. -1.
         -1   -1    0    0    0  501 -0.00000000000E+00 -0.00000000000E+00 -0.96697169948E+02  0.96697169948E+02  0.00000000000E+00 0.  1.
         23    2    1    2    0    0  0.31706846475E+02  0.51596941745E+02  0.29674442165E+02  0.14203369292E+03  0.12500171557E+03 0.  0.
          5    1    3    3  502    0 -0.53022329610E+01  0.78864710292E+02 -0.11658543414E+02  0.80036040871E+02  0.47000000000E+01 0. -1.
         -5    1    3    3    0  502  0.37009079436E+02 -0.27267768546E+02  0.41332985579E+02  0.61997652045E+02  0.47000000000E+01 0. -1.
        -11    1    1    2    0    0 -0.39887713653E+02 -0.24826545739E+01 -0.17213796595E+02  0.43514458143E+02  0.00000000000E+00 0.  1.
         11    1    1    2    0    0  0.81808671781E+01 -0.49114287171E+02  0.50888588225E+02  0.71195422631E+02  0.00000000000E+00 0. -1.
<mgrwt>
<rscale>  0 0.13092804E+03</rscale>
<asrwt>0</asrwt>
<pdfrwt beam="1">  1        1 0.24622524E-01 0.13889923E+03</pdfrwt>
<pdfrwt beam="2">  1       -1 0.14876488E-01 0.13889923E+03</pdfrwt>
<totfact> 0.60553683E+03</totfact>
</mgrwt>
</event>
<event>
 6    1  0.5928109E-006  0.3171755E+03  0.7546771E-02  0.1089506E+00
         -2   -1    0    0    0  501 -0.00000000000E+00  0.00000000000E+00  0.59123120211E+02  0.59123120211E+02  0.00000000000E+00 0.  1.
          2   -1    0    0  501    0  0.00000000000E+00 -0.00000000000E+00 -0.17292322549E+04  0.17292322549E+04  0.00000000000E+00 0. -1.
          5    1    1    2  502    0  0.94005706868E+02 -0.20810417724E+02 -0.62037335800E+03  0.62781791925E+03  0.47000000000E+01 0. -1.
         -5    1    1    2    0  502 -0.98234294863E+02 -0.18667461801E+03 -0.78090171871E+03  0.80890479908E+03  0.47000000000E+01 0.  1.
        -11    1    1    2    0    0 -0.22336360571E+02  0.12248975704E+03 -0.21240728806E+03  0.24621029549E+03  0.00000000000E+00 0.  1.
         11    1    1    2    0    0  0.26564948565E+02  0.84995278696E+02 -0.56426769876E+02  0.10542236125E+03  0.00000000000E+00 0. -1.
<mgrwt>
<rscale>  0 0.29162010E+03</rscale>
<asrwt>0</asrwt>
<pdfrwt beam="2">  1        2 0.26603570E+00 0.31717555E+03</pdfrwt>
<pdfrwt beam="1">  1       -2 0.90958658E-02 0.31717555E+03</pdfrwt>
<totfact> 0.79302736E+02</totfact>
</mgrwt>
</event>
<event>
 7    1  0.5928109E-006  0.1540539E+03  0.7546771E-02  0.1204361E+00
         -1   -1    0    0    0  501 -0.00000000000E+00  0.00000000000E+00  0.14450829687E+02  0.14450829687E+02  0.00000000000E+00 0.  1.
          1   -1    0    0  501    0  0.00000000000E+00 -0.00000000000E+00 -0.16708065234E+04  0.16708065234E+04  0.00000000000E+00 0. -1.
         23    2    1    2    0    0  0.50205095254E+02  0.74739915330E+02 -0.12492467447E+04  0.12587096670E+04  0.12500396043E+03 0.  0.
          5    1    3    3  502    0  0.66911732016E+02 -0.74300328761E+01 -0.67299424766E+03  0.67636952374E+03  0.47000000000E+01 0. -1.
         -5    1    3    3    0  502 -0.16706636762E+02  0.82169948206E+02 -0.57625249709E+03  0.58234014330E+03  0.47000000000E+01 0. -1.
        -11    1    1    2    0    0 -0.70292760972E+02 -0.26639441685E+02 -0.23924460920E+03  0.25077622521E+03  0.00000000000E+00 0. -1.
         11    1    1    2    0    0  0.20087665718E+02 -0.48100473645E+02 -0.16786433980E+03  0.17577146087E+03  0.00000000000E+00 0.  1.
<mgrwt>
<rscale>  0 0.14687957E+03</rscale>
<asrwt>0</asrwt>
<pdfrwt beam="2">  1        1 0.25704695E+00 0.15405388E+03</pdfrwt>
<pdfrwt beam="1">  1       -1 0.22232064E-02 0.15405388E+03</pdfrwt>
<totfact> 0.32236529E+03</totfact>
</mgrwt>
</event>
<event>
 7    1  0.5928109E-006  0.1639591E+03  0.7546771E-02  0.1191882E+00
         -3   -1    0    0    0  501 -0.00000000000E+00  0.00000000000E+00  0.53932589195E+03  0.53932589195E+03  0.00000000000E+00 0.  1.
          3   -1    0    0  501    0  0.00000000000E+00 -0.00000000000E+00 -0.43415966088E+02  0.43415966088E+02  0.00000000000E+00 0. -1.
         23    2    1    2    0    0  0.58373632537E+02  0.88601843358E+02  0.31204108137E+03  0.35249430307E+03  0.12499931845E+03 0.  0.
          5    1    3    3  502    0 -0.27477595768E+02 -0.12773174215E+02  0.49689850760E+02  0.58389583979E+02  0.47000000000E+01 0.  1.
         -5    1    3    3    0  502  0.85851228305E+02  0.10137501757E+03  0.26235123061E+03  0.29410471909E+03  0.47000000000E+01 0.  1.
        -11    1    1    2    0    0 -0.21446520591E+02  0.82425138309E+01  0.81089577772E+02  0.84281741219E+02  0.00000000000E+00 0.  1.
         11    1    1    2    0    0 -0.36927111946E+02 -0.96844357189E+02  0.10277926672E+03  0.14596581375E+03  0.00000000000E+00 0. -1.
<mgrwt>
<rscale>  0 0.15721061E+03</rscale>
<asrwt>0</asrwt>
<pdfrwt beam="2">  1        3 0.66793798E-02 0.16395913E+03</pdfrwt>
<pdfrwt beam="1">  1       -3 0.82973210E-01 0.16395913E+03</pdfrwt>
<totfact> 0.46921474E+02</totfact>
</mgrwt>
</event>
<event>
 7    1  0.5928109E-006  0.1709901E+03  0.7546771E-02  0.1183447E+00
         -2   -1    0    0    0  501 -0.00000000000E+00  0.00000000000E+00  0.32388558991E+02  0.32388558991E+02  0.00000000000E+00 0.  1.
          2   -1    0    0  501    0  0.00000000000E+00 -0.00000000000E+00 -0.94812443936E+03  0.94812443936E+03  0.00000000000E+00 0. -1.
         23    2    1    2    0    0 -0.28682641007E+02  0.11312114533E+03 -0.69061720485E+03  0.71147013461E+03  0.12497416287E+03 0.  0.
          5    1    3    3  502    0 -0.73411682282E+01 -0.26004431663E+02 -0.72546229204E+02  0.77557517939E+02  0.47000000000E+01 0.  1.
         -5    1    3    3    0  502 -0.21341472779E+02  0.13912557699E+03 -0.61807097565E+03  0.63391261667E+03  0.47000000000E+01 0.  1.
        -11    1    1    2    0    0  0.59896096157E+02 -0.58253127469E+02 -0.11558617904E+03  0.14262234741E+03  0.00000000000E+00 0. -1.
         11    1    1    2    0    0 -0.31213455150E+02 -0.54868017862E+02 -0.10953249647E+03  0.12642051633E+03  0.00000000000E+00 0.  1.
<mgrwt>
<rscale>  0 0.16474031E+03</rscale>
<asrwt>0</asrwt>
<pdfrwt beam="2">  1        2 0.14586527E+00 0.17099014E+03</pdfrwt>
<pdfrwt beam="1">  1       -2 0.49828564E-02 0.17099014E+03</pdfrwt>
<totfact> 0.54709891E+03</totfact>
</mgrwt>
</event>
<event>
 7    1  0.5928109E-006  0.1710621E+03  0.7546771E-02  0.1183841E+00
          2   -1    0    0  501    0  0.00000000000E+00  0.00000000000E+00  0.32189270695E+04  0.32189270695E+04  0.00000000000E+00 0. -1.
         -2   -1    0    0    0  501 -0.00000000000E+00 -0.00000000000E+00 -0.16011630654E+02  0.16011630654E+02  0.00000000000E+00 0.  1.
         23    2    1    2    0    0  0.25720104334E+02  0.11087388925E+03  0.28200490435E+04  0.28252325295E+04  0.12770158738E+03 0.  0.
          5    1    3    3  502    0  0.93619157355E+01  0.13706473809E+03  0.24569312973E+04  0.24607738372E+04  0.47000000000E+01 0. -1.
         -5    1    3    3    0  502  0.16358188598E+02 -0.26190848840E+02  0.36311774613E+03  0.36445869238E+03  0.47000000000E+01 0.  1.
        -11    1    1    2    0    0  0.22253704482E+02 -0.88751705866E+02  0.21318953673E+03  0.23199541208E+03  0.00000000000E+00 0.  1.
         11    1    1    2    0    0 -0.47973808815E+02 -0.22122183388E+02  0.16967685863E+03  0.17771075850E+03  0.00000000000E+00 0. -1.
<mgrwt>
<rscale>  0 0.16437757E+03</rscale>
<asrwt>0</asrwt>
<pdfrwt beam="1">  1        2 0.49521903E+00 0.17106209E+03</pdfrwt>
<pdfrwt beam="2">  1       -2 0.24633304E-02 0.17106209E+03</pdfrwt>
<totfact> 0.89410064E+02</totfact>
</mgrwt>
</event>
<event>
 7    1  0.5928109E-006  0.1366804E+03  0.7546771E-02  0.1229665E+00
         -1   -1    0    0    0  501 -0.00000000000E+00  0.00000000000E+00  0.34218756505E+02  0.34218756505E+02  0.00000000000E+00 0.  1.
          1   -1    0    0  501    0  0.00000000000E+00 -0.00000000000E+00 -0.49200471350E+03  0.49200471350E+03  0.00000000000E+00 0. -1.
         23    2    1    2    0    0  0.26438193315E+02  0.48551274214E+02 -0.34385203865E+03  0.37002129891E+03  0.12500133148E+03 0.  0.
          5    1    3    3  502    0 -0.29406033460E+02  0.34306348397E+02 -0.28087308710E+03  0.28452314739E+03  0.47000000000E+01 0. -1.
         -5    1    3    3    0  502  0.55844226775E+02  0.14244925817E+02 -0.62978951550E+02  0.85498151524E+02  0.47000000000E+01 0. -1.
        -11    1    1    2    0    0 -0.60231879450E+02 -0.33494068312E+02 -0.63964362864E+02  0.94027504650E+02  0.00000000000E+00 0. -1.
         11    1    1    2    0    0  0.33793686135E+02 -0.15057205902E+02 -0.49969555490E+02  0.62174666449E+02  0.00000000000E+00 0.  1.
<mgrwt>
<rscale>  0 0.12852255E+03</rscale>
<asrwt>0</asrwt>
<pdfrwt beam="2">  1        1 0.75693027E-01 0.13668042E+03</pdfrwt>
<pdfrwt beam="1">  1       -1 0.52644245E-02 0.13668042E+03</pdfrwt>
<totfact> 0.71985515E+03</totfact>
</mgrwt>
</event>
<event>
 7    1  0.5928109E-006  0.1279902E+03  0.7546771E-02  0.1245492E+00
          1   -1    0    0  501    0  0.00000000000E+00  0.00000000000E+00  0.39933303553E+03  0.39933303553E+03  0.00000000000E+00 0. -1.
         -1   -1    0    0    0  501 -0.00000000000E+00 -0.00000000000E+00 -0.45648357297E+02  0.45648357297E+02  0.00000000000E+00 0.  1.
         23    2    1    2    0    0 -0.22819868706E+02  0.15395614540E+02  0.32043512873E+03  0.34505095648E+03  0.12499487785E+03 0.  0.
          5    1    3    3  502    0 -0.12817608621E+02  0.60202278099E+02  0.26880359215E+03  0.27580077326E+03  0.47000000000E+01 0.  1.
         -5    1    3    3    0  502 -0.10002260086E+02 -0.44806663559E+02  0.51631536582E+02  0.69250183219E+02  0.47000000000E+01 0.  1.
        -11    1    1    2    0    0  0.55557736392E+02  0.25432108998E+01  0.27889683958E+02  0.62217075357E+02  0.00000000000E+00 0. -1.
         11    1    1    2    0    0 -0.32737867686E+02 -0.17938825440E+02  0.53598655494E+01  0.37713360994E+02  0.00000000000E+00 0.  1.
<mgrwt>
<rscale>  0 0.11855983E+03</rscale>
<asrwt>0</asrwt>
<pdfrwt beam="1">  1        1 0.61435849E-01 0.12799020E+03</pdfrwt>
<pdfrwt beam="2">  1       -1 0.70228245E-02 0.12799020E+03</pdfrwt>
<totfact> 0.60929013E+03</totfact>
</mgrwt>
</event>
<event>
 7    1  0.5928109E-006  0.1319579E+03  0.7546771E-02  0.1239375E+00
         -3   -1    0    0    0  501 -0.00000000000E+00  0.00000000000E+00  0.19303574180E+03  0.19303574180E+03  0.00000000000E+00 0.  1.
          3   -1    0    0  501    0  0.00000000000E+00 -0.00000000000E+00 -0.68746976470E+02  0.68746976470E+02  0.00000000000E+00 0. -1.
         23    2    1    2    0    0  0.53046567613E+01 -0.41951121998E+02  0.58683066059E+02  0.14441810033E+03  0.12499939776E+03 0.  0.
          5    1    3    3  502    0 -0.55700645871E+02 -0.35659361395E+02  0.48318649652E+02  0.82042269043E+02  0.47000000000E+01 0. -1.
         -5    1    3    3    0  502  0.61005302632E+02 -0.62917606030E+01  0.10364416407E+02  0.62375831282E+02  0.47000000000E+01 0. -1.
        -11    1    1    2    0    0 -0.27081356359E+02  0.27672744979E+02 -0.77822969399E+01  0.39493604831E+02  0.00000000000E+00 0. -1.
         11    1    1    2    0    0  0.21776699597E+02  0.14278377019E+02  0.73387996210E+02  0.77871013113E+02  0.00000000000E+00 0.  1.
<mgrwt>
<rscale>  0 0.12228474E+03</rscale>
<asrwt>0</asrwt>
<pdfrwt beam="2">  1        3 0.10576458E-01 0.13195789E+03</pdfrwt>
<pdfrwt beam="1">  1       -3 0.29697806E-01 0.13195789E+03</pdfrwt>
<totfact> 0.16796065E+03</totfact>
</mgrwt>
</event>
<event>
 6    1  0.5928109E-006  0.2040959E+03  0.7546771E-02  0.1164091E+00
         -1   -1    0    0    0  501 -0.00000000000E+00  0.00000000000E+00  0.21578787530E+03  0.21578787530E+03  0.00000000000E+00 0.  1.
          1   -1    0    0  501    0  0.00000000000E+00 -0.00000000000E+00 -0.16422030140E+03  0.16422030140E+03  0.00000000000E+00 0. -1.
          5    1    1    2  502    0 -0.14597722126E+03  0.15234954908E+01 -0.50977638474E+02  0.15470125982E+03  0.47000000000E+01 0. -1.
         -5    1    1    2    0  502  0.50027770354E+02 -0.24282136892E+02 -0.59938069056E+00  0.55810834394E+02  0.47000000000E+01 0.  1.
        -11    1    1    2    0    0  0.36515163127E+02  0.45281551253E+02  0.13687762837E+02  0.59758939696E+02  0.00000000000E+00 0.  1.
         11    1    1    2    0    0  0.59434287783E+02 -0.22522909851E+02  0.89456830227E+02  0.10973714279E+03  0.00000000000E+00 0. -1.
<mgrwt>
<rscale>  0 0.18388908E+03</rscale>
<asrwt>0</asrwt>
<pdfrwt beam="2">  1        1 0.25264662E-01 0.20409594E+03</pdfrwt>
<pdfrwt beam="1">  1       -1 0.33198135E-01 0.20409594E+03</pdfrwt>
<totfact> 0.16054124E+03</totfact>
</mgrwt>
</event>
<event>
 7    1  0.5928109E-006  0.1281490E+03  0.7546771E-02  0.1250236E+00
          2   -1    0    0  501    0  0.00000000000E+00  0.00000000000E+00  0.61220427071E+03  0.61220427071E+03  0.00000000000E+00 0. -1.
         -2   -1    0    0    0  501 -0.00000000000E+00 -0.00000000000E+00 -0.21394192739E+02  0.21394192739E+02  0.00000000000E+00 0.  1.
         23    2    1    2    0    0  0.32761525910E+01  0.28076825625E+02  0.45903862730E+03  0.47659062972E+03  0.12499250245E+03 0.  0.
          5    1    3    3  502    0 -0.86794569003E+01  0.61261890701E+02  0.11462117045E+03  0.13033976730E+03  0.47000000000E+01 0.  1.
         -5    1    3    3    0  502  0.11955609491E+02 -0.33185065076E+02  0.34441745685E+03  0.34625086242E+03  0.47000000000E+01 0.  1.
        -11    1    1    2    0    0  0.38364471212E+01 -0.55870964357E+02  0.96139792984E+02  0.11126159616E+03  0.00000000000E+00 0. -1.
         11    1    1    2    0    0 -0.71125997122E+01  0.27794138732E+02  0.35631657687E+02  0.45746237572E+02  0.00000000000E+00 0.  1.
<mgrwt>
<rscale>  0 0.11577387E+03</rscale>
<asrwt>0</asrwt>
<pdfrwt beam="1">  1        2 0.94185259E-01 0.12814900E+03</pdfrwt>
<pdfrwt beam="2">  1       -2 0.32914147E-02 0.12814900E+03</pdfrwt>
<totfact> 0.17111763E+04</totfact>
</mgrwt>
</event>
<event>
 7    1  0.5928109E-006  0.1321668E+03  0.7546771E-02  0.1237330E+00
          4   -1    0    0  501    0  0.00000000000E+00  0.00000000000E+00  0.26860478743E+02  0.26860478743E+02  0.00000000000E+00 0. -1.
         -4   -1    0    0    0  501 -0.00000000000E+00 -0.00000000000E+00 -0.56137002532E+03  0.56137002532E+03  0.00000000000E+00 0.  1.
         23    2    1    2    0    0 -0.37868444962E+02  0.20468708563E+02 -0.20777137418E+03  0.24624581786E+03  0.12496028061E+03 0.  0.
          5    1    3    3  502    0 -0.52903480779E+02 -0.42008700510E+02 -0.10844463856E+03  0.12785084602E+03  0.47000000000E+01 0.  1.
         -5    1    3    3    0  502  0.15035035817E+02  0.62477409073E+02 -0.99326735623E+02  0.11839497184E+03  0.47000000000E+01 0.  1.
        -11    1    1    2    0    0  0.72815473572E+01 -0.52530401364E+02 -0.13170858745E+03  0.14198456257E+03  0.00000000000E+00 0.  1.
         11    1    1    2    0    0  0.30586897605E+02  0.32061692801E+02 -0.19502958494E+03  0.20000012363E+03  0.00000000000E+00 0. -1.
<mgrwt>
<rscale>  0 0.12356453E+03</rscale>
<asrwt>0</asrwt>
<pdfrwt beam="1">  1        4 0.41323815E-02 0.13216678E+03</pdfrwt>
<pdfrwt beam="2">  1       -4 0.86364615E-01 0.13216678E+03</pdfrwt>
<totfact> 0.64107249E+02</totfact>
</mgrwt>
</event>
<event>
 7    1  0.5928109E-006  0.1931697E+03  0.7546771E-02  0.1159975E+00
          1   -1    0    0  501    0  0.00000000000E+00  0.00000000000E+00  0.33369782853E+02  0.33369782853E+02  0.00000000000E+00 0. -1.
         -1   -1    0    0    0  501 -0.00000000000E+00 -0.00000000000E+00 -0.10152523535E+04  0.10152523535E+04  0.00000000000E+00 0.  1.
         23    2    1    2    0    0  0.52099006760E+02 -0.13774709667E+03 -0.49065658890E+03  0.52731246360E+03  0.12500390749E+03 0.  0.
          5    1    3    3  502    0  0.39493017682E+02  0.60750893355E+01 -0.53708746778E+02  0.67106815128E+02  0.47000000000E+01 0. -1.
         -5    1    3    3    0  502  0.12605989077E+02 -0.14382218600E+03 -0.43694784212E+03  0.46020564847E+03  0.47000000000E+01 0. -1.
        -11    1    1    2    0    0 -0.20799482755E+02  0.14148563412E+03 -0.40344744782E+03  0.42804280896E+03  0.00000000000E+00 0. -1.
         11    1    1    2    0    0 -0.31299524005E+02 -0.37385374566E+01 -0.87778533939E+02  0.93266863814E+02  0.00000000000E+00 0.  1.
<mgrwt>
<rscale>  0 0.18833108E+03</rscale>
<asrwt>0</asrwt>
<pdfrwt beam="1">  1        1 0.51338130E-02 0.19316973E+03</pdfrwt>
<pdfrwt beam="2">  1       -1 0.15619266E+00 0.19316973E+03</pdfrwt>
<totfact> 0.54346716E+02</totfact>
</mgrwt>
</event>
<event>
 7    1  0.5928109E-006  0.2048891E+03  0.7546771E-02  0.1151281E+00
          2   -1    0    0  501    0  0.00000000000E+00  0.00000000000E+00  0.30722070098E+03  0.30722070098E+03  0.00000000000E+00 0. -1.
         -2   -1    0    0    0  501 -0.00000000000E+00 -0.00000000000E+00 -0.13133254962E+03  0.13133254962E+03  0.00000000000E+00 0.  1.
         23    2    1    2    0    0 -0.15643617932E+03 -0.43385434985E+02  0.15716432541E+03  0.25822503351E+03  0.12499987433E+03 0.  0.
          5    1    3    3  502    0  0.72713587304E+01  0.25419583532E+02  0.15440558179E+02  0.30976260614E+02  0.47000000000E+01 0. -1.
         -5    1    3    3    0  502 -0.16370753805E+03 -0.68805018517E+02  0.14172376723E+03  0.22724877290E+03  0.47000000000E+01 0. -1.
        -11    1    1    2    0    0  0.47706818527E+02 -0.52496392472E+00  0.38631635266E+02  0.61389081801E+02  0.00000000000E+00 0. -1.
         11    1    1    2    0    0  0.10872936079E+03  0.43910398910E+02 -0.19907809317E+02  0.11893913528E+03  0.00000000000E+00 0.  1.
<mgrwt>
<rscale>  0 0.19818310E+03</rscale>
<asrwt>0</asrwt>
<pdfrwt beam="1">  1        2 0.47264723E-01 0.20488910E+03</pdfrwt>
<pdfrwt beam="2">  1       -2 0.20205008E-01 0.20488910E+03</pdfrwt>
<totfact> 0.21765923E+03</totfact>
</mgrwt>
</event>
<event>
 7    1  0.5928109E-006  0.1858293E+03  0.7546771E-02  0.1167521E+00
         -1   -1    0    0    0  501 -0.00000000000E+00  0.00000000000E+00  0.51620288809E+02  0.51620288809E+02  0.00000000000E+00 0.  1.
          1   -1    0    0  501    0  0.00000000000E+00 -0.00000000000E+00 -0.59491426856E+03  0.59491426856E+03  0.00000000000E+00 0. -1.
         23    2    1    2    0    0  0.66752898804E+02  0.12021029782E+03 -0.28931424954E+03  0.34385353656E+03  0.12500421761E+03 0.  0.
          5    1    3    3  502    0  0.45245949846E+02 -0.49880285107E+01 -0.14242723717E+03  0.14959841006E+03  0.47000000000E+01 0.  1.
         -5    1    3    3    0  502  0.21506948958E+02  0.12519832633E+03 -0.14688701237E+03  0.19425512650E+03  0.47000000000E+01 0.  1.
        -11    1    1    2    0    0  0.13967664545E+02 -0.50751554087E+02 -0.12357594938E+03  0.13431988371E+03  0.00000000000E+00 0. -1.
         11    1    1    2    0    0 -0.80720563348E+02 -0.69458743731E+02 -0.13040378083E+03  0.16836113710E+03  0.00000000000E+00 0.  1.
<mgrwt>
<rscale>  0 0.18029222E+03</rscale>
<asrwt>0</asrwt>
<pdfrwt beam="2">  1        1 0.91525275E-01 0.18582928E+03</pdfrwt>
<pdfrwt beam="1">  1       -1 0.79415826E-02 0.18582928E+03</pdfrwt>
<totfact> 0.30574352E+03</totfact>
</mgrwt>
</event>
<event>
 7    1  0.5928109E-006  0.1380945E+03  0.7546771E-02  0.1226992E+00
         -1   -1    0    0    0  501 -0.00000000000E+00  0.00000000000E+00  0.68256348926E+02  0.68256348926E+02  0.00000000000E+00 0.  1.
          1   -1    0    0  501    0  0.00000000000E+00 -0.00000000000E+00 -0.27524007867E+03  0.27524007867E+03  0.00000000000E+00 0. -1.
         23    2    1    2    0    0 -0.22222359560E+02 -0.54321733075E+02 -0.18655644585E+03  0.23210642669E+03  0.12500160748E+03 0.  0.
          5    1    3    3  502    0 -0.37849774814E+02 -0.64291446746E+02 -0.19672401841E+03  0.21044815275E+03  0.47000000000E+01 0.  1.
         -5    1    3    3    0  502  0.15627415253E+02  0.99697136711E+01  0.10167572559E+02  0.21658273937E+02  0.47000000000E+01 0.  1.
        -11    1    1    2    0    0  0.44774403953E+02  0.61312482890E+02  0.57495103815E+01  0.76138194601E+02  0.00000000000E+00 0.  1.
         11    1    1    2    0    0 -0.22552044393E+02 -0.69907498149E+01 -0.26176794274E+02  0.35251806304E+02  0.00000000000E+00 0. -1.
<mgrwt>
<rscale>  0 0.13031269E+03</rscale>
<asrwt>0</asrwt>
<pdfrwt beam="2">  1        1 0.42344628E-01 0.13809448E+03</pdfrwt>
<pdfrwt beam="1">  1       -1 0.10500977E-01 0.13809448E+03</pdfrwt>
<totfact> 0.52897043E+03</totfact>
</mgrwt>
</event>
<event>
 7    1  0.5928109E-006  0.1722515E+03  0.7546771E-02  0.1182021E+00
         -1   -1    0    0    0  501 -0.00000000000E+00  0.00000000000E+00  0.28993483167E+03  0.28993483167E+03  0.00000000000E+00 0.  1.
          1   -1    0    0  501    0  0.00000000000E+00 -0.00000000000E+00 -0.89014800348E+02  0.89014800348E+02  0.00000000000E+00 0. -1.
         23    2    1    2    0    0 -0.10729674341E+03  0.50318324666E+02  0.10016386241E+03  0.19925703869E+03  0.12500417269E+03 0.  0.
          5    1    3    3  502    0  0.18124321088E+02  0.19846145190E+00 -0.13159129644E+02  0.22886308021E+02  0.47000000000E+01 0.  1.
         -5    1    3    3    0  502 -0.12542106450E+03  0.50119863214E+02  0.11332299206E+03  0.17637073067E+03  0.47000000000E+01 0.  1.
        -11    1    1    2    0    0  0.12155765787E+03 -0.35345633804E+02  0.76884570393E+02  0.14811082060E+03  0.00000000000E+00 0. -1.
         11    1    1    2    0    0 -0.14260914453E+02 -0.14972690862E+02  0.23871598513E+02  0.31581772722E+02  0.00000000000E+00 0.  1.
<mgrwt>
<rscale>  0 0.16605944E+03</rscale>
<asrwt>0</asrwt>
<pdfrwt beam="2">  1        1 0.13694585E-01 0.17225147E+03</pdfrwt>
<pdfrwt beam="1">  1       -1 0.44605358E-01 0.17225147E+03</pdfrwt>
<totfact> 0.20931305E+03</totfact>
</mgrwt>
</event>
<event>
 7    1  0.5928109E-006  0.1394170E+03  0.7546771E-02  0.1228529E+00
         -3   -1    0    0    0  501 -0.00000000000E+00  0.00000000000E+00  0.10965268168E+03  0.10965268168E+03  0.00000000000E+00 0.  1.
          3   -1    0    0  501    0  0.00000000000E+00 -0.00000000000E+00 -0.13448833059E+03  0.13448833059E+03  0.00000000000E+00 0. -1.
         23    2    1    2    0    0  0.40972573401E+02  0.46168144030E+02 -0.21014191181E+02  0.14099182235E+03  0.12500739355E+03 0.  0.
          5    1    3    3  502    0 -0.52386602271E+01  0.29741790368E+02 -0.66971769367E+02  0.73616068541E+02  0.47000000000E+01 0.  1.
         -5    1    3    3    0  502  0.46211233628E+02  0.16426353662E+02  0.45957578185E+02  0.67375753805E+02  0.47000000000E+01 0.  1.
        -11    1    1    2    0    0 -0.38336668049E+02  0.15133627672E+02 -0.65365934987E+01  0.41730730381E+02  0.00000000000E+00 0.  1.
         11    1    1    2    0    0 -0.26359053525E+01 -0.61301771702E+02  0.27151357722E+01  0.61418459547E+02  0.00000000000E+00 0. -1.
<mgrwt>
<rscale>  0 0.12927921E+03</rscale>
<asrwt>0</asrwt>
<pdfrwt beam="2">  1        3 0.20690512E-01 0.13941699E+03</pdfrwt>
<pdfrwt beam="1">  1       -3 0.16869643E-01 0.13941699E+03</pdfrwt>
<totfact> 0.14766655E+03</totfact>
</mgrwt>
</event>
<event>
 7    1  0.5928109E-006  0.2593871E+03  0.7546771E-02  0.1110657E+00
          2   -1    0    0  501    0  0.00000000000E+00  0.00000000000E+00  0.26968629232E+03  0.26968629232E+03  0.00000000000E+00 0. -1.
         -2   -1    0    0    0  501 -0.00000000000E+00 -0.00000000000E+00 -0.32871933049E+03  0.32871933049E+03  0.00000000000E+00 0.  1.
         23    2    1    2    0    0 -0.12330371784E+03 -0.19093055358E+03  0.13301593874E+03  0.29150458253E+03  0.12499359406E+03 0.  0.
          5    1    3    3  502    0 -0.99435023255E+02 -0.43480002801E+02  0.41615991304E+02  0.11632633075E+03  0.47000000000E+01 0.  1.
         -5    1    3    3    0  502 -0.23868694581E+02 -0.14745055078E+03  0.91399947437E+02  0.17517825178E+03  0.47000000000E+01 0.  1.
        -11    1    1    2    0    0 -0.12997823001E-01  0.50876937217E+02 -0.26109809370E+02  0.57185531867E+02  0.00000000000E+00 0. -1.
         11    1    1    2    0    0  0.12331671566E+03  0.14005361637E+03 -0.16593916753E+03  0.24971550841E+03  0.00000000000E+00 0.  1.
<mgrwt>
<rscale>  0 0.25423527E+03</rscale>
<asrwt>0</asrwt>
<pdfrwt beam="1">  1        2 0.41490199E-01 0.25938713E+03</pdfrwt>
<pdfrwt beam="2">  1       -2 0.50572204E-01 0.25938713E+03</pdfrwt>
<totfact> 0.46299787E+02</totfact>
</mgrwt>
</event>
<event>
 7    1  0.5928109E-006  0.1490124E+03  0.7546771E-02  0.1210690E+00
          3   -1    0    0  501    0  0.00000000000E+00  0.00000000000E+00  0.23294115045E+03  0.23294115045E+03  0.00000000000E+00 0. -1.
         -3   -1    0    0    0  501 -0.00000000000E+00 -0.00000000000E+00 -0.80537324575E+02  0.80537324575E+02  0.00000000000E+00 0.  1.
         23    2    1    2    0    0  0.80700924254E+02 -0.81356050859E+01  0.10278058263E+03  0.18102082872E+03  0.12500346003E+03 0.  0.
          5    1    3    3  502    0  0.66304301475E+02 -0.10623250030E+02 -0.92474319615E+01  0.67946440916E+02  0.47000000000E+01 0. -1.
         -5    1    3    3    0  502  0.14396622779E+02  0.24876449436E+01  0.11202801459E+03  0.11307438781E+03  0.47000000000E+01 0. -1.
        -11    1    1    2    0    0 -0.82255992798E+02  0.18612006319E+02  0.27260950768E+01  0.84379421217E+02  0.00000000000E+00 0.  1.
         11    1    1    2    0    0  0.15550685448E+01 -0.10476401233E+02  0.46897148168E+02  0.48078225085E+02  0.00000000000E+00 0. -1.
<mgrwt>
<rscale>  0 0.14197967E+03</rscale>
<asrwt>0</asrwt>
<pdfrwt beam="1">  1        3 0.35837100E-01 0.14901239E+03</pdfrwt>
<pdfrwt beam="2">  1       -3 0.12390358E-01 0.14901239E+03</pdfrwt>
<totfact> 0.92484080E+02</totfact>
</mgrwt>
</event>
<event>
 7    1  0.5928109E-006  0.1335879E+03  0.7546771E-02  0.1235130E+00
         -2   -1    0    0    0  501 -0.00000000000E+00  0.00000000000E+00  0.81052768796E+02  0.81052768796E+02  0.00000000000E+00 0.  1.
          2   -1    0    0  501    0  0.00000000000E+00 -0.00000000000E+00 -0.18289027334E+03  0.18289027334E+03  0.00000000000E+00 0. -1.
         23    2    1    2    0    0 -0.44901365214E+02 -0.14288414897E+02 -0.89775192941E+02  0.16095123860E+03  0.12500169815E+03 0.  0.
          5    1    3    3  502    0 -0.38076741025E+02 -0.68613372386E+02 -0.54315868269E+02  0.95550701845E+02  0.47000000000E+01 0.  1.
         -5    1    3    3    0  502 -0.68246241881E+01  0.54324957489E+02 -0.35459324672E+02  0.65400536754E+02  0.47000000000E+01 0.  1.
        -11    1    1    2    0    0  0.31825425049E+02 -0.15669248566E+02 -0.44521760831E+02  0.56926006514E+02  0.00000000000E+00 0. -1.
         11    1    1    2    0    0  0.13075940165E+02  0.29957663463E+02  0.32459449227E+02  0.46065797024E+02  0.00000000000E+00 0.  1.
<mgrwt>
<rscale>  0 0.12496146E+03</rscale>
<asrwt>0</asrwt>
<pdfrwt beam="2">  1        2 0.28136965E-01 0.13358786E+03</pdfrwt>
<pdfrwt beam="1">  1       -2 0.12469657E-01 0.13358786E+03</pdfrwt>
<totfact> 0.82646292E+03</totfact>
</mgrwt>
</event>
<event>
 7    1  0.5928109E-006  0.1399420E+03  0.7546771E-02  0.1230125E+00
         -1   -1    0    0    0  501 -0.00000000000E+00  0.00000000000E+00  0.18785546367E+03  0.18785546367E+03  0.00000000000E+00 0.  1.
          1   -1    0    0  501    0  0.00000000000E+00 -0.00000000000E+00 -0.76480639397E+02  0.76480639397E+02  0.00000000000E+00 0. -1.
         23    2    1    2    0    0 -0.38475302313E+02  0.49789650327E+02  0.78094387832E+02  0.16025763758E+03  0.12499767528E+03 0.  0.
          5    1    3    3  502    0  0.42474572279E+02  0.17889250404E+02  0.51239966858E+02  0.69077773371E+02  0.47000000000E+01 0.  1.
         -5    1    3    3    0  502 -0.80949874592E+02  0.31900399923E+02  0.26854420974E+02  0.91179864211E+02  0.47000000000E+01 0.  1.
        -11    1    1    2    0    0  0.86257314475E+01 -0.61219204662E+02  0.61051882496E+01  0.62124613367E+02  0.00000000000E+00 0.  1.
         11    1    1    2    0    0  0.29849570866E+02  0.11429554335E+02  0.27175248191E+02  0.41953852116E+02  0.00000000000E+00 0. -1.
<mgrwt>
<rscale>  0 0.12821709E+03</rscale>
<asrwt>0</asrwt>
<pdfrwt beam="2">  1        1 0.11766252E-01 0.13994205E+03</pdfrwt>
<pdfrwt beam="1">  1       -1 0.28900840E-01 0.13994205E+03</pdfrwt>
<totfact> 0.53560958E+03</totfact>
</mgrwt>
</event>
<event>
 7    1  0.5928109E-006  0.2312454E+03  0.7546771E-02  0.1128796E+00
         -1   -1    0    0    0  501 -0.00000000000E+00  0.00000000000E+00  0.48238345367E+03  0.48238345367E+03  0.00000000000E+00 0. -1.
          1   -1    0    0  501    0  0.00000000000E+00 -0.00000000000E+00 -0.20889026249E+03  0.20889026249E+03  0.00000000000E+00 0.  1.
         23    2    1    2    0    0  0.17737969029E+03 -0.78228936264E+02 -0.10672217120E+03  0.25468425915E+03  0.12606002156E+03 0.  0.
          5    1    3    3  502    0  0.60545288887E+02  0.55709044980E+01 -0.91589038577E+02  0.11003367199E+03  0.47000000000E+01 0. -1.
         -5    1    3    3    0  502  0.11683440140E+03 -0.83799840762E+02 -0.15133132620E+02  0.14465058716E+03  0.47000000000E+01 0. -1.
        -11    1    1    2    0    0 -0.52397848715E+02  0.57900732479E+02  0.85337859896E+02  0.11567445571E+03  0.00000000000E+00 0. -1.
         11    1    1    2    0    0 -0.12498184158E+03  0.20328203785E+02  0.29487750248E+03  0.32091500130E+03  0.00000000000E+00 0.  1.
<mgrwt>
<rscale>  0 0.22696276E+03</rscale>
<asrwt>0</asrwt>
<pdfrwt beam="2">  1        1 0.32136964E-01 0.23124543E+03</pdfrwt>
<pdfrwt beam="1">  1       -1 0.74212839E-01 0.23124543E+03</pdfrwt>
<totfact> 0.26669848E+02</totfact>
</mgrwt>
</event>
<event>
 7    1  0.5928109E-006  0.1283024E+03  0.7546771E-02  0.1256584E+00
         -1   -1    0    0    0  501 -0.00000000000E+00  0.00000000000E+00  0.33080243184E+02  0.33080243184E+02  0.00000000000E+00 0.  1.
          1   -1    0    0  501    0  0.00000000000E+00 -0.00000000000E+00 -0.31820135478E+03  0.31820135478E+03  0.00000000000E+00 0. -1.
         23    2    1    2    0    0 -0.17313149249E+02 -0.23173039171E+02 -0.20233851581E+03  0.23958795535E+03  0.12499911394E+03 0.  0.
          5    1    3    3  502    0 -0.69995424755E+02 -0.19408965119E+02 -0.13965069693E+03  0.15748166422E+03  0.47000000000E+01 0.  1.
         -5    1    3    3    0  502  0.52682275506E+02 -0.37640740514E+01 -0.62687818878E+02  0.82106291121E+02  0.47000000000E+01 0.  1.
        -11    1    1    2    0    0  0.35987504928E+02 -0.73633612931E+01 -0.56069023269E+02  0.67030254145E+02  0.00000000000E+00 0. -1.
         11    1    1    2    0    0 -0.18674355679E+02  0.30536400464E+02 -0.26713572522E+02  0.44663388477E+02  0.00000000000E+00 0.  1.
<mgrwt>
<rscale>  0 0.11218052E+03</rscale>
<asrwt>0</asrwt>
<pdfrwt beam="2">  1        1 0.48954052E-01 0.12830243E+03</pdfrwt>
<pdfrwt beam="1">  1       -1 0.50892684E-02 0.12830243E+03</pdfrwt>
<totfact> 0.13058511E+04</totfact>
</mgrwt>
</event>
<event>
 7    1  0.5928109E-006  0.1399479E+03  0.7546771E-02  0.1225228E+00
          2   -1    0    0  501    0  0.00000000000E+00  0.00000000000E+00  0.23072677894E+03  0.23072677894E+03  0.00000000000E+00 0.  1.
         -2   -1    0    0    0  501 -0.00000000000E+00 -0.00000000000E+00 -0.75456364805E+02  0.75456364805E+02  0.00000000000E+00 0. -1.
         23    2    1    2    0    0  0.62164221786E+02  0.97937652662E+01  0.13640528775E+03  0.19542726659E+03  0.12500042277E+03 0.  0.
          5    1    3    3  502    0  0.26934518495E+02 -0.54781389948E+02  0.88149926102E+02  0.10732645733E+03  0.47000000000E+01 0. -1.
         -5    1    3    3    0  502  0.35229703290E+02  0.64575155214E+02  0.48255361652E+02  0.88100809265E+02  0.47000000000E+01 0. -1.
        -11    1    1    2    0    0 -0.49665097935E+02 -0.31816966446E+01 -0.31195921948E+02  0.58736110635E+02  0.00000000000E+00 0. -1.
         11    1    1    2    0    0 -0.12499123851E+02 -0.66120686216E+01  0.50061048323E+02  0.52019766510E+02  0.00000000000E+00 0.  1.
<mgrwt>
<rscale>  0 0.13151285E+03</rscale>
<asrwt>0</asrwt>
<pdfrwt beam="1">  1        2 0.35496427E-01 0.13994790E+03</pdfrwt>
<pdfrwt beam="2">  1       -2 0.11608672E-01 0.13994790E+03</pdfrwt>
<totfact> 0.72338019E+03</totfact>
</mgrwt>
</event>
<event>
 7    1  0.5928109E-006  0.1626632E+03  0.7546771E-02  0.1191027E+00
          1   -1    0    0  501    0  0.00000000000E+00  0.00000000000E+00  0.30078015664E+03  0.30078015664E+03  0.00000000000E+00 0. -1.
         -1   -1    0    0    0  501 -0.00000000000E+00 -0.00000000000E+00 -0.81450563844E+02  0.81450563844E+02  0.00000000000E+00 0.  1.
         23    2    1    2    0    0  0.10047946956E+03 -0.27146159893E+02  0.79458618824E+02  0.18103314094E+03  0.12500515275E+03 0.  0.
          5    1    3    3  502    0 -0.10454535185E+02  0.11883603636E+01  0.64438841679E+02  0.65461162709E+02  0.47000000000E+01 0.  1.
         -5    1    3    3    0  502  0.11093400474E+03 -0.28334520256E+02  0.15019777145E+02  0.11557197823E+03  0.47000000000E+01 0.  1.
        -11    1    1    2    0    0 -0.24333111646E+01  0.31673866977E+02  0.18301922069E+01  0.31819875173E+02  0.00000000000E+00 0.  1.
         11    1    1    2    0    0 -0.98046158394E+02 -0.45277070844E+01  0.13804078176E+03  0.16937770437E+03  0.00000000000E+00 0. -1.
<mgrwt>
<rscale>  0 0.15795318E+03</rscale>
<asrwt>0</asrwt>
<pdfrwt beam="1">  1        1 0.46273870E-01 0.16266323E+03</pdfrwt>
<pdfrwt beam="2">  1       -1 0.12530856E-01 0.16266323E+03</pdfrwt>
<totfact> 0.36388802E+03</totfact>
</mgrwt>
</event>
<event>
 7    1  0.5928109E-006  0.1303476E+03  0.7546771E-02  0.1240875E+00
          2   -1    0    0  501    0  0.00000000000E+00  0.00000000000E+00  0.11761441911E+04  0.11761441911E+04  0.00000000000E+00 0. -1.
         -2   -1    0    0    0  501 -0.00000000000E+00 -0.00000000000E+00 -0.14887863210E+02  0.14887863210E+02  0.00000000000E+00 0.  1.
         23    2    1    2    0    0  0.12488646460E+02  0.34781398306E+02  0.94096838357E+03  0.94995368430E+03  0.12499916596E+03 0.  0.
          5    1    3    3  502    0 -0.13338577838E+02 -0.18937266152E+02  0.73759494428E+03  0.73797352902E+03  0.47000000000E+01 0. -1.
         -5    1    3    3    0  502  0.25827224298E+02  0.53718664458E+02  0.20337343929E+03  0.21198015529E+03  0.47000000000E+01 0. -1.
        -11    1    1    2    0    0 -0.69702518291E+01 -0.61279392765E+02  0.19311860652E+03  0.20272775975E+03  0.00000000000E+00 0.  1.
         11    1    1    2    0    0 -0.55183946313E+01  0.26497994459E+02  0.27169337760E+02  0.38350610216E+02  0.00000000000E+00 0. -1.
<mgrwt>
<rscale>  0 0.12135733E+03</rscale>
<asrwt>0</asrwt>
<pdfrwt beam="1">  1        2 0.18094519E+00 0.13034763E+03</pdfrwt>
<pdfrwt beam="2">  1       -2 0.22904414E-02 0.13034763E+03</pdfrwt>
<totfact> 0.12559754E+04</totfact>
</mgrwt>
</event>
<event>
 7    1  0.5928109E-006  0.1287549E+03  0.7546771E-02  0.1243668E+00
          2   -1    0    0  501    0  0.00000000000E+00  0.00000000000E+00  0.28421280211E+03  0.28421280211E+03  0.00000000000E+00 0. -1.
         -2   -1    0    0    0  501 -0.00000000000E+00 -0.00000000000E+00 -0.51972469348E+02  0.51972469348E+02  0.00000000000E+00 0.  1.
         23    2    1    2    0    0 -0.23817357668E+02  0.19438638346E+02  0.19395645173E+03  0.23280234974E+03  0.12503080295E+03 0.  0.
          5    1    3    3  502    0 -0.25394940278E+02 -0.47836239672E+02  0.12513750995E+03  0.13643568160E+03  0.47000000000E+01 0.  1.
         -5    1    3    3    0  502  0.15775826094E+01  0.67274878017E+02  0.68818941781E+02  0.96366668133E+02  0.47000000000E+01 0.  1.
        -11    1    1    2    0    0 -0.23211468660E+02 -0.38748730723E+02  0.16826615231E+02  0.48201362949E+02  0.00000000000E+00 0. -1.
         11    1    1    2    0    0  0.47028826328E+02  0.19310092377E+02  0.21457265801E+02  0.55181558777E+02  0.00000000000E+00 0.  1.
<mgrwt>
<rscale>  0 0.11965427E+03</rscale>
<asrwt>0</asrwt>
<pdfrwt beam="1">  1        2 0.43725045E-01 0.12875492E+03</pdfrwt>
<pdfrwt beam="2">  1       -2 0.79957647E-02 0.12875492E+03</pdfrwt>
<totfact> 0.10329328E+04</totfact>
</mgrwt>
</event>
<event>
 7    1  0.5928109E-006  0.2633877E+03  0.7546771E-02  0.1107363E+00
         -1   -1    0    0    0  501 -0.00000000000E+00  0.00000000000E+00  0.20698195547E+03  0.20698195547E+03  0.00000000000E+00 0.  1.
          1   -1    0    0  501    0  0.00000000000E+00 -0.00000000000E+00 -0.38162281677E+03  0.38162281677E+03  0.00000000000E+00 0. -1.
         23    2    1    2    0    0  0.10175239948E+03  0.20835728225E+03 -0.21071984943E+03  0.33730691605E+03  0.12492714998E+03 0.  0.
          5    1    3    3  502    0  0.80338409580E+02  0.16112192993E+03 -0.22009834862E+03  0.28439393352E+03  0.47000000000E+01 0. -1.
         -5    1    3    3    0  502  0.21413989904E+02  0.47235352328E+02  0.93784991928E+01  0.52912982530E+02  0.47000000000E+01 0. -1.
        -11    1    1    2    0    0  0.18913913775E+00 -0.78146050815E+02 -0.12043541421E+02  0.79068880867E+02  0.00000000000E+00 0. -1.
         11    1    1    2    0    0 -0.10194153862E+03 -0.13021123144E+03  0.48122529546E+02  0.17222897532E+03  0.00000000000E+00 0.  1.
<mgrwt>
<rscale>  0 0.25963497E+03</rscale>
<asrwt>0</asrwt>
<pdfrwt beam="2">  1        1 0.58711202E-01 0.26338774E+03</pdfrwt>
<pdfrwt beam="1">  1       -1 0.31843378E-01 0.26338774E+03</pdfrwt>
<totfact> 0.59632711E+02</totfact>
</mgrwt>
</event>
<event>
 7    1  0.5928109E-006  0.1280628E+03  0.7546771E-02  0.1245090E+00
         -1   -1    0    0    0  501 -0.00000000000E+00  0.00000000000E+00  0.93558453007E+01  0.93558453007E+01  0.00000000000E+00 0.  1.
          1   -1    0    0  501    0  0.00000000000E+00 -0.00000000000E+00 -0.15174955191E+04  0.15174955191E+04  0.00000000000E+00 0. -1.
         23    2    1    2    0    0  0.57604942200E+01  0.27237435733E+02 -0.11197734351E+04  0.11270725863E+04  0.12500003073E+03 0.  0.
          5    1    3    3  502    0  0.42804552821E+02 -0.31341060722E+02 -0.33230567174E+03  0.33654664060E+03  0.47000000000E+01 0.  1.
         -5    1    3    3    0  502 -0.37044058601E+02  0.58578496455E+02 -0.78746776338E+03  0.79052594574E+03  0.47000000000E+01 0.  1.
        -11    1    1    2    0    0 -0.23928633932E+02 -0.55834320205E+02 -0.26195599157E+03  0.26890703292E+03  0.00000000000E+00 0. -1.
         11    1    1    2    0    0  0.18168139712E+02  0.28596884472E+02 -0.12641024716E+03  0.13087174519E+03  0.00000000000E+00 0.  1.
<mgrwt>
<rscale>  0 0.11879979E+03</rscale>
<asrwt>0</asrwt>
<pdfrwt beam="2">  1        1 0.23346060E+00 0.12806275E+03</pdfrwt>
<pdfrwt beam="1">  1       -1 0.14393623E-02 0.12806275E+03</pdfrwt>
<totfact> 0.75303100E+03</totfact>
</mgrwt>
</event>
<event>
 7    1  0.6127513E-006  0.1498034E+03  0.7546771E-02  0.1210168E+00
          1   -1    0    0  501    0  0.00000000000E+00  0.00000000000E+00  0.90314036574E+02  0.90314036574E+02  0.00000000000E+00 0. -1.
         -1   -1    0    0    0  501 -0.00000000000E+00 -0.00000000000E+00 -0.22823962487E+03  0.22823962487E+03  0.00000000000E+00 0.  1.
         23    2    1    2    0    0 -0.89547735386E+01 -0.82073324119E+02 -0.24477770444E+02  0.15179007897E+03  0.12499939330E+03 0.  0.
          5    1    3    3  502    0 -0.46658906261E+02 -0.96350314793E+02 -0.28831679341E+02  0.11096752871E+03  0.47000000000E+01 0.  1.
         -5    1    3    3    0  502  0.37704132722E+02  0.14276990674E+02  0.43539088962E+01  0.40822550260E+02  0.47000000000E+01 0.  1.
        -11    1    1    2    0    0 -0.20115541061E+02  0.21240168298E+02 -0.91182179138E+02  0.95759957884E+02  0.00000000000E+00 0.  1.
         11    1    1    2    0    0  0.29070314600E+02  0.60833155821E+02 -0.22265638717E+02  0.71003624594E+02  0.00000000000E+00 0. -1.
<mgrwt>
<rscale>  0 0.14237508E+03</rscale>
<asrwt>0</asrwt>
<pdfrwt beam="1">  1        1 0.13894467E-01 0.14980343E+03</pdfrwt>
<pdfrwt beam="2">  1       -1 0.35113788E-01 0.14980343E+03</pdfrwt>
<totfact> 0.31084789E+03</totfact>
</mgrwt>
</event>
<event>
 7    1  0.5928109E-006  0.1420631E+03  0.7546771E-02  0.1223361E+00
          3   -1    0    0  501    0  0.00000000000E+00  0.00000000000E+00  0.93020134994E+02  0.93020134994E+02  0.00000000000E+00 0. -1.
         -3   -1    0    0    0  501 -0.00000000000E+00 -0.00000000000E+00 -0.17255187885E+03  0.17255187885E+03  0.00000000000E+00 0.  1.
         23    2    1    2    0    0  0.20591285450E+02  0.64282038312E+02 -0.25313161643E+02  0.14430069705E+03  0.12500301409E+03 0.  0.
          5    1    3    3  502    0 -0.16665756762E+01  0.99529667446E+02 -0.23067782159E+02  0.10228951437E+03  0.47000000000E+01 0. -1.
         -5    1    3    3    0  502  0.22257861126E+02 -0.35247629133E+02 -0.22453794846E+01  0.42011182683E+02  0.47000000000E+01 0. -1.
        -11    1    1    2    0    0 -0.38662102566E+02 -0.57070048996E+02 -0.68465665394E+02  0.97156039468E+02  0.00000000000E+00 0.  1.
         11    1    1    2    0    0  0.18070817116E+02 -0.72119893167E+01  0.14247083182E+02  0.24115277323E+02  0.00000000000E+00 0. -1.
<mgrwt>
<rscale>  0 0.13279895E+03</rscale>
<asrwt>0</asrwt>
<pdfrwt beam="1">  1        3 0.14310790E-01 0.14206314E+03</pdfrwt>
<pdfrwt beam="2">  1       -3 0.26546443E-01 0.14206314E+03</pdfrwt>
<totfact> 0.12561753E+03</totfact>
</mgrwt>
</event>
<event>
 7    1  0.5928109E-006  0.2520827E+03  0.7546771E-02  0.1114730E+00
         -2   -1    0    0    0  501 -0.00000000000E+00  0.00000000000E+00  0.39054804306E+03  0.39054804306E+03  0.00000000000E+00 0.  1.
          2   -1    0    0  501    0  0.00000000000E+00 -0.00000000000E+00 -0.15444097281E+03  0.15444097281E+03  0.00000000000E+00 0. -1.
         23    2    1    2    0    0  0.20024708949E+03  0.88435319921E+02  0.87910702723E+02  0.26697187409E+03  0.12500394891E+03 0.  0.
          5    1    3    3  502    0  0.54805181285E+02 -0.12213622689E+02  0.68920091440E+02  0.89021623659E+02  0.47000000000E+01 0. -1.
         -5    1    3    3    0  502  0.14544190820E+03  0.10064894261E+03  0.18990611283E+02  0.17795025043E+03  0.47000000000E+01 0. -1.
        -11    1    1    2    0    0 -0.14873846917E+03 -0.22056880152E+02  0.10619645433E+03  0.18408510284E+03  0.00000000000E+00 0.  1.
         11    1    1    2    0    0 -0.51508620315E+02 -0.66378439769E+02  0.41999913185E+02  0.93932038946E+02  0.00000000000E+00 0. -1.
<mgrwt>
<rscale>  0 0.24775859E+03</rscale>
<asrwt>0</asrwt>
<pdfrwt beam="2">  1        2 0.23760150E-01 0.25208270E+03</pdfrwt>
<pdfrwt beam="1">  1       -2 0.60084314E-01 0.25208270E+03</pdfrwt>
<totfact> 0.60171859E+02</totfact>
</mgrwt>
</event>
<event>
 7    1  0.5928109E-006  0.1606153E+03  0.7546771E-02  0.1194967E+00
         -2   -1    0    0    0  501 -0.00000000000E+00  0.00000000000E+00  0.26394120791E+02  0.26394120791E+02  0.00000000000E+00 0.  1.
          2   -1    0    0  501    0  0.00000000000E+00 -0.00000000000E+00 -0.86577074637E+03  0.86577074637E+03  0.00000000000E+00 0. -1.
         23    2    1    2    0    0 -0.88519577135E+02  0.48334003999E+02 -0.52266797119E+03  0.54678979993E+03  0.12500154286E+03 0.  0.
          5    1    3    3  502    0 -0.10757240473E+03  0.25970833768E+01 -0.30358756473E+03  0.32212740734E+03  0.47000000000E+01 0.  1.
         -5    1    3    3    0  502  0.19052827594E+02  0.45736920622E+02 -0.21908040646E+03  0.22466239259E+03  0.47000000000E+01 0.  1.
        -11    1    1    2    0    0 -0.70595258100E+00 -0.25678934604E+02 -0.14590262868E+02  0.29542881072E+02  0.00000000000E+00 0.  1.
         11    1    1    2    0    0  0.89225529716E+02 -0.22655069394E+02 -0.30211839152E+03  0.31583218617E+03  0.00000000000E+00 0. -1.
<mgrwt>
<rscale>  0 0.15457028E+03</rscale>
<asrwt>0</asrwt>
<pdfrwt beam="2">  1        2 0.13319547E+00 0.16061531E+03</pdfrwt>
<pdfrwt beam="1">  1       -2 0.40606350E-02 0.16061531E+03</pdfrwt>
<totfact> 0.83662784E+03</totfact>
</mgrwt>
</event>
<event>
 7    1  0.5928109E-006  0.1323754E+03  0.7546771E-02  0.1241673E+00
          2   -1    0    0  501    0  0.00000000000E+00  0.00000000000E+00  0.88515831168E+03  0.88515831168E+03  0.00000000000E+00 0. -1.
         -2   -1    0    0    0  501 -0.00000000000E+00 -0.00000000000E+00 -0.17080903087E+02  0.17080903087E+02  0.00000000000E+00 0.  1.
         23    2    1    2    0    0 -0.42273021931E+02  0.10681905569E+02  0.68118009396E+03  0.69392332047E+03  0.12498857067E+03 0.  0.
          5    1    3    3  502    0  0.19772347061E+02  0.28997442827E+02  0.62353298021E+02  0.71706493241E+02  0.47000000000E+01 0. -1.
         -5    1    3    3    0  502 -0.62045368992E+02 -0.18315537258E+02  0.61882679594E+03  0.62221682723E+03  0.47000000000E+01 0. -1.
        -11    1    1    2    0    0  0.34133973770E+02 -0.21055758460E+02  0.19047663581E+03  0.19465308093E+03  0.00000000000E+00 0. -1.
         11    1    1    2    0    0  0.81390481605E+01  0.10373852891E+02 -0.35793211743E+01  0.13662813357E+02  0.00000000000E+00 0.  1.
<mgrwt>
<rscale>  0 0.12086716E+03</rscale>
<asrwt>0</asrwt>
<pdfrwt beam="1">  1        2 0.13617817E+00 0.13237543E+03</pdfrwt>
<pdfrwt beam="2">  1       -2 0.26278319E-02 0.13237543E+03</pdfrwt>
<totfact> 0.15283616E+04</totfact>
</mgrwt>
</event>
<event>
 7    1  0.5928109E-006  0.1428068E+03  0.7546771E-02  0.1218711E+00
          2   -1    0    0  501    0  0.00000000000E+00  0.00000000000E+00  0.10434614183E+04  0.10434614183E+04  0.00000000000E+00 0. -1.
         -2   -1    0    0    0  501 -0.00000000000E+00 -0.00000000000E+00 -0.16342065531E+02  0.16342065531E+02  0.00000000000E+00 0.  1.
         23    2    1    2    0    0  0.54822076909E+02 -0.41700439718E+02  0.59969597317E+03  0.61646496258E+03  0.12509757415E+03 0.  0.
          5    1    3    3  502    0  0.48689801957E+02 -0.82104352932E+02  0.49165405758E+03  0.50085688966E+03  0.47000000000E+01 0. -1.
         -5    1    3    3    0  502  0.61322749513E+01  0.40403913214E+02  0.10804191559E+03  0.11560807292E+03  0.47000000000E+01 0. -1.
        -11    1    1    2    0    0 -0.72347957603E+01 -0.28544482564E+02  0.69212568831E+02  0.75216417349E+02  0.00000000000E+00 0.  1.
         11    1    1    2    0    0 -0.47587281148E+02  0.70244922282E+02  0.35821081082E+03  0.36812210395E+03  0.00000000000E+00 0. -1.
<mgrwt>
<rscale>  0 0.13607410E+03</rscale>
<asrwt>0</asrwt>
<pdfrwt beam="1">  1        2 0.16053247E+00 0.14280683E+03</pdfrwt>
<pdfrwt beam="2">  1       -2 0.25141647E-02 0.14280683E+03</pdfrwt>
<totfact> 0.13120788E+04</totfact>
</mgrwt>
</event>
<event>
 7    1  0.5928109E-006  0.2209403E+03  0.7546771E-02  0.1136662E+00
         -2   -1    0    0    0  501 -0.00000000000E+00  0.00000000000E+00  0.23398067415E+03  0.23398067415E+03  0.00000000000E+00 0.  1.
          2   -1    0    0  501    0  0.00000000000E+00 -0.00000000000E+00 -0.19798061459E+03  0.19798061459E+03  0.00000000000E+00 0. -1.
         23    2    1    2    0    0  0.11527037972E+03  0.14107742504E+03 -0.18653021447E+02  0.22172626089E+03  0.12499799704E+03 0.  0.
          5    1    3    3  502    0  0.71154390908E+02  0.54422147001E+02  0.49909606256E+02  0.10265367128E+03  0.47000000000E+01 0.  1.
         -5    1    3    3    0  502  0.44115988808E+02  0.86655278041E+02 -0.68562627703E+02  0.11907258962E+03  0.47000000000E+01 0.  1.
        -11    1    1    2    0    0 -0.90977579438E+02 -0.75007718774E+02  0.71442556789E+02  0.13786630029E+03  0.00000000000E+00 0.  1.
         11    1    1    2    0    0 -0.24292800278E+02 -0.66069706268E+02 -0.16789475781E+02  0.72368727560E+02  0.00000000000E+00 0. -1.
<mgrwt>
<rscale>  0 0.21631362E+03</rscale>
<asrwt>0</asrwt>
<pdfrwt beam="2">  1        2 0.30458556E-01 0.22094026E+03</pdfrwt>
<pdfrwt beam="1">  1       -2 0.35997027E-01 0.22094026E+03</pdfrwt>
<totfact> 0.12504656E+03</totfact>
</mgrwt>
</event>
<event>
 7    1  0.5928109E-006  0.1821874E+03  0.7546771E-02  0.1170910E+00
         -2   -1    0    0    0  501 -0.00000000000E+00  0.00000000000E+00  0.78009336273E+02  0.78009336273E+02  0.00000000000E+00 0.  1.
          2   -1    0    0  501    0  0.00000000000E+00 -0.00000000000E+00 -0.39753234619E+03  0.39753234619E+03  0.00000000000E+00 0. -1.
         23    2    1    2    0    0  0.27413449476E+01  0.13249941470E+03 -0.22019588815E+03  0.28579449073E+03  0.12501460675E+03 0.  0.
          5    1    3    3  502    0 -0.86416890097E+01 -0.15982187230E+02 -0.76612192878E+02  0.78877292012E+02  0.47000000000E+01 0.  1.
         -5    1    3    3    0  502  0.11383033957E+02  0.14848160193E+03 -0.14358369527E+03  0.20691719871E+03  0.47000000000E+01 0.  1.
        -11    1    1    2    0    0  0.36354817679E+02 -0.79130845835E+02 -0.85743919634E+02  0.12221040580E+03  0.00000000000E+00 0. -1.
         11    1    1    2    0    0 -0.39096162627E+02 -0.53368568869E+02 -0.13583202134E+02  0.67536785943E+02  0.00000000000E+00 0.  1.
<mgrwt>
<rscale>  0 0.17682681E+03</rscale>
<asrwt>0</asrwt>
<pdfrwt beam="2">  1        2 0.61158822E-01 0.18218744E+03</pdfrwt>
<pdfrwt beam="1">  1       -2 0.12001436E-01 0.18218744E+03</pdfrwt>
<totfact> 0.38913318E+03</totfact>
</mgrwt>
</event>
<event>
 7    1  0.5928109E-006  0.1280290E+03  0.7546771E-02  0.1245414E+00
          3   -1    0    0  501    0  0.00000000000E+00  0.00000000000E+00  0.38130539191E+03  0.38130539191E+03  0.00000000000E+00 0. -1.
         -3   -1    0    0    0  501 -0.00000000000E+00 -0.00000000000E+00 -0.32422058679E+02  0.32422058679E+02  0.00000000000E+00 0.  1.
         23    2    1    2    0    0 -0.14354388234E+02 -0.23666904376E+02  0.20507960323E+03  0.24176242255E+03  0.12500101788E+03 0.  0.
          5    1    3    3  502    0 -0.43114098297E+02  0.22428287452E+02  0.17011216509E+03  0.17698048554E+03  0.47000000000E+01 0. -1.
         -5    1    3    3    0  502  0.28759710062E+02 -0.46095191828E+02  0.34967438144E+02  0.64781937011E+02  0.47000000000E+01 0. -1.
        -11    1    1    2    0    0 -0.25278877923E+02 -0.17925766788E+02  0.81612404409E+02  0.87297991600E+02  0.00000000000E+00 0. -1.
         11    1    1    2    0    0  0.39633266158E+02  0.41592671164E+02  0.62191325589E+02  0.84667036439E+02  0.00000000000E+00 0.  1.
<mgrwt>
<rscale>  0 0.11860664E+03</rscale>
<asrwt>0</asrwt>
<pdfrwt beam="1">  1        3 0.58662365E-01 0.12802900E+03</pdfrwt>
<pdfrwt beam="2">  1       -3 0.49880093E-02 0.12802900E+03</pdfrwt>
<totfact> 0.15035715E+03</totfact>
</mgrwt>
</event>
<event>
 7    1  0.5928109E-006  0.1640142E+03  0.7546771E-02  0.1191348E+00
         -2   -1    0    0    0  501 -0.00000000000E+00  0.00000000000E+00  0.29650473710E+03  0.29650473710E+03  0.00000000000E+00 0.  1.
          2   -1    0    0  501    0  0.00000000000E+00 -0.00000000000E+00 -0.78183717422E+02  0.78183717422E+02  0.00000000000E+00 0. -1.
         23    2    1    2    0    0 -0.15470610611E+02  0.10505244042E+03  0.10804408767E+03  0.19640313372E+03  0.12500124409E+03 0.  0.
          5    1    3    3  502    0 -0.41690694798E+02 -0.12236017647E+02  0.30630345668E+02  0.53367988873E+02  0.47000000000E+01 0.  1.
         -5    1    3    3    0  502  0.26220084187E+02  0.11728845807E+03  0.77413742005E+02  0.14303514485E+03  0.47000000000E+01 0.  1.
        -11    1    1    2    0    0 -0.35819491940E+02 -0.42967926679E+02  0.65524416485E+02  0.86155254521E+02  0.00000000000E+00 0.  1.
         11    1    1    2    0    0  0.51290102550E+02 -0.62084513744E+02  0.44752515516E+02  0.92130066273E+02  0.00000000000E+00 0. -1.
<mgrwt>
<rscale>  0 0.15767447E+03</rscale>
<asrwt>0</asrwt>
<pdfrwt beam="2">  1        2 0.12028264E-01 0.16401423E+03</pdfrwt>
<pdfrwt beam="1">  1       -2 0.45616113E-01 0.16401423E+03</pdfrwt>
<totfact> 0.22900978E+03</totfact>
</mgrwt>
</event>
<event>
 7    1  0.5928109E-006  0.1434246E+03  0.7546771E-02  0.1233832E+00
         -2   -1    0    0    0  501 -0.00000000000E+00  0.00000000000E+00  0.51873936745E+02  0.51873936745E+02  0.00000000000E+00 0. -1.
          2   -1    0    0  501    0  0.00000000000E+00 -0.00000000000E+00 -0.26405835532E+03  0.26405835532E+03  0.00000000000E+00 0.  1.
         23    2    1    2    0    0  0.40148164215E+02 -0.57739427342E+02 -0.16573846264E+03  0.21917998784E+03  0.12499965005E+03 0.  0.
          5    1    3    3  502    0 -0.22423667234E+02 -0.64408498701E+02 -0.12943954530E+03  0.14638292744E+03  0.47000000000E+01 0. -1.
         -5    1    3    3    0  502  0.62571831449E+02  0.66690713592E+01 -0.36298917341E+02  0.72797060406E+02  0.47000000000E+01 0. -1.
        -11    1    1    2    0    0 -0.13674959069E+02  0.15461548465E+02  0.86938046005E+01  0.22397460233E+02  0.00000000000E+00 0. -1.
         11    1    1    2    0    0 -0.26473205146E+02  0.42277878877E+02 -0.55139760537E+02  0.74354843992E+02  0.00000000000E+00 0.  1.
<mgrwt>
<rscale>  0 0.12579486E+03</rscale>
<asrwt>0</asrwt>
<pdfrwt beam="2">  1        2 0.40624363E-01 0.14342465E+03</pdfrwt>
<pdfrwt beam="1">  1       -2 0.79806054E-02 0.14342465E+03</pdfrwt>
<totfact> 0.11293451E+04</totfact>
</mgrwt>
</event>
<event>
 6    1  0.5928109E-006  0.2786917E+03  0.7546771E-02  0.1121701E+00
         -1   -1    0    0    0  501 -0.00000000000E+00  0.00000000000E+00  0.95635482520E+02  0.95635482520E+02  0.00000000000E+00 0.  1.
          1   -1    0    0  501    0  0.00000000000E+00 -0.00000000000E+00 -0.18794789521E+04  0.18794789521E+04  0.00000000000E+00 0. -1.
          5    1    1    2  502    0  0.18672656530E+03  0.44123525856E+01 -0.12642091064E+04  0.12779409352E+04  0.47000000000E+01 0. -1.
         -5    1    1    2    0  502 -0.82003115381E+02  0.39942046236E+02 -0.54172457789E+03  0.54937008134E+03  0.47000000000E+01 0.  1.
        -11    1    1    2    0    0 -0.12068090423E+03 -0.40621067273E+02  0.10571754084E+02  0.12777211643E+03  0.00000000000E+00 0.  1.
         11    1    1    2    0    0  0.15957454311E+02 -0.37333315481E+01  0.11518460619E+02  0.20031301694E+02  0.00000000000E+00 0. -1.
<mgrwt>
<rscale>  0 0.23715802E+03</rscale>
<asrwt>0</asrwt>
<pdfrwt beam="2">  1        1 0.28915058E+00 0.27869173E+03</pdfrwt>
<pdfrwt beam="1">  1       -1 0.14713153E-01 0.27869173E+03</pdfrwt>
<totfact> 0.13433423E+02</totfact>
</mgrwt>
</event>
<event>
 7    1  0.5928109E-006  0.1593618E+03  0.7546771E-02  0.1197146E+00
          1   -1    0    0  501    0  0.00000000000E+00  0.00000000000E+00  0.54272827572E+03  0.54272827572E+03  0.00000000000E+00 0. -1.
         -1   -1    0    0    0  501 -0.00000000000E+00 -0.00000000000E+00 -0.43124191014E+02  0.43124191014E+02  0.00000000000E+00 0.  1.
         23    2    1    2    0    0  0.78888109237E+02 -0.59599950251E+02  0.35069821900E+03  0.38520827138E+03  0.12498273353E+03 0.  0.
          5    1    3    3  502    0  0.62757974653E+02 -0.57500864199E+02  0.35707950855E+03  0.36711412149E+03  0.47000000000E+01 0.  1.
         -5    1    3    3    0  502  0.16130134585E+02 -0.20990860519E+01 -0.63812895539E+01  0.18094149893E+02  0.47000000000E+01 0.  1.
        -11    1    1    2    0    0 -0.13600674572E+02  0.67320590014E+02  0.79022380529E+02  0.10469754922E+03  0.00000000000E+00 0. -1.
         11    1    1    2    0    0 -0.65287434665E+02 -0.77206397629E+01  0.69883485181E+02  0.95946646135E+02  0.00000000000E+00 0.  1.
<mgrwt>
<rscale>  0 0.15274019E+03</rscale>
<asrwt>0</asrwt>
<pdfrwt beam="1">  1        1 0.83496653E-01 0.15936176E+03</pdfrwt>
<pdfrwt beam="2">  1       -1 0.66344913E-02 0.15936176E+03</pdfrwt>
<totfact> 0.45165217E+03</totfact>
</mgrwt>
</event>
<event>
 7    1  0.5928109E-006  0.1786281E+03  0.7546771E-02  0.1173221E+00
         -1   -1    0    0    0  501 -0.00000000000E+00  0.00000000000E+00  0.11825616026E+03  0.11825616026E+03  0.00000000000E+00 0.  1.
          1   -1    0    0  501    0  0.00000000000E+00 -0.00000000000E+00 -0.25413215370E+03  0.25413215370E+03  0.00000000000E+00 0. -1.
         23    2    1    2    0    0  0.79611758714E+02 -0.99721076179E+02 -0.10357521307E+03  0.20648446475E+03  0.12500273701E+03 0.  0.
          5    1    3    3  502    0  0.25045834757E+02 -0.91987073295E+02 -0.76532407755E+01  0.95757911351E+02  0.47000000000E+01 0. -1.
         -5    1    3    3    0  502  0.54565923958E+02 -0.77340028844E+01 -0.95921972299E+02  0.11072655340E+03  0.47000000000E+01 0. -1.
        -11    1    1    2    0    0 -0.62348239055E+02  0.76451140836E+01  0.91219516230E+01  0.63474094590E+02  0.00000000000E+00 0.  1.
         11    1    1    2    0    0 -0.17263519660E+02  0.92075962095E+02 -0.41422731989E+02  0.10242975462E+03  0.00000000000E+00 0. -1.
<mgrwt>
<rscale>  0 0.17451336E+03</rscale>
<asrwt>0</asrwt>
<pdfrwt beam="2">  1        1 0.39097254E-01 0.17862813E+03</pdfrwt>
<pdfrwt beam="1">  1       -1 0.18193256E-01 0.17862813E+03</pdfrwt>
<totfact> 0.25020454E+03</totfact>
</mgrwt>
</event>
<event>
 7    1  0.5928109E-006  0.1659521E+03  0.7546771E-02  0.1189309E+00
         -2   -1    0    0    0  501 -0.00000000000E+00  0.00000000000E+00  0.93425754509E+02  0.93425754509E+02  0.00000000000E+00 0.  1.
          2   -1    0    0  501    0  0.00000000000E+00 -0.00000000000E+00 -0.42286904576E+03  0.42286904576E+03  0.00000000000E+00 0. -1.
         23    2    1    2    0    0 -0.10871189846E+03 -0.99291658299E+01 -0.33592563895E+03  0.37468136608E+03  0.12499290372E+03 0.  0.
          5    1    3    3  502    0 -0.65231328244E+02 -0.58010601069E+02 -0.11538371023E+03  0.14476134362E+03  0.47000000000E+01 0.  1.
         -5    1    3    3    0  502 -0.43480570213E+02  0.48081435239E+02 -0.22054192872E+03  0.22992002246E+03  0.47000000000E+01 0.  1.
        -11    1    1    2    0    0  0.95562087813E+02 -0.24416509043E+02 -0.13834831426E+02  0.99597595863E+02  0.00000000000E+00 0.  1.
         11    1    1    2    0    0  0.13149810644E+02  0.34345674873E+02  0.20317179130E+02  0.42015838327E+02  0.00000000000E+00 0. -1.
<mgrwt>
<rscale>  0 0.15945908E+03</rscale>
<asrwt>0</asrwt>
<pdfrwt beam="2">  1        2 0.65056776E-01 0.16595207E+03</pdfrwt>
<pdfrwt beam="1">  1       -2 0.14373193E-01 0.16595207E+03</pdfrwt>
<totfact> 0.27077486E+03</totfact>
</mgrwt>
</event>
<event>
 7    1  0.5928109E-006  0.1609256E+03  0.7546771E-02  0.1195389E+00
         -2   -1    0    0    0  501 -0.00000000000E+00  0.00000000000E+00  0.68173905135E+02  0.68173905135E+02  0.00000000000E+00 0. -1.
          2   -1    0    0  501    0  0.00000000000E+00 -0.00000000000E+00 -0.10284460005E+04  0.10284460005E+04  0.00000000000E+00 0.  1.
         23    2    1    2    0    0 -0.10041088760E+03 -0.13695400458E+02 -0.94664621466E+03  0.96022711374E+03  0.12500857527E+03 0.  0.
          5    1    3    3  502    0  0.14218105128E+02 -0.25920379934E+02 -0.71574971616E+02  0.77582776254E+02  0.47000000000E+01 0.  1.
         -5    1    3    3    0  502 -0.11462899273E+03  0.12224979476E+02 -0.87507124304E+03  0.88264433748E+03  0.47000000000E+01 0.  1.
        -11    1    1    2    0    0  0.59766269532E+02  0.45487161067E+02 -0.31969350736E+02  0.81627986513E+02  0.00000000000E+00 0.  1.
         11    1    1    2    0    0  0.40644618065E+02 -0.31791760609E+02  0.18343469999E+02  0.54764805413E+02  0.00000000000E+00 0. -1.
<mgrwt>
<rscale>  0 0.15421344E+03</rscale>
<asrwt>0</asrwt>
<pdfrwt beam="2">  1        2 0.15822245E+00 0.16092562E+03</pdfrwt>
<pdfrwt beam="1">  1       -2 0.10488294E-01 0.16092562E+03</pdfrwt>
<totfact> 0.15489811E+03</totfact>
</mgrwt>
</event>
<event>
 7    1  0.5928109E-006  0.1405147E+03  0.7546771E-02  0.1224549E+00
          4   -1    0    0  501    0  0.00000000000E+00  0.00000000000E+00  0.45352425525E+02  0.45352425525E+02  0.00000000000E+00 0. -1.
         -4   -1    0    0    0  501 -0.00000000000E+00 -0.00000000000E+00 -0.37425358076E+03  0.37425358076E+03  0.00000000000E+00 0.  1.
         23    2    1    2    0    0 -0.57088761645E+02 -0.29331450350E+02 -0.12425223938E+03  0.18757130740E+03  0.12499966273E+03 0.  0.
          5    1    3    3  502    0 -0.38552590286E+02 -0.78578345714E+02 -0.75551690928E+02  0.11571951709E+03  0.47000000000E+01 0.  1.
         -5    1    3    3    0  502 -0.18536171359E+02  0.49246895364E+02 -0.48700548454E+02  0.71851790314E+02  0.47000000000E+01 0.  1.
        -11    1    1    2    0    0  0.70326179240E+02  0.31320829039E+02 -0.20464715326E+03  0.21864862944E+03  0.00000000000E+00 0.  1.
         11    1    1    2    0    0 -0.13237417595E+02 -0.19893786891E+01 -0.17625970589E-02  0.13386069448E+02  0.00000000000E+00 0. -1.
<mgrwt>
<rscale>  0 0.13197838E+03</rscale>
<asrwt>0</asrwt>
<pdfrwt beam="1">  1        4 0.69772963E-02 0.14051468E+03</pdfrwt>
<pdfrwt beam="2">  1       -4 0.57577473E-01 0.14051468E+03</pdfrwt>
<totfact> 0.66891670E+02</totfact>
</mgrwt>
</event>
<event>
 7    1  0.5928109E-006  0.1298892E+03  0.7546771E-02  0.1241138E+00
         -2   -1    0    0    0  501 -0.00000000000E+00  0.00000000000E+00  0.81177800276E+02  0.81177800276E+02  0.00000000000E+00 0.  1.
          2   -1    0    0  501    0  0.00000000000E+00 -0.00000000000E+00 -0.41172427236E+03  0.41172427236E+03  0.00000000000E+00 0. -1.
         23    2    1    2    0    0 -0.29838277519E+02  0.18901626142E+02 -0.36591926393E+03  0.38828869614E+03  0.12499443812E+03 0.  0.
          5    1    3    3  502    0 -0.58451634644E+02 -0.34476395912E+02 -0.21851647895E+03  0.22885968854E+03  0.47000000000E+01 0. -1.
         -5    1    3    3    0  502  0.28613357126E+02  0.53378022054E+02 -0.14740278498E+03  0.15942900760E+03  0.47000000000E+01 0. -1.
        -11    1    1    2    0    0  0.46476661818E+02 -0.40335046604E+02  0.19582947168E+01  0.61569724674E+02  0.00000000000E+00 0. -1.
         11    1    1    2    0    0 -0.16638384299E+02  0.21433420462E+02  0.33414497121E+02  0.43043651827E+02  0.00000000000E+00 0.  1.
<mgrwt>
<rscale>  0 0.12119522E+03</rscale>
<asrwt>0</asrwt>
<pdfrwt beam="2">  1        2 0.63342195E-01 0.12988920E+03</pdfrwt>
<pdfrwt beam="1">  1       -2 0.12488892E-01 0.12988920E+03</pdfrwt>
<totfact> 0.34633437E+03</totfact>
</mgrwt>
</event>
<event>
 7    1  0.5928109E-006  0.1356804E+03  0.7546771E-02  0.1231882E+00
          2   -1    0    0  501    0  0.00000000000E+00  0.00000000000E+00  0.21529185011E+04  0.21529185011E+04  0.00000000000E+00 0. -1.
         -2   -1    0    0    0  501 -0.00000000000E+00 -0.00000000000E+00 -0.91281314153E+01  0.91281314153E+01  0.00000000000E+00 0.  1.
         23    2    1    2    0    0  0.38688048134E+02 -0.35893693875E+02  0.17295751025E+04  0.17348888132E+04  0.12499614572E+03 0.  0.
          5    1    3    3  502    0 -0.53044176232E+01  0.49386665684E+00  0.14224137508E+04  0.14224314919E+04  0.47000000000E+01 0.  1.
         -5    1    3    3    0  502  0.43992465758E+02 -0.36387560532E+02  0.30716135177E+03  0.31245732128E+03  0.47000000000E+01 0.  1.
        -11    1    1    2    0    0 -0.52307330221E+02 -0.53077109947E+01  0.30741348749E+03  0.31187702846E+03  0.00000000000E+00 0. -1.
         11    1    1    2    0    0  0.13619282087E+02  0.41201404870E+02  0.10680177970E+03  0.11528079092E+03  0.00000000000E+00 0.  1.
<mgrwt>
<rscale>  0 0.12706145E+03</rscale>
<asrwt>0</asrwt>
<pdfrwt beam="1">  1        2 0.33121783E+00 0.13568036E+03</pdfrwt>
<pdfrwt beam="2">  1       -2 0.14043296E-02 0.13568036E+03</pdfrwt>
<totfact> 0.79236884E+03</totfact>
</mgrwt>
</event>
<event>
 7    1  0.5928109E-006  0.1621016E+03  0.7546771E-02  0.1193237E+00
          1   -1    0    0  501    0  0.00000000000E+00  0.00000000000E+00  0.24403883573E+03  0.24403883573E+03  0.00000000000E+00 0. -1.
         -1   -1    0    0    0  501 -0.00000000000E+00 -0.00000000000E+00 -0.11823854480E+03  0.11823854480E+03  0.00000000000E+00 0.  1.
         23    2    1    2    0    0 -0.52963896710E+02 -0.88588380386E+02  0.15016176479E+03  0.22096486246E+03  0.12499535728E+03 0.  0.
          5    1    3    3  502    0  0.16667663832E+02 -0.79011427127E+02  0.40078533784E+02  0.90271786869E+02  0.47000000000E+01 0.  1.
         -5    1    3    3    0  502 -0.69631560541E+02 -0.95769532589E+01  0.11008323101E+03  0.13069307559E+03  0.47000000000E+01 0.  1.
        -11    1    1    2    0    0 -0.21244623696E+02  0.49986421731E+02 -0.45650747588E+00  0.54315603583E+02  0.00000000000E+00 0.  1.
         11    1    1    2    0    0  0.74208520405E+02  0.38601958654E+02 -0.23904966391E+02  0.86996914490E+02  0.00000000000E+00 0. -1.
<mgrwt>
<rscale>  0 0.15604422E+03</rscale>
<asrwt>0</asrwt>
<pdfrwt beam="1">  1        1 0.37544436E-01 0.16210156E+03</pdfrwt>
<pdfrwt beam="2">  1       -1 0.18190545E-01 0.16210156E+03</pdfrwt>
<totfact> 0.26227948E+03</totfact>
</mgrwt>
</event>
<event>
 7    1  0.5928109E-006  0.1536412E+03  0.7546771E-02  0.1204900E+00
         -2   -1    0    0    0  501 -0.00000000000E+00  0.00000000000E+00  0.33784486984E+02  0.33784486984E+02  0.00000000000E+00 0. -1.
          2   -1    0    0  501    0  0.00000000000E+00 -0.00000000000E+00 -0.58538899850E+03  0.58538899850E+03  0.00000000000E+00 0.  1.
         23    2    1    2    0    0  0.82606723271E+02 -0.34016907198E+02 -0.32485428566E+03  0.35935485536E+03  0.12499833780E+03 0.  0.
          5    1    3    3  502    0 -0.12945502066E+02 -0.35921345976E+02 -0.28337234214E+02  0.47780937238E+02  0.47000000000E+01 0. -1.
         -5    1    3    3    0  502  0.95552225337E+02  0.19044387782E+01 -0.29651705145E+03  0.31157391812E+03  0.47000000000E+01 0. -1.
        -11    1    1    2    0    0  0.83501388885E-01 -0.25108730243E+02 -0.48769859070E+02  0.54853937512E+02  0.00000000000E+00 0. -1.
         11    1    1    2    0    0 -0.82690224660E+02  0.59125637440E+02 -0.17798036678E+03  0.20496469261E+03  0.00000000000E+00 0.  1.
<mgrwt>
<rscale>  0 0.14645371E+03</rscale>
<asrwt>0</asrwt>
<pdfrwt beam="2">  1        2 0.90059841E-01 0.15364116E+03</pdfrwt>
<pdfrwt beam="1">  1       -2 0.51976137E-02 0.15364116E+03</pdfrwt>
<totfact> 0.92346662E+03</totfact>
</mgrwt>
</event>
<event>
 6    1  0.5928109E-006  0.1737555E+03  0.7546771E-02  0.1191789E+00
          1   -1    0    0  501    0  0.00000000000E+00  0.00000000000E+00  0.80964529859E+03  0.80964529859E+03  0.00000000000E+00 0. -1.
         -1   -1    0    0    0  501 -0.00000000000E+00 -0.00000000000E+00 -0.27018569407E+02  0.27018569407E+02  0.00000000000E+00 0.  1.
          5    1    1    2  502    0 -0.44725402240E+02 -0.87229444162E+01  0.25118199725E+03  0.25532515957E+03  0.47000000000E+01 0. -1.
         -5    1    1    2    0  502  0.11425429416E+03  0.29469949717E+02  0.29211951454E+03  0.31508478612E+03  0.47000000000E+01 0.  1.
        -11    1    1    2    0    0 -0.22680160029E+02  0.33790509433E+02  0.12244634287E+03  0.12903214743E+03  0.00000000000E+00 0.  1.
         11    1    1    2    0    0 -0.46848731888E+02 -0.54537514733E+02  0.11687887452E+03  0.13722177488E+03  0.00000000000E+00 0. -1.
<mgrwt>
<rscale>  0 0.15729123E+03</rscale>
<asrwt>0</asrwt>
<pdfrwt beam="1">  1        1 0.12456080E+00 0.17375550E+03</pdfrwt>
<pdfrwt beam="2">  1       -1 0.41567036E-02 0.17375550E+03</pdfrwt>
<totfact> 0.51563072E+03</totfact>
</mgrwt>
</event>
<event>
 7    1  0.5928109E-006  0.1662635E+03  0.7546771E-02  0.1188106E+00
         -1   -1    0    0    0  501 -0.00000000000E+00  0.00000000000E+00  0.26565340267E+02  0.26565340267E+02  0.00000000000E+00 0.  1.
          1   -1    0    0  501    0  0.00000000000E+00 -0.00000000000E+00 -0.12546609119E+04  0.12546609119E+04  0.00000000000E+00 0. -1.
         23    2    1    2    0    0 -0.10581867744E+03 -0.28647318650E+02 -0.98106125339E+03  0.99505011170E+03  0.12500112210E+03 0.  0.
          5    1    3    3  502    0 -0.44178336545E+02  0.34547907974E+02 -0.16754842356E+03  0.17674797765E+03  0.47000000000E+01 0. -1.
         -5    1    3    3    0  502 -0.61640340897E+02 -0.63195226624E+02 -0.81351282983E+03  0.81830213405E+03  0.47000000000E+01 0. -1.
        -11    1    1    2    0    0  0.24250417686E+02 -0.33571159854E+02 -0.81767737393E+02  0.91657342370E+02  0.00000000000E+00 0. -1.
         11    1    1    2    0    0  0.81568259756E+02  0.62218478504E+02 -0.16526658083E+03  0.19451879808E+03  0.00000000000E+00 0.  1.
<mgrwt>
<rscale>  0 0.16052405E+03</rscale>
<asrwt>0</asrwt>
<pdfrwt beam="2">  1        1 0.19302477E+00 0.16626347E+03</pdfrwt>
<pdfrwt beam="1">  1       -1 0.40869751E-02 0.16626347E+03</pdfrwt>
<totfact> 0.24853614E+03</totfact>
</mgrwt>
</event>
<event>
 7    1  0.5928109E-006  0.1284054E+03  0.7546771E-02  0.1242939E+00
         -2   -1    0    0    0  501 -0.00000000000E+00  0.00000000000E+00  0.11178339752E+02  0.11178339752E+02  0.00000000000E+00 0.  1.
          2   -1    0    0  501    0  0.00000000000E+00 -0.00000000000E+00 -0.15029461715E+04  0.15029461715E+04  0.00000000000E+00 0. -1.
         23    2    1    2    0    0  0.61014897736E+01 -0.28738186811E+02 -0.11866337410E+04  0.11935608816E+04  0.12499932450E+03 0.  0.
          5    1    3    3  502    0  0.21650205077E+02  0.41298751343E+02 -0.70890100036E+03  0.71044847565E+03  0.47000000000E+01 0. -1.
         -5    1    3    3    0  502 -0.15548715303E+02 -0.70036938154E+02 -0.47773274065E+03  0.48311240591E+03  0.47000000000E+01 0. -1.
        -11    1    1    2    0    0 -0.11257636260E+02 -0.32641805182E+02 -0.79532215931E+02  0.86704066748E+02  0.00000000000E+00 0.  1.
         11    1    1    2    0    0  0.51561464863E+01  0.61379991993E+02 -0.22560187476E+03  0.23385956290E+03  0.00000000000E+00 0. -1.
<mgrwt>
<rscale>  0 0.12009561E+03</rscale>
<asrwt>0</asrwt>
<pdfrwt beam="2">  1        2 0.23122242E+00 0.12840538E+03</pdfrwt>
<pdfrwt beam="1">  1       -2 0.17197451E-02 0.12840538E+03</pdfrwt>
<totfact> 0.12713889E+04</totfact>
</mgrwt>
</event>
<event>
 7    1  0.5928109E-006  0.1553839E+03  0.7546771E-02  0.1202057E+00
          1   -1    0    0  501    0  0.00000000000E+00  0.00000000000E+00  0.97056074079E+02  0.97056074079E+02  0.00000000000E+00 0. -1.
         -1   -1    0    0    0  501 -0.00000000000E+00 -0.00000000000E+00 -0.48403846568E+03  0.48403846568E+03  0.00000000000E+00 0.  1.
         23    2    1    2    0    0 -0.91728783714E+02 -0.10071743366E+02  0.17263845718E+02  0.15633995414E+03  0.12501412366E+03 0.  0.
          5    1    3    3  502    0 -0.21951991572E+02 -0.27404434541E+02 -0.47639120637E+02  0.59367236600E+02  0.47000000000E+01 0.  1.
         -5    1    3    3    0  502 -0.69776792142E+02  0.17332691175E+02  0.64902966355E+02  0.96972717538E+02  0.47000000000E+01 0.  1.
        -11    1    1    2    0    0  0.43890177146E+02  0.51022184164E+02 -0.21775019765E+03  0.22791393003E+03  0.00000000000E+00 0. -1.
         11    1    1    2    0    0  0.47838606568E+02 -0.40950440797E+02 -0.18649603967E+03  0.19684065559E+03  0.00000000000E+00 0.  1.
<mgrwt>
<rscale>  0 0.14871854E+03</rscale>
<asrwt>0</asrwt>
<pdfrwt beam="1">  1        1 0.14931704E-01 0.15538385E+03</pdfrwt>
<pdfrwt beam="2">  1       -1 0.74467455E-01 0.15538385E+03</pdfrwt>
<totfact> 0.70608014E+02</totfact>
</mgrwt>
</event>
<event>
 7    1  0.5928109E-006  0.1280608E+03  0.7546771E-02  0.1245148E+00
         -2   -1    0    0    0  501 -0.00000000000E+00  0.00000000000E+00  0.15913789846E+02  0.15913789846E+02  0.00000000000E+00 0.  1.
          2   -1    0    0  501    0  0.00000000000E+00 -0.00000000000E+00 -0.81071313763E+03  0.81071313763E+03  0.00000000000E+00 0. -1.
         23    2    1    2    0    0  0.20310463265E+02  0.18993845377E+02 -0.53442630760E+03  0.54955531458E+03  0.12500513768E+03 0.  0.
          5    1    3    3  502    0  0.12621705074E+02 -0.51685748961E+02 -0.29323418462E+03  0.29805888867E+03  0.47000000000E+01 0. -1.
         -5    1    3    3    0  502  0.76887581916E+01  0.70679594338E+02 -0.24119212298E+03  0.25149642591E+03  0.47000000000E+01 0. -1.
        -11    1    1    2    0    0 -0.74957664494E+01  0.26220724105E+02 -0.24815013912E+02  0.36871368332E+02  0.00000000000E+00 0. -1.
         11    1    1    2    0    0 -0.12814696816E+02 -0.45214569481E+02 -0.23555802627E+03  0.24020024456E+03  0.00000000000E+00 0.  1.
<mgrwt>
<rscale>  0 0.11876508E+03</rscale>
<asrwt>0</asrwt>
<pdfrwt beam="2">  1        2 0.12472513E+00 0.12806079E+03</pdfrwt>
<pdfrwt beam="1">  1       -2 0.24482748E-02 0.12806079E+03</pdfrwt>
<totfact> 0.18901978E+04</totfact>
</mgrwt>
</event>
<event>
 7    1  0.5928109E-006  0.1475713E+03  0.7546771E-02  0.1212722E+00
          2   -1    0    0  501    0  0.00000000000E+00  0.00000000000E+00  0.95901152315E+03  0.95901152315E+03  0.00000000000E+00 0. -1.
         -2   -1    0    0    0  501 -0.00000000000E+00 -0.00000000000E+00 -0.19504187744E+02  0.19504187744E+02  0.00000000000E+00 0.  1.
         23    2    1    2    0    0  0.75362041144E+02  0.21768798563E+02  0.60590586369E+03  0.62361783814E+03  0.12499589818E+03 0.  0.
          5    1    3    3  502    0  0.90706188341E+01 -0.76221702643E+01  0.46412191643E+03  0.46429690600E+03  0.47000000000E+01 0. -1.
         -5    1    3    3    0  502  0.66291422310E+02  0.29390968827E+02  0.14178394725E+03  0.15932093214E+03  0.47000000000E+01 0. -1.
        -11    1    1    2    0    0 -0.37246061746E+02 -0.52497914987E+02  0.24866069980E+03  0.25685685472E+03  0.00000000000E+00 0. -1.
         11    1    1    2    0    0 -0.38115979399E+02  0.30729116425E+02  0.84940771919E+02  0.98041018028E+02  0.00000000000E+00 0.  1.
<mgrwt>
<rscale>  0 0.14045192E+03</rscale>
<asrwt>0</asrwt>
<pdfrwt beam="1">  1        2 0.14754020E+00 0.14757131E+03</pdfrwt>
<pdfrwt beam="2">  1       -2 0.30006450E-02 0.14757131E+03</pdfrwt>
<totfact> 0.11392465E+04</totfact>
</mgrwt>
</event>
<event>
 7    1  0.5928109E-006  0.1392193E+03  0.7546771E-02  0.1224969E+00
          2   -1    0    0  501    0  0.00000000000E+00  0.00000000000E+00  0.44701818956E+02  0.44701818956E+02  0.00000000000E+00 0. -1.
         -2   -1    0    0    0  501 -0.00000000000E+00 -0.00000000000E+00 -0.41599299460E+03  0.41599299460E+03  0.00000000000E+00 0.  1.
         23    2    1    2    0    0  0.19133561270E+02  0.58222762372E+02 -0.11274260456E+03  0.17914495116E+03  0.12500414161E+03 0.  0.
          5    1    3    3  502    0  0.57095067177E+02  0.71703333340E+02 -0.10195161848E+03  0.13717666427E+03  0.47000000000E+01 0.  1.
         -5    1    3    3    0  502 -0.37961505907E+02 -0.13480570968E+02 -0.10790986073E+02  0.41968286893E+02  0.47000000000E+01 0.  1.
        -11    1    1    2    0    0 -0.50787939213E+02 -0.12125069090E+02 -0.15920816200E+03  0.16755199467E+03  0.00000000000E+00 0.  1.
         11    1    1    2    0    0  0.31654377943E+02 -0.46097693282E+02 -0.99340409081E+02  0.11399786772E+03  0.00000000000E+00 0. -1.
<mgrwt>
<rscale>  0 0.13168999E+03</rscale>
<asrwt>0</asrwt>
<pdfrwt beam="1">  1        2 0.68772029E-02 0.13921932E+03</pdfrwt>
<pdfrwt beam="2">  1       -2 0.63998922E-01 0.13921932E+03</pdfrwt>
<totfact> 0.22986463E+03</totfact>
</mgrwt>
</event>
<event>
 7    1  0.5928109E-006  0.1322854E+03  0.7546771E-02  0.1235756E+00
          2   -1    0    0  501    0  0.00000000000E+00  0.00000000000E+00  0.10041219575E+04  0.10041219575E+04  0.00000000000E+00 0. -1.
         -2   -1    0    0    0  501 -0.00000000000E+00 -0.00000000000E+00 -0.17581764421E+02  0.17581764421E+02  0.00000000000E+00 0.  1.
         23    2    1    2    0    0 -0.30143030436E+02 -0.31068141681E+02  0.77241917178E+03  0.78366497543E+03  0.12500234026E+03 0.  0.
          5    1    3    3  502    0 -0.36940661122E+02  0.15455855162E+02  0.79527283348E+02  0.89163752162E+02  0.47000000000E+01 0. -1.
         -5    1    3    3    0  502  0.67976306866E+01 -0.46523996843E+02  0.69289188844E+03  0.69450122327E+03  0.47000000000E+01 0. -1.
        -11    1    1    2    0    0 -0.11587264763E+02 -0.28616437604E+02  0.72172439505E+02  0.78498574700E+02  0.00000000000E+00 0.  1.
         11    1    1    2    0    0  0.41730295198E+02  0.59684579286E+02  0.14194858180E+03  0.15954017180E+03  0.00000000000E+00 0. -1.
<mgrwt>
<rscale>  0 0.12456193E+03</rscale>
<asrwt>0</asrwt>
<pdfrwt beam="1">  1        2 0.15448026E+00 0.13228536E+03</pdfrwt>
<pdfrwt beam="2">  1       -2 0.27048876E-02 0.13228536E+03</pdfrwt>
<totfact> 0.12380898E+04</totfact>
</mgrwt>
</event>
<event>
 7    1  0.5928109E-006  0.1972804E+03  0.7546771E-02  0.1156772E+00
         -3   -1    0    0    0  501 -0.00000000000E+00  0.00000000000E+00  0.74112835930E+03  0.74112835930E+03  0.00000000000E+00 0.  1.
          3   -1    0    0  501    0  0.00000000000E+00 -0.00000000000E+00 -0.58102752340E+02  0.58102752340E+02  0.00000000000E+00 0. -1.
         23    2    1    2    0    0  0.92814676247E+02  0.12115788016E+03  0.18354382368E+03  0.26945848271E+03  0.12500297054E+03 0.  0.
          5    1    3    3  502    0  0.17001576769E+02  0.11193484553E+03  0.14427032960E+03  0.18345157742E+03  0.47000000000E+01 0. -1.
         -5    1    3    3    0  502  0.75813099479E+02  0.92230346296E+01  0.39273494080E+02  0.86006905290E+02  0.47000000000E+01 0. -1.
        -11    1    1    2    0    0 -0.64084079001E+01 -0.61701011846E+02  0.10865092556E+03  0.12511237421E+03  0.00000000000E+00 0.  1.
         11    1    1    2    0    0 -0.86406268347E+02 -0.59456868318E+02  0.39083085773E+03  0.40466025472E+03  0.00000000000E+00 0. -1.
<mgrwt>
<rscale>  0 0.19188550E+03</rscale>
<asrwt>0</asrwt>
<pdfrwt beam="2">  1        3 0.89388855E-02 0.19728036E+03</pdfrwt>
<pdfrwt beam="1">  1       -3 0.11401974E+00 0.19728036E+03</pdfrwt>
<totfact> 0.14464080E+02</totfact>
</mgrwt>
</event>
<event>
 7    1  0.5928109E-006  0.1282634E+03  0.7546771E-02  0.1244222E+00
         -2   -1    0    0    0  501 -0.00000000000E+00  0.00000000000E+00  0.21693150388E+02  0.21693150388E+02  0.00000000000E+00 0.  1.
          2   -1    0    0  501    0  0.00000000000E+00 -0.00000000000E+00 -0.19726729284E+04  0.19726729284E+04  0.00000000000E+00 0. -1.
         23    2    1    2    0    0  0.19551594576E+02  0.21129311073E+02 -0.18519944422E+04  0.18564306937E+04  0.12499117463E+03 0.  0.
          5    1    3    3  502    0 -0.73575194431E+01  0.49695843682E+02 -0.32229775602E+03  0.32622345640E+03  0.47000000000E+01 0.  1.
         -5    1    3    3    0  502  0.26909114019E+02 -0.28566532609E+02 -0.15296966862E+04  0.15302072373E+04  0.47000000000E+01 0.  1.
        -11    1    1    2    0    0 -0.16862984051E+02 -0.44432290507E+02 -0.13666533798E+02  0.49450609873E+02  0.00000000000E+00 0.  1.
         11    1    1    2    0    0 -0.26886105254E+01  0.23302979434E+02 -0.85318801994E+02  0.88484775248E+02  0.00000000000E+00 0. -1.
<mgrwt>
<rscale>  0 0.11932076E+03</rscale>
<asrwt>0</asrwt>
<pdfrwt beam="2">  1        2 0.30348841E+00 0.12826343E+03</pdfrwt>
<pdfrwt beam="1">  1       -2 0.33374048E-02 0.12826343E+03</pdfrwt>
<totfact> 0.27809172E+03</totfact>
</mgrwt>
</event>
<event>
 7    1  0.5928109E-006  0.1334046E+03  0.7546771E-02  0.1235937E+00
         -2   -1    0    0    0  501 -0.00000000000E+00  0.00000000000E+00  0.84863717132E+02  0.84863717132E+02  0.00000000000E+00 0.  1.
          2   -1    0    0  501    0  0.00000000000E+00 -0.00000000000E+00 -0.20909703742E+03  0.20909703742E+03  0.00000000000E+00 0. -1.
         23    2    1    2    0    0 -0.42242129860E+02 -0.19630289122E+02 -0.13807518398E+03  0.19199358061E+03  0.12500813084E+03 0.  0.
          5    1    3    3  502    0 -0.62787543361E+02 -0.15554568682E+02 -0.14356096144E+02  0.66425956558E+02  0.47000000000E+01 0. -1.
         -5    1    3    3    0  502  0.20545413501E+02 -0.40757204396E+01 -0.12371908784E+03  0.12556762405E+03  0.47000000000E+01 0. -1.
        -11    1    1    2    0    0  0.18024929666E+01 -0.12524731827E+02  0.41484711093E+02  0.43371639844E+02  0.00000000000E+00 0.  1.
         11    1    1    2    0    0  0.40439636894E+02  0.32155020948E+02 -0.27642847392E+02  0.58595534098E+02  0.00000000000E+00 0. -1.
<mgrwt>
<rscale>  0 0.12444671E+03</rscale>
<asrwt>0</asrwt>
<pdfrwt beam="2">  1        2 0.32168774E-01 0.13340457E+03</pdfrwt>
<pdfrwt beam="1">  1       -2 0.13055957E-01 0.13340457E+03</pdfrwt>
<totfact> 0.66404533E+03</totfact>
</mgrwt>
</event>
<event>
 7    1  0.5928109E-006  0.1314533E+03  0.7546771E-02  0.1241067E+00
          1   -1    0    0  501    0  0.00000000000E+00  0.00000000000E+00  0.93775644470E+02  0.93775644470E+02  0.00000000000E+00 0. -1.
         -1   -1    0    0    0  501 -0.00000000000E+00 -0.00000000000E+00 -0.14558379924E+03  0.14558379924E+03  0.00000000000E+00 0.  1.
         23    2    1    2    0    0  0.37708654138E+02  0.15271763231E+02 -0.85873458065E+00  0.13145607610E+03  0.12499917267E+03 0.  0.
          5    1    3    3  502    0  0.71093196659E+02 -0.26579132639E+02  0.97832485036E+01  0.76671343110E+02  0.47000000000E+01 0. -1.
         -5    1    3    3    0  502 -0.33384542521E+02  0.41850895870E+02 -0.10641983084E+02  0.54784732987E+02  0.47000000000E+01 0. -1.
        -11    1    1    2    0    0  0.65869845406E+01 -0.38681088448E+02 -0.41139060701E+02  0.56851009527E+02  0.00000000000E+00 0.  1.
         11    1    1    2    0    0 -0.44295638678E+02  0.23409325217E+02 -0.98103594900E+01  0.51052358088E+02  0.00000000000E+00 0. -1.
<mgrwt>
<rscale>  0 0.12123929E+03</rscale>
<asrwt>0</asrwt>
<pdfrwt beam="1">  1        1 0.14427022E-01 0.13145327E+03</pdfrwt>
<pdfrwt beam="2">  1       -1 0.22397507E-01 0.13145327E+03</pdfrwt>
<totfact> 0.62188706E+03</totfact>
</mgrwt>
</event>
<event>
 7    1  0.5928109E-006  0.1280845E+03  0.7546771E-02  0.1244332E+00
          2   -1    0    0  501    0  0.00000000000E+00  0.00000000000E+00  0.24345254401E+02  0.24345254401E+02  0.00000000000E+00 0. -1.
         -2   -1    0    0    0  501 -0.00000000000E+00 -0.00000000000E+00 -0.54914870099E+03  0.54914870099E+03  0.00000000000E+00 0.  1.
         23    2    1    2    0    0 -0.19204722691E+02  0.20251943565E+02 -0.22851251140E+03  0.26196107446E+03  0.12500669612E+03 0.  0.
          5    1    3    3  502    0 -0.57515014896E+02  0.41679519287E+02 -0.19166658459E+03  0.20445862397E+03  0.47000000000E+01 0.  1.
         -5    1    3    3    0  502  0.38310292205E+02 -0.21427575723E+02 -0.36845926807E+02  0.57502450491E+02  0.47000000000E+01 0.  1.
        -11    1    1    2    0    0  0.45603152951E+02  0.10663060827E+02 -0.22160702367E+03  0.22650170278E+03  0.00000000000E+00 0.  1.
         11    1    1    2    0    0 -0.26398430260E+02 -0.30915004391E+02 -0.74683911527E+02  0.85031178150E+02  0.00000000000E+00 0. -1.
<mgrwt>
<rscale>  0 0.11925447E+03</rscale>
<asrwt>0</asrwt>
<pdfrwt beam="1">  1        2 0.37454235E-02 0.12808449E+03</pdfrwt>
<pdfrwt beam="2">  1       -2 0.84484422E-01 0.12808449E+03</pdfrwt>
<totfact> 0.27788882E+03</totfact>
</mgrwt>
</event>
<event>
 7    1  0.5928109E-006  0.1318037E+03  0.7546771E-02  0.1239905E+00
          1   -1    0    0  501    0  0.00000000000E+00  0.00000000000E+00  0.11100170779E+03  0.11100170779E+03  0.00000000000E+00 0. -1.
         -1   -1    0    0    0  501 -0.00000000000E+00 -0.00000000000E+00 -0.11771151878E+03  0.11771151878E+03  0.00000000000E+00 0.  1.
         23    2    1    2    0    0 -0.13486078866E+02  0.39566084954E+02  0.84435062200E+00  0.13180643797E+03  0.12499949904E+03 0.  0.
          5    1    3    3  502    0 -0.15907876256E+02 -0.31869819251E+02 -0.36337144309E+02  0.51100136620E+02  0.47000000000E+01 0.  1.
         -5    1    3    3    0  502  0.24217973894E+01  0.71435904205E+02  0.37181494931E+02  0.80706301349E+02  0.47000000000E+01 0.  1.
        -11    1    1    2    0    0  0.15454156254E+01 -0.66543841399E+02 -0.99766745919E+01  0.67305313115E+02  0.00000000000E+00 0.  1.
         11    1    1    2    0    0  0.11940663241E+02  0.26977756445E+02  0.24225129832E+01  0.29601475480E+02  0.00000000000E+00 0. -1.
<mgrwt>
<rscale>  0 0.12195608E+03</rscale>
<asrwt>0</asrwt>
<pdfrwt beam="1">  1        1 0.17077186E-01 0.13180373E+03</pdfrwt>
<pdfrwt beam="2">  1       -1 0.18109464E-01 0.13180373E+03</pdfrwt>
<totfact> 0.70394300E+03</totfact>
</mgrwt>
</event>
<event>
 7    1  0.5928109E-006  0.1442939E+03  0.7546771E-02  0.1221038E+00
         -2   -1    0    0    0  501 -0.00000000000E+00  0.00000000000E+00  0.13691717488E+02  0.13691717488E+02  0.00000000000E+00 0.  1.
          2   -1    0    0  501    0  0.00000000000E+00 -0.00000000000E+00 -0.16361684984E+04  0.16361684984E+04  0.00000000000E+00 0. -1.
         23    2    1    2    0    0  0.70202478927E+02 -0.16363176296E+02 -0.13307099656E+04  0.13385102682E+04  0.12499833590E+03 0.  0.
          5    1    3    3  502    0  0.10026389356E+03  0.61674276183E+01 -0.11129003464E+04  0.11174346318E+04  0.47000000000E+01 0. -1.
         -5    1    3    3    0  502 -0.30061414634E+02 -0.22530603915E+02 -0.21780961923E+03  0.22107563636E+03  0.47000000000E+01 0. -1.
        -11    1    1    2    0    0 -0.68853981990E+02  0.40303265163E+02 -0.17767325084E+03  0.19476398046E+03  0.00000000000E+00 0.  1.
         11    1    1    2    0    0 -0.13484969365E+01 -0.23940088867E+02 -0.11409356453E+03  0.11658596728E+03  0.00000000000E+00 0. -1.
<mgrwt>
<rscale>  0 0.13442232E+03</rscale>
<asrwt>0</asrwt>
<pdfrwt beam="2">  1        2 0.25171806E+00 0.14429389E+03</pdfrwt>
<pdfrwt beam="1">  1       -2 0.21064195E-02 0.14429389E+03</pdfrwt>
<totfact> 0.81237226E+03</totfact>
</mgrwt>
</event>
<event>
 6    1  0.5928109E-006  0.2840326E+03  0.7546771E-02  0.1093507E+00
         -2   -1    0    0    0  501 -0.00000000000E+00  0.00000000000E+00  0.79215585187E+02  0.79215585187E+02  0.00000000000E+00 0.  1.
          2   -1    0    0  501    0  0.00000000000E+00 -0.00000000000E+00 -0.25460435321E+03  0.25460435321E+03  0.00000000000E+00 0. -1.
          5    1    1    2  502    0 -0.34728162182E+02  0.57997186196E+02 -0.16320933065E+03  0.17671755563E+03  0.47000000000E+01 0. -1.
         -5    1    1    2    0  502 -0.24878224958E+01  0.58361764896E+01  0.31830737608E+02  0.32795366646E+02  0.47000000000E+01 0.  1.
        -11    1    1    2    0    0  0.12670433213E+02 -0.76898503548E+02 -0.73310268980E+01  0.78279394997E+02  0.00000000000E+00 0.  1.
         11    1    1    2    0    0  0.24545551465E+02  0.13065140862E+02 -0.36679148075E+02  0.46027621120E+02  0.00000000000E+00 0. -1.
<mgrwt>
<rscale>  0 0.28403262E+03</rscale>
<asrwt>0</asrwt>
<pdfrwt beam="2">  1        2 0.39169900E-01 0.28403262E+03</pdfrwt>
<pdfrwt beam="1">  1       -2 0.12187013E-01 0.28403262E+03</pdfrwt>
<totfact> 0.62669377E+03</totfact>
</mgrwt>
</event>
<event>
 7    1  0.5928109E-006  0.1389296E+03  0.7546771E-02  0.1227674E+00
          1   -1    0    0  501    0  0.00000000000E+00  0.00000000000E+00  0.94740211778E+03  0.94740211778E+03  0.00000000000E+00 0. -1.
         -1   -1    0    0    0  501 -0.00000000000E+00 -0.00000000000E+00 -0.15872955486E+02  0.15872955486E+02  0.00000000000E+00 0.  1.
         23    2    1    2    0    0 -0.51722313449E+02  0.31696026144E+02  0.55178689397E+03  0.56900809452E+03  0.12498639722E+03 0.  0.
          5    1    3    3  502    0  0.78559116649E+01  0.47596095277E+02  0.42695610001E+03  0.42969838837E+03  0.47000000000E+01 0.  1.
         -5    1    3    3    0  502 -0.59578225114E+02 -0.15900069133E+02  0.12483079396E+03  0.13930970615E+03  0.47000000000E+01 0.  1.
        -11    1    1    2    0    0  0.79033241578E+01  0.29523548734E+02  0.99490010354E+02  0.10407864633E+03  0.00000000000E+00 0.  1.
         11    1    1    2    0    0  0.43818989291E+02 -0.61219574878E+02  0.28025225797E+03  0.29018833241E+03  0.00000000000E+00 0. -1.
<mgrwt>
<rscale>  0 0.12985324E+03</rscale>
<asrwt>0</asrwt>
<pdfrwt beam="1">  1        1 0.14575413E+00 0.13892961E+03</pdfrwt>
<pdfrwt beam="2">  1       -1 0.24419939E-02 0.13892961E+03</pdfrwt>
<totfact> 0.86708569E+03</totfact>
</mgrwt>
</event>
<event>
 7    1  0.5928109E-006  0.1492479E+03  0.7546771E-02  0.1210589E+00
         -1   -1    0    0    0  501 -0.00000000000E+00  0.00000000000E+00  0.23034204412E+02  0.23034204412E+02  0.00000000000E+00 0.  1.
          1   -1    0    0  501    0  0.00000000000E+00 -0.00000000000E+00 -0.80741990514E+03  0.80741990514E+03  0.00000000000E+00 0. -1.
         23    2    1    2    0    0  0.81527857320E+02  0.18203014051E+01 -0.46604148038E+03  0.48935632195E+03  0.12499937351E+03 0.  0.
          5    1    3    3  502    0  0.70908325356E+02  0.53272466578E+02 -0.36164743785E+03  0.37239348222E+03  0.47000000000E+01 0. -1.
         -5    1    3    3    0  502  0.10619531964E+02 -0.51452165173E+02 -0.10439404253E+03  0.11696283973E+03  0.47000000000E+01 0. -1.
        -11    1    1    2    0    0  0.15553027730E+02 -0.16646076026E+02 -0.41361130025E+02  0.47220033837E+02  0.00000000000E+00 0.  1.
         11    1    1    2    0    0 -0.97080885050E+02  0.14825774621E+02 -0.27698309032E+03  0.29387775376E+03  0.00000000000E+00 0. -1.
<mgrwt>
<rscale>  0 0.14205598E+03</rscale>
<asrwt>0</asrwt>
<pdfrwt beam="2">  1        1 0.12421846E+00 0.14924794E+03</pdfrwt>
<pdfrwt beam="1">  1       -1 0.35437233E-02 0.14924794E+03</pdfrwt>
<totfact> 0.65054633E+03</totfact>
</mgrwt>
</event>
<event>
 7    1  0.5928109E-006  0.1395126E+03  0.7546771E-02  0.1225329E+00
         -3   -1    0    0    0  501 -0.00000000000E+00  0.00000000000E+00  0.13545740929E+03  0.13545740929E+03  0.00000000000E+00 0.  1.
          3   -1    0    0  501    0  0.00000000000E+00 -0.00000000000E+00 -0.11512376738E+03  0.11512376738E+03  0.00000000000E+00 0. -1.
         23    2    1    2    0    0 -0.56551980772E+02 -0.25304147732E+02  0.17581053574E+02  0.14061604112E+03  0.12500140460E+03 0.  0.
          5    1    3    3  502    0 -0.77565545021E+02  0.53878329613E+01  0.48722765208E+02  0.91877311497E+02  0.47000000000E+01 0. -1.
         -5    1    3    3    0  502  0.21013564250E+02 -0.30691980693E+02 -0.31141711634E+02  0.48738729619E+02  0.47000000000E+01 0. -1.
        -11    1    1    2    0    0 -0.23383702770E+02 -0.58469607766E+01  0.17689175743E+01  0.24168441716E+02  0.00000000000E+00 0. -1.
         11    1    1    2    0    0  0.79935683542E+02  0.31151108508E+02  0.98367076274E+00  0.85796693834E+02  0.00000000000E+00 0.  1.
<mgrwt>
<rscale>  0 0.13144374E+03</rscale>
<asrwt>0</asrwt>
<pdfrwt beam="2">  1        3 0.17711349E-01 0.13951264E+03</pdfrwt>
<pdfrwt beam="1">  1       -3 0.20839601E-01 0.13951264E+03</pdfrwt>
<totfact> 0.13400470E+03</totfact>
</mgrwt>
</event>
<event>
 7    1  0.5928109E-006  0.1431734E+03  0.7546771E-02  0.1217242E+00
          2   -1    0    0  501    0  0.00000000000E+00  0.00000000000E+00  0.44598383436E+03  0.44598383436E+03  0.00000000000E+00 0. -1.
         -2   -1    0    0    0  501 -0.00000000000E+00 -0.00000000000E+00 -0.61169112365E+02  0.61169112365E+02  0.00000000000E+00 0.  1.
         23    2    1    2    0    0 -0.42032819036E+02 -0.61360983961E+02  0.35535165243E+03  0.38311019934E+03  0.12233846379E+03 0.  0.
          5    1    3    3  502    0  0.11337733765E+02 -0.29970409392E+02  0.29413640157E+03  0.29591397800E+03  0.47000000000E+01 0. -1.
         -5    1    3    3    0  502 -0.53370552801E+02 -0.31390574569E+02  0.61215250860E+02  0.87196221339E+02  0.47000000000E+01 0.  1.
        -11    1    1    2    0    0  0.54729739586E+02 -0.30458760284E+01  0.14830913927E+02  0.56785365755E+02  0.00000000000E+00 0.  1.
         11    1    1    2    0    0 -0.12696920550E+02  0.64406859989E+02  0.14632155635E+02  0.67257381629E+02  0.00000000000E+00 0. -1.
<mgrwt>
<rscale>  0 0.13713147E+03</rscale>
<asrwt>0</asrwt>
<pdfrwt beam="1">  1        2 0.68612895E-01 0.14317342E+03</pdfrwt>
<pdfrwt beam="2">  1       -2 0.94106330E-02 0.14317342E+03</pdfrwt>
<totfact> 0.49969649E+03</totfact>
</mgrwt>
</event>
<event>
 7    1  0.5928109E-006  0.1275171E+03  0.7546771E-02  0.1246164E+00
         -2   -1    0    0    0  501 -0.00000000000E+00  0.00000000000E+00  0.24996384824E+02  0.24996384824E+02  0.00000000000E+00 0.  1.
          2   -1    0    0  501    0  0.00000000000E+00 -0.00000000000E+00 -0.49233457743E+03  0.49233457743E+03  0.00000000000E+00 0. -1.
         23    2    1    2    0    0 -0.25142493435E+02  0.15264261775E+01 -0.28310298076E+03  0.31049624671E+03  0.12500458612E+03 0.  0.
          5    1    3    3  502    0 -0.69297805628E+02  0.61671682047E+01 -0.23382476889E+03  0.24400068109E+03  0.47000000000E+01 0. -1.
         -5    1    3    3    0  502  0.44155312193E+02 -0.46407420272E+01 -0.49278211879E+02  0.66495565622E+02  0.47000000000E+01 0. -1.
        -11    1    1    2    0    0  0.44350940938E+01  0.31907475003E+02 -0.19912968659E+02  0.37871933427E+02  0.00000000000E+00 0.  1.
         11    1    1    2    0    0  0.20707399342E+02 -0.33433901180E+02 -0.16432224318E+03  0.16896278211E+03  0.00000000000E+00 0. -1.
<mgrwt>
<rscale>  0 0.11816003E+03</rscale>
<asrwt>0</asrwt>
<pdfrwt beam="2">  1        2 0.75743779E-01 0.12751714E+03</pdfrwt>
<pdfrwt beam="1">  1       -2 0.38455978E-02 0.12751714E+03</pdfrwt>
<totfact> 0.17330045E+04</totfact>
</mgrwt>
</event>
<event>
 6    1  0.5928109E-006  0.1594891E+03  0.7546771E-02  0.1204774E+00
          2   -1    0    0  501    0  0.00000000000E+00  0.00000000000E+00  0.95247073615E+03  0.95247073615E+03  0.00000000000E+00 0. -1.
         -2   -1    0    0    0  501 -0.00000000000E+00 -0.00000000000E+00 -0.21364600743E+02  0.21364600743E+02  0.00000000000E+00 0.  1.
          5    1    1    2  502    0  0.36787915216E+02  0.28315679620E+02  0.56202088817E+03  0.56395451692E+03  0.47000000000E+01 0. -1.
         -5    1    1    2    0  502 -0.49790727894E+02  0.39433710517E+02  0.11359196911E+03  0.13022810586E+03  0.47000000000E+01 0.  1.
        -11    1    1    2    0    0 -0.30115158558E+02 -0.47159156673E+02  0.79018908758E+02  0.96824050598E+02  0.00000000000E+00 0.  1.
         11    1    1    2    0    0  0.43117971236E+02 -0.20590233465E+02  0.17647436937E+03  0.18282866351E+03  0.00000000000E+00 0. -1.
<mgrwt>
<rscale>  0 0.14655249E+03</rscale>
<asrwt>0</asrwt>
<pdfrwt beam="1">  1        2 0.14653393E+00 0.15948912E+03</pdfrwt>
<pdfrwt beam="2">  1       -2 0.32868624E-02 0.15948912E+03</pdfrwt>
<totfact> 0.10094461E+04</totfact>
</mgrwt>
</event>
<event>
 7    1  0.5928109E-006  0.1801886E+03  0.7546771E-02  0.1170176E+00
         -1   -1    0    0    0  501 -0.00000000000E+00  0.00000000000E+00  0.10039253755E+03  0.10039253755E+03  0.00000000000E+00 0.  1.
          1   -1    0    0  501    0  0.00000000000E+00 -0.00000000000E+00 -0.31862082742E+03  0.31862082742E+03  0.00000000000E+00 0. -1.
         23    2    1    2    0    0 -0.13388875562E+03  0.46175797217E+02 -0.15503787014E+03  0.23770713185E+03  0.11139809794E+03 0.  0.
          5    1    3    3  502    0  0.17222353465E+02 -0.61217690265E+01 -0.82632117539E+01  0.20602334416E+02  0.47000000000E+01 0. -1.
         -5    1    3    3    0  502 -0.15111110909E+03  0.52297566244E+02 -0.14677465839E+03  0.21710479743E+03  0.47000000000E+01 0.  1.
        -11    1    1    2    0    0 -0.38996646835E+01  0.12517149910E+02 -0.22612521385E+02  0.26138334873E+02  0.00000000000E+00 0.  1.
         11    1    1    2    0    0  0.13778842030E+03 -0.58692947128E+02 -0.40577898344E+02  0.15516789825E+03  0.00000000000E+00 0. -1.
<mgrwt>
<rscale>  0 0.17756941E+03</rscale>
<asrwt>0</asrwt>
<pdfrwt beam="2">  1        1 0.49018589E-01 0.18018862E+03</pdfrwt>
<pdfrwt beam="1">  1       -1 0.15445006E-01 0.18018862E+03</pdfrwt>
<totfact> 0.24496406E+03</totfact>
</mgrwt>
</event>
<event>
 7    1  0.5928109E-006  0.1349800E+03  0.7546771E-02  0.1232470E+00
          1   -1    0    0  501    0  0.00000000000E+00  0.00000000000E+00  0.49864732670E+03  0.49864732670E+03  0.00000000000E+00 0. -1.
         -1   -1    0    0    0  501 -0.00000000000E+00 -0.00000000000E+00 -0.28900286437E+02  0.28900286437E+02  0.00000000000E+00 0.  1.
         23    2    1    2    0    0  0.26691657932E+02 -0.43360327265E+02  0.24933287519E+03  0.28352509954E+03  0.12500814709E+03 0.  0.
          5    1    3    3  502    0 -0.13730380775E+01 -0.46175332092E+02  0.17014057200E+02  0.49453156318E+02  0.47000000000E+01 0. -1.
         -5    1    3    3    0  502  0.28064696009E+02  0.28150048271E+01  0.23231881799E+03  0.23407194323E+03  0.47000000000E+01 0. -1.
        -11    1    1    2    0    0 -0.40513227691E+02  0.24420837187E+02  0.21475432915E+03  0.21990252566E+03  0.00000000000E+00 0. -1.
         11    1    1    2    0    0  0.13821569759E+02  0.18939490078E+02  0.56598359314E+01  0.24119987931E+02  0.00000000000E+00 0.  1.
<mgrwt>
<rscale>  0 0.12667796E+03</rscale>
<asrwt>0</asrwt>
<pdfrwt beam="1">  1        1 0.76714967E-01 0.13498000E+03</pdfrwt>
<pdfrwt beam="2">  1       -1 0.44461983E-02 0.13498000E+03</pdfrwt>
<totfact> 0.90724332E+03</totfact>
</mgrwt>
</event>
<event>
 7    1  0.5928109E-006  0.1620621E+03  0.7546771E-02  0.1193927E+00
          2   -1    0    0  501    0  0.00000000000E+00  0.00000000000E+00  0.10312821273E+03  0.10312821273E+03  0.00000000000E+00 0. -1.
         -2   -1    0    0    0  501 -0.00000000000E+00 -0.00000000000E+00 -0.23078069232E+03  0.23078069232E+03  0.00000000000E+00 0.  1.
         23    2    1    2    0    0 -0.30977581993E+01 -0.10309794135E+03 -0.28307493153E+02  0.16451581120E+03  0.12500142540E+03 0.  0.
          5    1    3    3  502    0  0.86529372646E+00  0.22026279874E+02 -0.32053717785E+02  0.39184647021E+02  0.47000000000E+01 0. -1.
         -5    1    3    3    0  502 -0.39630519258E+01 -0.12512422122E+03  0.37462246323E+01  0.12533116418E+03  0.47000000000E+01 0. -1.
        -11    1    1    2    0    0  0.42845271136E+02  0.81043807083E+02 -0.69021316899E+02  0.11475085234E+03  0.00000000000E+00 0.  1.
         11    1    1    2    0    0 -0.39747512936E+02  0.22054134263E+02 -0.30323669543E+02  0.54642241511E+02  0.00000000000E+00 0. -1.
<mgrwt>
<rscale>  0 0.15545399E+03</rscale>
<asrwt>0</asrwt>
<pdfrwt beam="1">  1        2 0.15865879E-01 0.16206214E+03</pdfrwt>
<pdfrwt beam="2">  1       -2 0.35504721E-01 0.16206214E+03</pdfrwt>
<totfact> 0.26526652E+03</totfact>
</mgrwt>
</event>
<event>
 7    1  0.5928109E-006  0.1657023E+03  0.7546771E-02  0.1189236E+00
          1   -1    0    0  501    0  0.00000000000E+00  0.00000000000E+00  0.10959257075E+03  0.10959257075E+03  0.00000000000E+00 0. -1.
         -1   -1    0    0    0  501 -0.00000000000E+00 -0.00000000000E+00 -0.22185471799E+03  0.22185471799E+03  0.00000000000E+00 0.  1.
         23    2    1    2    0    0  0.80296249062E+02 -0.73386330338E+02 -0.34497186411E+02  0.16925519485E+03  0.12499689604E+03 0.  0.
          5    1    3    3  502    0  0.53028340750E+02 -0.95210897655E+02 -0.61164729928E+02  0.12506132153E+03  0.47000000000E+01 0. -1.
         -5    1    3    3    0  502  0.27267908311E+02  0.21824567317E+02  0.26667543516E+02  0.44193873325E+02  0.47000000000E+01 0. -1.
        -11    1    1    2    0    0  0.15133534084E+02  0.25705564550E+02  0.58079217339E+00  0.29835167542E+02  0.00000000000E+00 0.  1.
         11    1    1    2    0    0 -0.95429783145E+02  0.47680765788E+02 -0.78345753002E+02  0.13235692634E+03  0.00000000000E+00 0. -1.
<mgrwt>
<rscale>  0 0.15952304E+03</rscale>
<asrwt>0</asrwt>
<pdfrwt beam="1">  1        1 0.16860396E-01 0.16570234E+03</pdfrwt>
<pdfrwt beam="2">  1       -1 0.34131495E-01 0.16570234E+03</pdfrwt>
<totfact> 0.25508129E+03</totfact>
</mgrwt>
</event>
<event>
 7    1  0.5928109E-006  0.1266280E+03  0.7546771E-02  0.1246921E+00
          3   -1    0    0  501    0  0.00000000000E+00  0.00000000000E+00  0.25454971353E+02  0.25454971353E+02  0.00000000000E+00 0. -1.
         -3   -1    0    0    0  501 -0.00000000000E+00 -0.00000000000E+00 -0.49175253465E+03  0.49175253465E+03  0.00000000000E+00 0.  1.
         23    2    1    2    0    0  0.19679968216E+02 -0.47327208325E+01 -0.22742011915E+03  0.26029704924E+03  0.12499977381E+03 0.  0.
          5    1    3    3  502    0 -0.51151792088E+02  0.48786939586E+01 -0.12575444998E+03  0.13592858117E+03  0.47000000000E+01 0.  1.
         -5    1    3    3    0  502  0.70831760304E+02 -0.96114147910E+01 -0.10166566917E+03  0.12436846807E+03  0.47000000000E+01 0.  1.
        -11    1    1    2    0    0 -0.55945526867E+02  0.11852007782E+02 -0.13321474753E+03  0.14497082818E+03  0.00000000000E+00 0.  1.
         11    1    1    2    0    0  0.36265558651E+02 -0.71192869491E+01 -0.10566269662E+03  0.11193962858E+03  0.00000000000E+00 0. -1.
<mgrwt>
<rscale>  0 0.11771119E+03</rscale>
<asrwt>0</asrwt>
<pdfrwt beam="1">  1        3 0.39161496E-02 0.12662797E+03</pdfrwt>
<pdfrwt beam="2">  1       -3 0.75654233E-01 0.12662797E+03</pdfrwt>
<totfact> 0.12865517E+03</totfact>
</mgrwt>
</event>
<event>
 7    1  0.5928109E-006  0.1631481E+03  0.7546771E-02  0.1192437E+00
          1   -1    0    0  501    0  0.00000000000E+00  0.00000000000E+00  0.43493334037E+03  0.43493334037E+03  0.00000000000E+00 0. -1.
         -1   -1    0    0    0  501 -0.00000000000E+00 -0.00000000000E+00 -0.53862537721E+02  0.53862537721E+02  0.00000000000E+00 0.  1.
         23    2    1    2    0    0  0.12184507995E+02 -0.10413869868E+03  0.24470660592E+03  0.29410648662E+03  0.12499588672E+03 0.  0.
          5    1    3    3  502    0 -0.26450110736E+02 -0.34051135397E+02  0.78848679024E+01  0.44083435910E+02  0.47000000000E+01 0.  1.
         -5    1    3    3    0  502  0.38634618731E+02 -0.70087563283E+02  0.23682173801E+03  0.25002305071E+03  0.47000000000E+01 0.  1.
        -11    1    1    2    0    0  0.38322285988E+02  0.54909287078E+02  0.80547810554E+02  0.10474529677E+03  0.00000000000E+00 0.  1.
         11    1    1    2    0    0 -0.50506793983E+02  0.49229411603E+02  0.55816386183E+02  0.89944094701E+02  0.00000000000E+00 0. -1.
<mgrwt>
<rscale>  0 0.15673133E+03</rscale>
<asrwt>0</asrwt>
<pdfrwt beam="1">  1        1 0.66912819E-01 0.16314810E+03</pdfrwt>
<pdfrwt beam="2">  1       -1 0.82865446E-02 0.16314810E+03</pdfrwt>
<totfact> 0.43156944E+03</totfact>
</mgrwt>
</event>
<event>
 7    1  0.5928109E-006  0.1468543E+03  0.7546771E-02  0.1214363E+00
          1   -1    0    0  501    0  0.00000000000E+00  0.00000000000E+00  0.98114494125E+03  0.98114494125E+03  0.00000000000E+00 0. -1.
         -1   -1    0    0    0  501 -0.00000000000E+00 -0.00000000000E+00 -0.24433421208E+02  0.24433421208E+02  0.00000000000E+00 0.  1.
         23    2    1    2    0    0  0.76077571081E+02 -0.12395373686E+02  0.77334338874E+03  0.78716337859E+03  0.12499898228E+03 0.  0.
          5    1    3    3  502    0  0.29130357796E+02 -0.37623689110E+00  0.29492382312E+02  0.41720617373E+02  0.47000000000E+01 0.  1.
         -5    1    3    3    0  502  0.46947213285E+02 -0.12019136795E+02  0.74385100643E+03  0.74544276122E+03  0.47000000000E+01 0.  1.
        -11    1    1    2    0    0 -0.54964441090E+02 -0.64313345773E+01  0.30974717643E+02  0.63418333168E+02  0.00000000000E+00 0.  1.
         11    1    1    2    0    0 -0.21113129991E+02  0.18826708264E+02  0.15239341365E+03  0.15499665070E+03  0.00000000000E+00 0. -1.
<mgrwt>
<rscale>  0 0.13923394E+03</rscale>
<asrwt>0</asrwt>
<pdfrwt beam="1">  1        1 0.15094534E+00 0.14685431E+03</pdfrwt>
<pdfrwt beam="2">  1       -1 0.37589886E-02 0.14685431E+03</pdfrwt>
<totfact> 0.43727283E+03</totfact>
</mgrwt>
</event>
<event>
 7    1  0.5928109E-006  0.2219852E+03  0.7546771E-02  0.1135725E+00
          2   -1    0    0  501    0  0.00000000000E+00  0.00000000000E+00  0.54851099646E+03  0.54851099646E+03  0.00000000000E+00 0. -1.
         -2   -1    0    0    0  501 -0.00000000000E+00 -0.00000000000E+00 -0.99857136861E+02  0.99857136861E+02  0.00000000000E+00 0.  1.
         23    2    1    2    0    0 -0.16092220248E+03  0.88055592011E+02  0.36495128254E+03  0.42716139486E+03  0.12501070392E+03 0.  0.
          5    1    3    3  502    0 -0.10960693164E+03  0.74426497147E+00  0.25501725173E+03  0.27761506097E+03  0.47000000000E+01 0. -1.
         -5    1    3    3    0  502 -0.51315270840E+02  0.87311327040E+02  0.10993403081E+03  0.14954633389E+03  0.47000000000E+01 0. -1.
        -11    1    1    2    0    0  0.37905976618E+02 -0.25428750444E+02  0.68523535582E+02  0.82334435937E+02  0.00000000000E+00 0. -1.
         11    1    1    2    0    0  0.12301622586E+03 -0.62626841567E+02  0.15179041482E+02  0.13887230253E+03  0.00000000000E+00 0.  1.
<mgrwt>
<rscale>  0 0.21754735E+03</rscale>
<asrwt>0</asrwt>
<pdfrwt beam="1">  1        2 0.84386305E-01 0.22198518E+03</pdfrwt>
<pdfrwt beam="2">  1       -2 0.15362637E-01 0.22198518E+03</pdfrwt>
<totfact> 0.18338224E+03</totfact>
</mgrwt>
</event>
<event>
 7    1  0.5928109E-006  0.1428136E+03  0.7546771E-02  0.1219602E+00
         -2   -1    0    0    0  501 -0.00000000000E+00  0.00000000000E+00  0.64619991130E+02  0.64619991130E+02  0.00000000000E+00 0.  1.
          2   -1    0    0  501    0  0.00000000000E+00 -0.00000000000E+00 -0.25933416115E+03  0.25933416115E+03  0.00000000000E+00 0. -1.
         23    2    1    2    0    0 -0.50338155375E+02  0.47291858045E+02 -0.11829668327E+03  0.18544494539E+03  0.12500109110E+03 0.  0.
          5    1    3    3  502    0 -0.40480346429E+02 -0.33694063032E+02 -0.78249957812E+02  0.94440956307E+02  0.47000000000E+01 0. -1.
         -5    1    3    3    0  502 -0.98578089464E+01  0.80985921076E+02 -0.40046725456E+02  0.91003989086E+02  0.47000000000E+01 0. -1.
        -11    1    1    2    0    0  0.58414474287E+02  0.26659414454E+01 -0.63412766643E+02  0.86258547538E+02  0.00000000000E+00 0. -1.
         11    1    1    2    0    0 -0.80763189121E+01 -0.49957799490E+02 -0.13004720105E+02  0.52250659346E+02  0.00000000000E+00 0.  1.
<mgrwt>
<rscale>  0 0.13543867E+03</rscale>
<asrwt>0</asrwt>
<pdfrwt beam="2">  1        2 0.39897562E-01 0.14281359E+03</pdfrwt>
<pdfrwt beam="1">  1       -2 0.99415374E-02 0.14281359E+03</pdfrwt>
<totfact> 0.81712304E+03</totfact>
</mgrwt>
</event>
<event>
 6    1  0.5928109E-006  0.2521579E+03  0.7546771E-02  0.1151569E+00
          2   -1    0    0  501    0  0.00000000000E+00  0.00000000000E+00  0.31342785911E+03  0.31342785911E+03  0.00000000000E+00 0. -1.
         -2   -1    0    0    0  501 -0.00000000000E+00 -0.00000000000E+00 -0.98113475502E+02  0.98113475502E+02  0.00000000000E+00 0.  1.
          5    1    1    2  502    0  0.10579579420E+02  0.92494181853E+02  0.16486102111E+03  0.18938940694E+03  0.47000000000E+01 0. -1.
         -5    1    1    2    0  502 -0.32918520981E+02 -0.82293664947E+02 -0.33578138900E+02  0.94897090187E+02  0.47000000000E+01 0.  1.
        -11    1    1    2    0    0  0.31661810961E+02 -0.41830384851E+02  0.77582076115E+02  0.93654844533E+02  0.00000000000E+00 0.  1.
         11    1    1    2    0    0 -0.93228693995E+01  0.31629867946E+02  0.64494252797E+01  0.33599992955E+02  0.00000000000E+00 0. -1.
<mgrwt>
<rscale>  0 0.19784641E+03</rscale>
<asrwt>0</asrwt>
<pdfrwt beam="1">  1        2 0.48219670E-01 0.25215792E+03</pdfrwt>
<pdfrwt beam="2">  1       -2 0.15094381E-01 0.25215792E+03</pdfrwt>
<totfact> 0.35038683E+03</totfact>
</mgrwt>
</event>
<event>
 7    1  0.5928109E-006  0.1285643E+03  0.7546771E-02  0.1242645E+00
          1   -1    0    0  501    0  0.00000000000E+00  0.00000000000E+00  0.11834376024E+04  0.11834376024E+04  0.00000000000E+00 0. -1.
         -1   -1    0    0    0  501 -0.00000000000E+00 -0.00000000000E+00 -0.11280370672E+02  0.11280370672E+02  0.00000000000E+00 0.  1.
         23    2    1    2    0    0  0.36944623024E+01 -0.29833884741E+02  0.77131341121E+03  0.78195470181E+03  0.12500027058E+03 0.  0.
          5    1    3    3  502    0  0.55409555625E+02  0.13126607288E+02  0.25901006211E+03  0.26523730685E+03  0.47000000000E+01 0. -1.
         -5    1    3    3    0  502 -0.51715093322E+02 -0.42960492029E+02  0.51230334910E+03  0.51671739495E+03  0.47000000000E+01 0. -1.
        -11    1    1    2    0    0 -0.14932770050E+02  0.62284650124E+02  0.25262167268E+03  0.26061480151E+03  0.00000000000E+00 0. -1.
         11    1    1    2    0    0  0.11238307748E+02 -0.32450765383E+02  0.14822214781E+03  0.15214846971E+03  0.00000000000E+00 0.  1.
<mgrwt>
<rscale>  0 0.12027466E+03</rscale>
<asrwt>0</asrwt>
<pdfrwt beam="1">  1        1 0.18206723E+00 0.12856429E+03</pdfrwt>
<pdfrwt beam="2">  1       -1 0.17354426E-02 0.12856429E+03</pdfrwt>
<totfact> 0.95857824E+03</totfact>
</mgrwt>
</event>
<event>
 7    1  0.5928109E-006  0.1590471E+03  0.7546771E-02  0.1200564E+00
          1   -1    0    0  501    0  0.00000000000E+00  0.00000000000E+00  0.59343402668E+03  0.59343402668E+03  0.00000000000E+00 0. -1.
         -1   -1    0    0    0  501 -0.00000000000E+00 -0.00000000000E+00 -0.41169839576E+02  0.41169839576E+02  0.00000000000E+00 0.  1.
         23    2    1    2    0    0 -0.78658745877E+02  0.59026922022E+02  0.43350868936E+03  0.46176375929E+03  0.12499843926E+03 0.  0.
          5    1    3    3  502    0 -0.11184400986E+03  0.35414703541E+02  0.33858387550E+03  0.35836352286E+03  0.47000000000E+01 0.  1.
         -5    1    3    3    0  502  0.33185263985E+02  0.23612218482E+02  0.94924813854E+02  0.10340023642E+03  0.47000000000E+01 0.  1.
        -11    1    1    2    0    0  0.58330727496E+02 -0.83360731589E+00  0.32366506655E+02  0.66714012204E+02  0.00000000000E+00 0.  1.
         11    1    1    2    0    0  0.20328018382E+02 -0.58193314706E+02  0.86388991092E+02  0.10612609476E+03  0.00000000000E+00 0. -1.
<mgrwt>
<rscale>  0 0.14992573E+03</rscale>
<asrwt>0</asrwt>
<pdfrwt beam="1">  1        1 0.91297537E-01 0.15904712E+03</pdfrwt>
<pdfrwt beam="2">  1       -1 0.63338219E-02 0.15904712E+03</pdfrwt>
<totfact> 0.42918029E+03</totfact>
</mgrwt>
</event>
<event>
 6    1  0.5928109E-006  0.2235372E+03  0.7546771E-02  0.1136728E+00
          2   -1    0    0  501    0  0.00000000000E+00  0.00000000000E+00  0.86460826606E+03  0.86460826606E+03  0.00000000000E+00 0. -1.
         -2   -1    0    0    0  501 -0.00000000000E+00 -0.00000000000E+00 -0.94065515030E+02  0.94065515030E+02  0.00000000000E+00 0.  1.
          5    1    1    2  502    0  0.66974578978E+02 -0.49531920707E+02  0.58810032774E+03  0.59398913365E+03  0.47000000000E+01 0. -1.
         -5    1    1    2    0  502  0.64787696427E+02 -0.64100985813E+02  0.13561405205E+03  0.16346144226E+03  0.47000000000E+01 0.  1.
        -11    1    1    2    0    0  0.11652064671E+02  0.20149461304E+02  0.13202642252E+02  0.26759692905E+02  0.00000000000E+00 0. -1.
         11    1    1    2    0    0 -0.14341434008E+03  0.93483445216E+02  0.33625728984E+02  0.17446351228E+03  0.00000000000E+00 0.  1.
<mgrwt>
<rscale>  0 0.21622663E+03</rscale>
<asrwt>0</asrwt>
<pdfrwt beam="1">  1        2 0.13301665E+00 0.22353718E+03</pdfrwt>
<pdfrwt beam="2">  1       -2 0.14471618E-01 0.22353718E+03</pdfrwt>
<totfact> 0.11665859E+03</totfact>
</mgrwt>
</event>
<event>
 7    1  0.5928109E-006  0.1556928E+03  0.7546771E-02  0.1201785E+00
          2   -1    0    0  501    0  0.00000000000E+00  0.00000000000E+00  0.58138970260E+03  0.58138970260E+03  0.00000000000E+00 0. -1.
         -2   -1    0    0    0  501 -0.00000000000E+00 -0.00000000000E+00 -0.35247075213E+02  0.35247075213E+02  0.00000000000E+00 0.  1.
         23    2    1    2    0    0 -0.87615569043E+02 -0.30625638196E+02  0.30952947723E+03  0.34648049834E+03  0.12500328317E+03 0.  0.
          5    1    3    3  502    0 -0.50353454602E+02 -0.33036029417E+02  0.30215008998E+03  0.30812922046E+03  0.47000000000E+01 0. -1.
         -5    1    3    3    0  502 -0.37262114441E+02  0.24103912212E+01  0.73793872493E+01  0.38351277875E+02  0.47000000000E+01 0. -1.
        -11    1    1    2    0    0  0.14451698021E+02  0.51186989583E+02  0.11574560772E+03  0.12738133766E+03  0.00000000000E+00 0.  1.
         11    1    1    2    0    0  0.73163871022E+02 -0.20561351387E+02  0.12086754244E+03  0.14277494181E+03  0.00000000000E+00 0. -1.
<mgrwt>
<rscale>  0 0.14893716E+03</rscale>
<asrwt>0</asrwt>
<pdfrwt beam="1">  1        2 0.89444563E-01 0.15569277E+03</pdfrwt>
<pdfrwt beam="2">  1       -2 0.54226274E-02 0.15569277E+03</pdfrwt>
<totfact> 0.87367138E+03</totfact>
</mgrwt>
</event>
<event>
 7    1  0.5928109E-006  0.2302796E+03  0.7546771E-02  0.1129883E+00
         -2   -1    0    0    0  501 -0.00000000000E+00  0.00000000000E+00  0.13359009195E+03  0.13359009195E+03  0.00000000000E+00 0.  1.
          2   -1    0    0  501    0  0.00000000000E+00 -0.00000000000E+00 -0.38251610423E+03  0.38251610423E+03  0.00000000000E+00 0. -1.
         23    2    1    2    0    0 -0.14845321298E+03  0.12395940586E+03 -0.18412709416E+03  0.29484142587E+03  0.12499755541E+03 0.  0.
          5    1    3    3  502    0 -0.30963310171E+02  0.82639177411E+02 -0.13397346945E+03  0.16049592124E+03  0.47000000000E+01 0. -1.
         -5    1    3    3    0  502 -0.11748990281E+03  0.41320228452E+02 -0.50153624714E+02  0.13434550463E+03  0.47000000000E+01 0. -1.
        -11    1    1    2    0    0  0.10842065773E+03 -0.43663861739E+02 -0.60078084954E+02  0.13141897936E+03  0.00000000000E+00 0. -1.
         11    1    1    2    0    0  0.40032555256E+02 -0.80295544125E+02 -0.47208331620E+01  0.89845790955E+02  0.00000000000E+00 0.  1.
<mgrwt>
<rscale>  0 0.22545083E+03</rscale>
<asrwt>0</asrwt>
<pdfrwt beam="2">  1        2 0.58848631E-01 0.23027957E+03</pdfrwt>
<pdfrwt beam="1">  1       -2 0.20552322E-01 0.23027957E+03</pdfrwt>
<totfact> 0.16739409E+03</totfact>
</mgrwt>
</event>
<event>
 7    1  0.5928109E-006  0.2165929E+03  0.7546771E-02  0.1139626E+00
         -2   -1    0    0    0  501 -0.00000000000E+00  0.00000000000E+00  0.18025614827E+03  0.18025614827E+03  0.00000000000E+00 0.  1.
          2   -1    0    0  501    0  0.00000000000E+00 -0.00000000000E+00 -0.24962876054E+03  0.24962876054E+03  0.00000000000E+00 0. -1.
         23    2    1    2    0    0 -0.15888313492E+03  0.77846505068E+02 -0.75091753382E+02  0.22924057711E+03  0.12493415007E+03 0.  0.
          5    1    3    3  502    0 -0.28194213719E+02  0.28640626646E+02 -0.79761516235E+02  0.89438183423E+02  0.47000000000E+01 0.  1.
         -5    1    3    3    0  502 -0.13068892120E+03  0.49205878421E+02  0.46697628530E+01  0.13980239368E+03  0.47000000000E+01 0.  1.
        -11    1    1    2    0    0  0.29321788908E+02 -0.22363436085E+02  0.41212400437E+02  0.55302373620E+02  0.00000000000E+00 0.  1.
         11    1    1    2    0    0  0.12956134601E+03 -0.55483068983E+02 -0.35493259328E+02  0.14534195809E+03  0.00000000000E+00 0. -1.
<mgrwt>
<rscale>  0 0.21246907E+03</rscale>
<asrwt>0</asrwt>
<pdfrwt beam="2">  1        2 0.38404425E-01 0.21659287E+03</pdfrwt>
<pdfrwt beam="1">  1       -2 0.27731715E-01 0.21659287E+03</pdfrwt>
<totfact> 0.15662123E+03</totfact>
</mgrwt>
</event>
<event>
 7    1  0.5928109E-006  0.1572337E+03  0.7546771E-02  0.1200164E+00
          2   -1    0    0  501    0  0.00000000000E+00  0.00000000000E+00  0.63617281501E+02  0.63617281501E+02  0.00000000000E+00 0. -1.
         -2   -1    0    0    0  501 -0.00000000000E+00 -0.00000000000E+00 -0.33087491178E+03  0.33087491178E+03  0.00000000000E+00 0.  1.
         23    2    1    2    0    0 -0.76641995349E+02  0.56768447831E+02 -0.12359554508E+03  0.19999571737E+03  0.12500310430E+03 0.  0.
          5    1    3    3  502    0 -0.71707601025E+02  0.34533700688E+02 -0.58140352298E+01  0.79940287300E+02  0.47000000000E+01 0.  1.
         -5    1    3    3    0  502 -0.49343943244E+01  0.22234747142E+02 -0.11778150985E+03  0.12005543007E+03  0.47000000000E+01 0.  1.
        -11    1    1    2    0    0  0.38164915497E+02  0.20985652982E+02 -0.38160327149E+02  0.57906553809E+02  0.00000000000E+00 0. -1.
         11    1    1    2    0    0  0.38477079852E+02 -0.77754100812E+02 -0.10550175805E+03  0.13658992210E+03  0.00000000000E+00 0.  1.
<mgrwt>
<rscale>  0 0.15025154E+03</rscale>
<asrwt>0</asrwt>
<pdfrwt beam="1">  1        2 0.97872739E-02 0.15723367E+03</pdfrwt>
<pdfrwt beam="2">  1       -2 0.50903833E-01 0.15723367E+03</pdfrwt>
<totfact> 0.23688132E+03</totfact>
</mgrwt>
</event>
<event>
 7    1  0.5928109E-006  0.1261950E+03  0.7546771E-02  0.1248542E+00
          1   -1    0    0  501    0  0.00000000000E+00  0.00000000000E+00  0.40998326963E+03  0.40998326963E+03  0.00000000000E+00 0. -1.
         -1   -1    0    0    0  501 -0.00000000000E+00 -0.00000000000E+00 -0.34376933451E+02  0.34376933451E+02  0.00000000000E+00 0.  1.
         23    2    1    2    0    0 -0.46336451361E+01  0.16659435528E+02  0.29805943704E+03  0.32367359305E+03  0.12500463741E+03 0.  0.
          5    1    3    3  502    0 -0.54368977759E+02 -0.25753206094E+02  0.13142462603E+03  0.14461582103E+03  0.47000000000E+01 0. -1.
         -5    1    3    3    0  502  0.49735332623E+02  0.42412641622E+02  0.16663481101E+03  0.17905777202E+03  0.47000000000E+01 0. -1.
        -11    1    1    2    0    0 -0.35419205539E+02 -0.27978021462E+02  0.61030467903E+02  0.75907890357E+02  0.00000000000E+00 0. -1.
         11    1    1    2    0    0  0.40052850675E+02  0.11318585934E+02  0.16516431241E+02  0.44778719674E+02  0.00000000000E+00 0.  1.
<mgrwt>
<rscale>  0 0.11675844E+03</rscale>
<asrwt>0</asrwt>
<pdfrwt beam="1">  1        1 0.63074346E-01 0.12619496E+03</pdfrwt>
<pdfrwt beam="2">  1       -1 0.52887593E-02 0.12619496E+03</pdfrwt>
<totfact> 0.89801610E+03</totfact>
</mgrwt>
</event>
<event>
 7    1  0.5928109E-006  0.1262492E+03  0.7546771E-02  0.1247027E+00
         -1   -1    0    0    0  501 -0.00000000000E+00  0.00000000000E+00  0.84278974870E+02  0.84278974870E+02  0.00000000000E+00 0.  1.
          1   -1    0    0  501    0  0.00000000000E+00 -0.00000000000E+00 -0.15138778019E+03  0.15138778019E+03  0.00000000000E+00 0. -1.
         23    2    1    2    0    0 -0.12406357656E+02 -0.12883838887E+02 -0.61139804298E+02  0.14027449771E+03  0.12497578974E+03 0.  0.
          5    1    3    3  502    0 -0.66517866270E+02 -0.76591122950E+01 -0.52089934241E+02  0.84963167216E+02  0.47000000000E+01 0.  1.
         -5    1    3    3    0  502  0.54111508614E+02 -0.52247265919E+01 -0.90498700576E+01  0.55311330489E+02  0.47000000000E+01 0.  1.
        -11    1    1    2    0    0 -0.10718799432E+02  0.33098613608E+02  0.31507219248E+02  0.46937359841E+02  0.00000000000E+00 0.  1.
         11    1    1    2    0    0  0.23125157088E+02 -0.20214774721E+02 -0.37476220268E+02  0.48454897512E+02  0.00000000000E+00 0. -1.
<mgrwt>
<rscale>  0 0.11764860E+03</rscale>
<asrwt>0</asrwt>
<pdfrwt beam="2">  1        1 0.23290428E-01 0.12624919E+03</pdfrwt>
<pdfrwt beam="1">  1       -1 0.12965996E-01 0.12624919E+03</pdfrwt>
<totfact> 0.79897906E+03</totfact>
</mgrwt>
</event>
<event>
 7    1  0.5928109E-006  0.1317066E+03  0.7546771E-02  0.1236322E+00
         -2   -1    0    0    0  501 -0.00000000000E+00  0.00000000000E+00  0.64430386702E+03  0.64430386702E+03  0.00000000000E+00 0.  1.
          2   -1    0    0  501    0  0.00000000000E+00 -0.00000000000E+00 -0.21586571108E+02  0.21586571108E+02  0.00000000000E+00 0. -1.
         23    2    1    2    0    0 -0.41183015739E+02  0.49460946633E+01  0.34596473425E+03  0.37018674386E+03  0.12500449331E+03 0.  0.
          5    1    3    3  502    0 -0.49213021512E+02 -0.45686870661E+02  0.11239771103E+03  0.13101353778E+03  0.47000000000E+01 0.  1.
         -5    1    3    3    0  502  0.80300057727E+01  0.50632965325E+02  0.23356702322E+03  0.23917320608E+03  0.47000000000E+01 0.  1.
        -11    1    1    2    0    0  0.51601991258E+01  0.40798422705E+02  0.16050519742E+03  0.16568964165E+03  0.00000000000E+00 0.  1.
         11    1    1    2    0    0  0.36022816613E+02 -0.45744517368E+02  0.11624736424E+03  0.13001405262E+03  0.00000000000E+00 0. -1.
<mgrwt>
<rscale>  0 0.12420178E+03</rscale>
<asrwt>0</asrwt>
<pdfrwt beam="2">  1        2 0.33210114E-02 0.13170660E+03</pdfrwt>
<pdfrwt beam="1">  1       -2 0.99123657E-01 0.13170660E+03</pdfrwt>
<totfact> 0.22806427E+03</totfact>
</mgrwt>
</event>
<event>
 7    1  0.5928109E-006  0.1631695E+03  0.7546771E-02  0.1192792E+00
          2   -1    0    0  501    0  0.00000000000E+00  0.00000000000E+00  0.72078698861E+03  0.72078698861E+03  0.00000000000E+00 0. -1.
         -2   -1    0    0    0  501 -0.00000000000E+00 -0.00000000000E+00 -0.31422752217E+02  0.31422752217E+02  0.00000000000E+00 0.  1.
         23    2    1    2    0    0 -0.10468490295E+03 -0.64106352514E+01  0.37439122535E+03  0.40840307784E+03  0.12499703686E+03 0.  0.
          5    1    3    3  502    0 -0.97559410846E+02 -0.42937370312E+02  0.34387636808E+03  0.36004791756E+03  0.47000000000E+01 0. -1.
         -5    1    3    3    0  502 -0.71254921031E+01  0.36526735061E+02  0.30514857264E+02  0.48355160281E+02  0.47000000000E+01 0. -1.
        -11    1    1    2    0    0  0.23018462943E+02 -0.19348697933E+02  0.18709469795E+02  0.35415618136E+02  0.00000000000E+00 0.  1.
         11    1    1    2    0    0  0.81666440005E+02  0.25759333184E+02  0.29626354125E+03  0.30839104485E+03  0.00000000000E+00 0. -1.
<mgrwt>
<rscale>  0 0.15642610E+03</rscale>
<asrwt>0</asrwt>
<pdfrwt beam="1">  1        2 0.11089029E+00 0.16316950E+03</pdfrwt>
<pdfrwt beam="2">  1       -2 0.48342701E-02 0.16316950E+03</pdfrwt>
<totfact> 0.81033298E+03</totfact>
</mgrwt>
</event>
<event>
 7    1  0.5928109E-006  0.1799179E+03  0.7546771E-02  0.1173780E+00
         -2   -1    0    0    0  501 -0.00000000000E+00  0.00000000000E+00  0.17799053483E+02  0.17799053483E+02  0.00000000000E+00 0.  1.
          2   -1    0    0  501    0  0.00000000000E+00 -0.00000000000E+00 -0.16608269299E+04  0.16608269299E+04  0.00000000000E+00 0. -1.
         23    2    1    2    0    0 -0.64157868968E+02  0.11238427498E+03 -0.10391777524E+04  0.10546377759E+04  0.12499591934E+03 0.  0.
          5    1    3    3  502    0 -0.86377431417E+01 -0.42539277498E+01 -0.50243298521E+03  0.50254721285E+03  0.47000000000E+01 0. -1.
         -5    1    3    3    0  502 -0.55520125826E+02  0.11663820273E+03 -0.53674476718E+03  0.55209056305E+03  0.47000000000E+01 0. -1.
        -11    1    1    2    0    0  0.14528964096E+02 -0.87907517848E+02 -0.48193631538E+03  0.49010349373E+03  0.00000000000E+00 0. -1.
         11    1    1    2    0    0  0.49628904871E+02 -0.24476757133E+02 -0.12191380860E+03  0.13388471371E+03  0.00000000000E+00 0.  1.
<mgrwt>
<rscale>  0 0.17396049E+03</rscale>
<asrwt>0</asrwt>
<pdfrwt beam="2">  1        2 0.25551193E+00 0.17991786E+03</pdfrwt>
<pdfrwt beam="1">  1       -2 0.27383149E-02 0.17991786E+03</pdfrwt>
<totfact> 0.54004777E+03</totfact>
</mgrwt>
</event>
<event>
 7    1  0.5928109E-006  0.1258411E+03  0.7546771E-02  0.1251168E+00
          1   -1    0    0  501    0  0.00000000000E+00  0.00000000000E+00  0.76720090157E+03  0.76720090157E+03  0.00000000000E+00 0.  1.
         -1   -1    0    0    0  501 -0.00000000000E+00 -0.00000000000E+00 -0.18222393852E+02  0.18222393852E+02  0.00000000000E+00 0. -1.
         23    2    1    2    0    0  0.70205900829E+00  0.14515224719E+02  0.59194373116E+03  0.60517216949E+03  0.12499915688E+03 0.  0.
          5    1    3    3  502    0  0.25661293876E+02  0.25988340601E+02  0.56568122801E+03  0.56687850337E+03  0.47000000000E+01 0.  1.
         -5    1    3    3    0  502 -0.24959234867E+02 -0.11473115881E+02  0.26262503150E+02  0.38293666120E+02  0.47000000000E+01 0.  1.
        -11    1    1    2    0    0 -0.59770265877E+00  0.22629365327E+02  0.13537067354E+03  0.13725037223E+03  0.00000000000E+00 0.  1.
         11    1    1    2    0    0 -0.10435634952E+00 -0.37144590047E+02  0.21664103021E+02  0.43000753711E+02  0.00000000000E+00 0. -1.
<mgrwt>
<rscale>  0 0.11523670E+03</rscale>
<asrwt>0</asrwt>
<pdfrwt beam="1">  1        1 0.11803088E+00 0.12584107E+03</pdfrwt>
<pdfrwt beam="2">  1       -1 0.28034458E-02 0.12584107E+03</pdfrwt>
<totfact> 0.97889568E+03</totfact>
</mgrwt>
</event>
<event>
 7    1  0.5928109E-006  0.1321112E+03  0.7546771E-02  0.1237137E+00
         -1   -1    0    0    0  501 -0.00000000000E+00  0.00000000000E+00  0.21987667484E+02  0.21987667484E+02  0.00000000000E+00 0.  1.
          1   -1    0    0  501    0  0.00000000000E+00 -0.00000000000E+00 -0.81857896802E+03  0.81857896802E+03  0.00000000000E+00 0. -1.
         23    2    1    2    0    0 -0.34000064299E+02 -0.25890699757E+02 -0.64324413464E+03  0.65667068935E+03  0.12500817890E+03 0.  0.
          5    1    3    3  502    0 -0.36163322724E+02 -0.53290567392E+02 -0.15883090275E+03  0.17145558070E+03  0.47000000000E+01 0.  1.
         -5    1    3    3    0  502  0.21632584249E+01  0.27399867636E+02 -0.48441323189E+03  0.48521510865E+03  0.47000000000E+01 0.  1.
        -11    1    1    2    0    0  0.59029094016E+02  0.19649549566E+02 -0.57771539605E+02  0.84900468354E+02  0.00000000000E+00 0.  1.
         11    1    1    2    0    0 -0.25029029717E+02  0.62411501902E+01 -0.95575626293E+02  0.98995477804E+02  0.00000000000E+00 0. -1.
<mgrwt>
<rscale>  0 0.12368639E+03</rscale>
<asrwt>0</asrwt>
<pdfrwt beam="2">  1        1 0.12593523E+00 0.13211123E+03</pdfrwt>
<pdfrwt beam="1">  1       -1 0.33827180E-02 0.13211123E+03</pdfrwt>
<totfact> 0.67780010E+03</totfact>
</mgrwt>
</event>
<event>
 7    1  0.5928109E-006  0.1673832E+03  0.7546771E-02  0.1187593E+00
         -3   -1    0    0    0  501 -0.00000000000E+00  0.00000000000E+00  0.61559827186E+02  0.61559827186E+02  0.00000000000E+00 0.  1.
          3   -1    0    0  501    0  0.00000000000E+00 -0.00000000000E+00 -0.39177498657E+03  0.39177498657E+03  0.00000000000E+00 0. -1.
         23    2    1    2    0    0 -0.63084563095E+02  0.91720431239E+02 -0.17678943152E+03  0.24345769145E+03  0.12499937929E+03 0.  0.
          5    1    3    3  502    0 -0.47220149127E+02  0.12293244893E+03 -0.13345498743E+03  0.18754853546E+03  0.47000000000E+01 0.  1.
         -5    1    3    3    0  502 -0.15864413968E+02 -0.31212017694E+02 -0.43334444092E+02  0.55909155992E+02  0.47000000000E+01 0.  1.
        -11    1    1    2    0    0  0.87447375889E+01 -0.24963411637E+02  0.73986800238E+01  0.27466030331E+02  0.00000000000E+00 0.  1.
         11    1    1    2    0    0  0.54339825506E+02 -0.66757019602E+02 -0.16082440789E+03  0.18241109198E+03  0.00000000000E+00 0. -1.
<mgrwt>
<rscale>  0 0.16098184E+03</rscale>
<asrwt>0</asrwt>
<pdfrwt beam="2">  1        3 0.60273076E-01 0.16738323E+03</pdfrwt>
<pdfrwt beam="1">  1       -3 0.94707425E-02 0.16738323E+03</pdfrwt>
<totfact> 0.52604929E+02</totfact>
</mgrwt>
</event>
<event>
 7    1  0.5928109E-006  0.1524670E+03  0.7546771E-02  0.1206422E+00
         -1   -1    0    0    0  501 -0.00000000000E+00  0.00000000000E+00  0.63307207007E+03  0.63307207007E+03  0.00000000000E+00 0.  1.
          1   -1    0    0  501    0  0.00000000000E+00 -0.00000000000E+00 -0.33151868699E+02  0.33151868699E+02  0.00000000000E+00 0. -1.
         23    2    1    2    0    0 -0.35664246218E+02 -0.79678856468E+02  0.23350595897E+03  0.27887490334E+03  0.12500208081E+03 0.  0.
          5    1    3    3  502    0  0.21119908499E+02 -0.91076624015E+02  0.13038734963E+03  0.16051153516E+03  0.47000000000E+01 0. -1.
         -5    1    3    3    0  502 -0.56784154717E+02  0.11397767548E+02  0.10311860934E+03  0.11836336817E+03  0.47000000000E+01 0. -1.
        -11    1    1    2    0    0  0.11392966611E+02 -0.16550871768E+02  0.12050533397E+03  0.12216900818E+03  0.00000000000E+00 0.  1.
         11    1    1    2    0    0  0.24271279606E+02  0.96229728236E+02  0.24590890842E+03  0.26518002725E+03  0.00000000000E+00 0. -1.
<mgrwt>
<rscale>  0 0.14525958E+03</rscale>
<asrwt>0</asrwt>
<pdfrwt beam="2">  1        1 0.51002880E-02 0.15246698E+03</pdfrwt>
<pdfrwt beam="1">  1       -1 0.97395694E-01 0.15246698E+03</pdfrwt>
<totfact> 0.16940928E+03</totfact>
</mgrwt>
</event>
<event>
 7    1  0.5928109E-006  0.1811176E+03  0.7546771E-02  0.1172209E+00
         -2   -1    0    0    0  501 -0.00000000000E+00  0.00000000000E+00  0.18354141605E+03  0.18354141605E+03  0.00000000000E+00 0.  1.
          2   -1    0    0  501    0  0.00000000000E+00 -0.00000000000E+00 -0.17402775474E+03  0.17402775474E+03  0.00000000000E+00 0. -1.
         23    2    1    2    0    0 -0.11583317499E+03  0.61328666196E+02 -0.48685147773E+02  0.18754688718E+03  0.12500024621E+03 0.  0.
          5    1    3    3  502    0 -0.93347758088E+02  0.38437669780E+02  0.27509237400E+02  0.10473827639E+03  0.47000000000E+01 0.  1.
         -5    1    3    3    0  502 -0.22485416903E+02  0.22890996417E+02 -0.76194385173E+02  0.82808610797E+02  0.47000000000E+01 0.  1.
        -11    1    1    2    0    0  0.63894132555E+02  0.16556436604E+02  0.27477454043E+02  0.71495358232E+02  0.00000000000E+00 0.  1.
         11    1    1    2    0    0  0.51939042435E+02 -0.77885102800E+02  0.30721355040E+02  0.98526925369E+02  0.00000000000E+00 0. -1.
<mgrwt>
<rscale>  0 0.17552202E+03</rscale>
<asrwt>0</asrwt>
<pdfrwt beam="2">  1        2 0.26773501E-01 0.18111762E+03</pdfrwt>
<pdfrwt beam="1">  1       -2 0.28237141E-01 0.18111762E+03</pdfrwt>
<totfact> 0.22345936E+03</totfact>
</mgrwt>
</event>
<event>
 7    1  0.5928109E-006  0.1445116E+03  0.7546771E-02  0.1210804E+00
          2   -1    0    0  501    0  0.00000000000E+00  0.00000000000E+00  0.27960311635E+03  0.27960311635E+03  0.00000000000E+00 0. -1.
         -2   -1    0    0    0  501 -0.00000000000E+00 -0.00000000000E+00 -0.85171404329E+02  0.85171404329E+02  0.00000000000E+00 0.  1.
         23    2    1    2    0    0  0.40919004038E+02  0.38539390718E+02  0.17247053152E+03  0.21860370666E+03  0.12199117507E+03 0.  0.
          5    1    3    3  502    0  0.69453595846E+02 -0.88896210672E+01  0.13325896972E+03  0.15060833427E+03  0.47000000000E+01 0. -1.
         -5    1    3    3    0  502 -0.28534591808E+02  0.47429011785E+02  0.39211561796E+02  0.67995372395E+02  0.47000000000E+01 0.  1.
        -11    1    1    2    0    0 -0.78915247999E+02  0.13419464838E+02  0.95510374108E+01  0.80615883788E+02  0.00000000000E+00 0.  1.
         11    1    1    2    0    0  0.37996243961E+02 -0.51958855556E+02  0.12410143090E+02  0.65554930229E+02  0.00000000000E+00 0. -1.
<mgrwt>
<rscale>  0 0.14189307E+03</rscale>
<asrwt>0</asrwt>
<pdfrwt beam="1">  1        2 0.43015864E-01 0.14451164E+03</pdfrwt>
<pdfrwt beam="2">  1       -2 0.13103293E-01 0.14451164E+03</pdfrwt>
<totfact> 0.48636202E+03</totfact>
</mgrwt>
</event>
<event>
 7    1  0.5928109E-006  0.1312173E+03  0.7546771E-02  0.1239595E+00
         -2   -1    0    0    0  501 -0.00000000000E+00  0.00000000000E+00  0.16462635682E+02  0.16462635682E+02  0.00000000000E+00 0.  1.
          2   -1    0    0  501    0  0.00000000000E+00 -0.00000000000E+00 -0.18308934679E+04  0.18308934679E+04  0.00000000000E+00 0. -1.
         23    2    1    2    0    0 -0.16723423955E+02  0.36242146054E+02 -0.16532208173E+04  0.16584200464E+04  0.12499925317E+03 0.  0.
          5    1    3    3  502    0  0.11567932684E+02 -0.41154641966E+02 -0.35840496821E+03  0.36097608350E+03  0.47000000000E+01 0. -1.
         -5    1    3    3    0  502 -0.28291356640E+02  0.77396788020E+02 -0.12948158491E+04  0.12974439629E+04  0.47000000000E+01 0. -1.
        -11    1    1    2    0    0 -0.21003448039E+02 -0.22629602687E+02 -0.99339131364E+01  0.32433414522E+02  0.00000000000E+00 0.  1.
         11    1    1    2    0    0  0.37726871995E+02 -0.13612543367E+02 -0.15127610174E+03  0.15650264268E+03  0.00000000000E+00 0. -1.
<mgrwt>
<rscale>  0 0.12214775E+03</rscale>
<asrwt>0</asrwt>
<pdfrwt beam="2">  1        2 0.28167587E+00 0.13121730E+03</pdfrwt>
<pdfrwt beam="1">  1       -2 0.25327136E-02 0.13121730E+03</pdfrwt>
<totfact> 0.49234479E+03</totfact>
</mgrwt>
</event>
<event>
 7    1  0.5928109E-006  0.1268319E+03  0.7546771E-02  0.1247185E+00
         -1   -1    0    0    0  501 -0.00000000000E+00  0.00000000000E+00  0.58023677007E+02  0.58023677007E+02  0.00000000000E+00 0.  1.
          1   -1    0    0  501    0  0.00000000000E+00 -0.00000000000E+00 -0.31297427937E+03  0.31297427937E+03  0.00000000000E+00 0. -1.
         23    2    1    2    0    0  0.95564897899E+01  0.19209866789E+02 -0.24624913222E+03  0.27699269630E+03  0.12500389277E+03 0.  0.
          5    1    3    3  502    0  0.59687069028E+01  0.62019189910E+02 -0.63052250824E+02  0.88767571292E+02  0.47000000000E+01 0.  1.
         -5    1    3    3    0  502  0.35877828871E+01 -0.42809323120E+02 -0.18319688140E+03  0.18822512501E+03  0.47000000000E+01 0.  1.
        -11    1    1    2    0    0 -0.34128969821E+02 -0.30468396539E+02  0.23931992571E+02  0.51631870362E+02  0.00000000000E+00 0.  1.
         11    1    1    2    0    0  0.24572480031E+02  0.11258529749E+02 -0.32633462715E+02  0.42373389713E+02  0.00000000000E+00 0. -1.
<mgrwt>
<rscale>  0 0.11755528E+03</rscale>
<asrwt>0</asrwt>
<pdfrwt beam="2">  1        1 0.48149889E-01 0.12683185E+03</pdfrwt>
<pdfrwt beam="1">  1       -1 0.89267195E-02 0.12683185E+03</pdfrwt>
<totfact> 0.57491946E+03</totfact>
</mgrwt>
</event>
<event>
 7    1  0.5928109E-006  0.1739063E+03  0.7546771E-02  0.1180573E+00
         -1   -1    0    0    0  501 -0.00000000000E+00  0.00000000000E+00  0.78719329601E+02  0.78719329601E+02  0.00000000000E+00 0.  1.
          1   -1    0    0  501    0  0.00000000000E+00 -0.00000000000E+00 -0.33764552320E+03  0.33764552320E+03  0.00000000000E+00 0. -1.
         23    2    1    2    0    0  0.10939132291E+03  0.51508549827E+02 -0.11196226140E+03  0.20683074596E+03  0.12499526896E+03 0.  0.
          5    1    3    3  502    0  0.44339046572E+02  0.87148880391E+02 -0.77740593687E+02  0.12500627309E+03  0.47000000000E+01 0.  1.
         -5    1    3    3    0  502  0.65052276343E+02 -0.35640330564E+02 -0.34221667710E+02  0.81824472873E+02  0.47000000000E+01 0.  1.
        -11    1    1    2    0    0 -0.43962597041E+02 -0.10994215067E+02 -0.19417015116E+01  0.45358052298E+02  0.00000000000E+00 0.  1.
         11    1    1    2    0    0 -0.65428725874E+02 -0.40514334761E+02 -0.14502223069E+03  0.16417605454E+03  0.00000000000E+00 0. -1.
<mgrwt>
<rscale>  0 0.16741316E+03</rscale>
<asrwt>0</asrwt>
<pdfrwt beam="2">  1        1 0.51945466E-01 0.17390632E+03</pdfrwt>
<pdfrwt beam="1">  1       -1 0.12110666E-01 0.17390632E+03</pdfrwt>
<totfact> 0.33302980E+03</totfact>
</mgrwt>
</event>
<event>
 7    1  0.5928109E-006  0.1268376E+03  0.7546771E-02  0.1247151E+00
          2   -1    0    0  501    0  0.00000000000E+00  0.00000000000E+00  0.79675236649E+03  0.79675236649E+03  0.00000000000E+00 0. -1.
         -2   -1    0    0    0  501 -0.00000000000E+00 -0.00000000000E+00 -0.15303403899E+02  0.15303403899E+02  0.00000000000E+00 0.  1.
         23    2    1    2    0    0 -0.12128791581E+02 -0.17769004813E+02  0.47203232876E+03  0.48877632644E+03  0.12499973110E+03 0.  0.
          5    1    3    3  502    0  0.20281639735E+02  0.43394075667E+02  0.10869312161E+03  0.11887251742E+03  0.47000000000E+01 0.  1.
         -5    1    3    3    0  502 -0.32410431316E+02 -0.61163080480E+02  0.36333920715E+03  0.36990380902E+03  0.47000000000E+01 0.  1.
        -11    1    1    2    0    0  0.41258354485E+02 -0.12977477726E+02  0.90510592494E+02  0.10031367851E+03  0.00000000000E+00 0.  1.
         11    1    1    2    0    0 -0.29129562904E+02  0.30746482539E+02  0.21890604134E+03  0.22296576544E+03  0.00000000000E+00 0. -1.
<mgrwt>
<rscale>  0 0.11757550E+03</rscale>
<asrwt>0</asrwt>
<pdfrwt beam="1">  1        2 0.12257726E+00 0.12683760E+03</pdfrwt>
<pdfrwt beam="2">  1       -2 0.23543704E-02 0.12683760E+03</pdfrwt>
<totfact> 0.20431155E+04</totfact>
</mgrwt>
</event>
<event>
 7    1  0.5928109E-006  0.1333766E+03  0.7546771E-02  0.1235321E+00
         -3   -1    0    0    0  501 -0.00000000000E+00  0.00000000000E+00  0.12281971442E+03  0.12281971442E+03  0.00000000000E+00 0.  1.
          3   -1    0    0  501    0  0.00000000000E+00 -0.00000000000E+00 -0.11725485352E+03  0.11725485352E+03  0.00000000000E+00 0. -1.
         23    2    1    2    0    0  0.28144752430E+02  0.37032630997E+02  0.25475425306E+02  0.13578780147E+03  0.12500314750E+03 0.  0.
          5    1    3    3  502    0  0.26111310956E+02 -0.10404856574E+02  0.66826542871E+02  0.72649421417E+02  0.47000000000E+01 0. -1.
         -5    1    3    3    0  502  0.20334414739E+01  0.47437487571E+02 -0.41351117565E+02  0.63138380049E+02  0.47000000000E+01 0. -1.
        -11    1    1    2    0    0 -0.49413140693E+02 -0.49396131911E+02 -0.32032366702E+02  0.76861621356E+02  0.00000000000E+00 0. -1.
         11    1    1    2    0    0  0.21268388264E+02  0.12363500914E+02  0.12121802292E+02  0.27425145123E+02  0.00000000000E+00 0.  1.
<mgrwt>
<rscale>  0 0.12483931E+03</rscale>
<asrwt>0</asrwt>
<pdfrwt beam="2">  1        3 0.18039208E-01 0.13337665E+03</pdfrwt>
<pdfrwt beam="1">  1       -3 0.18895341E-01 0.13337665E+03</pdfrwt>
<totfact> 0.15308656E+03</totfact>
</mgrwt>
</event>
<event>
 7    1  0.5928109E-006  0.1969118E+03  0.7546771E-02  0.1156615E+00
          1   -1    0    0  501    0  0.00000000000E+00  0.00000000000E+00  0.76955971107E+03  0.76955971107E+03  0.00000000000E+00 0. -1.
         -1   -1    0    0    0  501 -0.00000000000E+00 -0.00000000000E+00 -0.75802701215E+02  0.75802701215E+02  0.00000000000E+00 0.  1.
         23    2    1    2    0    0  0.68814409304E+02  0.13569855922E+03  0.62340568719E+03  0.65376518551E+03  0.12499898026E+03 0.  0.
          5    1    3    3  502    0  0.98291282985E+02  0.63490055545E+02  0.33124111362E+03  0.35133307390E+03  0.47000000000E+01 0. -1.
         -5    1    3    3    0  502 -0.29476873681E+02  0.72208503676E+02  0.29216457357E+03  0.30243211161E+03  0.47000000000E+01 0. -1.
        -11    1    1    2    0    0 -0.30841223395E+02 -0.12837461823E+03  0.76269786082E+02  0.15247394510E+03  0.00000000000E+00 0. -1.
         11    1    1    2    0    0 -0.37973185909E+02 -0.73239409897E+01 -0.59184634126E+01  0.39123281673E+02  0.00000000000E+00 0.  1.
<mgrwt>
<rscale>  0 0.19206102E+03</rscale>
<asrwt>0</asrwt>
<pdfrwt beam="1">  1        1 0.11839380E+00 0.19691183E+03</pdfrwt>
<pdfrwt beam="2">  1       -1 0.11661955E-01 0.19691183E+03</pdfrwt>
<totfact> 0.11728512E+03</totfact>
</mgrwt>
</event>
<event>
 7    1  0.5928109E-006  0.1575112E+03  0.7546771E-02  0.1199405E+00
         -2   -1    0    0    0  501 -0.00000000000E+00  0.00000000000E+00  0.78968072786E+03  0.78968072786E+03  0.00000000000E+00 0.  1.
          2   -1    0    0  501    0  0.00000000000E+00 -0.00000000000E+00 -0.27651599148E+02  0.27651599148E+02  0.00000000000E+00 0. -1.
         23    2    1    2    0    0  0.84594072671E+02 -0.45038305572E+02  0.33478259961E+03  0.36998536384E+03  0.12500069741E+03 0.  0.
          5    1    3    3  502    0  0.10238373563E+03 -0.41973752502E+02  0.33336131189E+03  0.35127778109E+03  0.47000000000E+01 0.  1.
         -5    1    3    3    0  502 -0.17789662960E+02 -0.30645530703E+01  0.14212877252E+01  0.18707582756E+02  0.47000000000E+01 0.  1.
        -11    1    1    2    0    0 -0.27244264929E+02  0.63765362458E+02  0.18127269624E+03  0.19408261597E+03  0.00000000000E+00 0.  1.
         11    1    1    2    0    0 -0.57349807742E+02 -0.18727056886E+02  0.24597383286E+03  0.25326434719E+03  0.00000000000E+00 0. -1.
<mgrwt>
<rscale>  0 0.15087249E+03</rscale>
<asrwt>0</asrwt>
<pdfrwt beam="2">  1        2 0.42540928E-02 0.15751121E+03</pdfrwt>
<pdfrwt beam="1">  1       -2 0.12148933E+00 0.15751121E+03</pdfrwt>
<totfact> 0.10265899E+03</totfact>
</mgrwt>
</event>
<event>
 7    1  0.5928109E-006  0.1576687E+03  0.7546771E-02  0.1199892E+00
          1   -1    0    0  501    0  0.00000000000E+00  0.00000000000E+00  0.33686389724E+03  0.33686389724E+03  0.00000000000E+00 0. -1.
         -1   -1    0    0    0  501 -0.00000000000E+00 -0.00000000000E+00 -0.61839364488E+02  0.61839364488E+02  0.00000000000E+00 0.  1.
         23    2    1    2    0    0 -0.18923680909E+02 -0.94210694235E+02  0.14304903796E+03  0.21289066762E+03  0.12500259393E+03 0.  0.
          5    1    3    3  502    0 -0.48335183406E+01 -0.28704809068E+01 -0.22263920366E+02  0.23438743786E+02  0.47000000000E+01 0. -1.
         -5    1    3    3    0  502 -0.14090162568E+02 -0.91340213328E+02  0.16531295833E+03  0.18945192383E+03  0.47000000000E+01 0. -1.
        -11    1    1    2    0    0  0.17529824929E+02  0.48339420034E+02  0.60369922740E+01  0.51772961737E+02  0.00000000000E+00 0.  1.
         11    1    1    2    0    0  0.13938559800E+01  0.45871274200E+02  0.12593850252E+03  0.13403963238E+03  0.00000000000E+00 0. -1.
<mgrwt>
<rscale>  0 0.15047400E+03</rscale>
<asrwt>0</asrwt>
<pdfrwt beam="1">  1        1 0.51825214E-01 0.15766867E+03</pdfrwt>
<pdfrwt beam="2">  1       -1 0.95137486E-02 0.15766867E+03</pdfrwt>
<totfact> 0.48219822E+03</totfact>
</mgrwt>
</event>
<event>
 7    1  0.5928109E-006  0.1606564E+03  0.7546771E-02  0.1195384E+00
         -3   -1    0    0    0  501 -0.00000000000E+00  0.00000000000E+00  0.88686578494E+02  0.88686578494E+02  0.00000000000E+00 0.  1.
          3   -1    0    0  501    0  0.00000000000E+00 -0.00000000000E+00 -0.25117052121E+03  0.25117052121E+03  0.00000000000E+00 0. -1.
         23    2    1    2    0    0  0.95577289673E+02  0.32395580344E+02 -0.10439914826E+03  0.19159765992E+03  0.12500395674E+03 0.  0.
          5    1    3    3  502    0 -0.11118191882E+02  0.23383677643E+02 -0.76424843509E+02  0.80828567203E+02  0.47000000000E+01 0. -1.
         -5    1    3    3    0  502  0.10669548155E+03  0.90119027017E+01 -0.27974304752E+02  0.11076909271E+03  0.47000000000E+01 0. -1.
        -11    1    1    2    0    0 -0.73423855537E+02  0.14804343210E+02 -0.60171755396E+02  0.96077423400E+02  0.00000000000E+00 0. -1.
         11    1    1    2    0    0 -0.22153434136E+02 -0.47199923555E+02  0.20869609447E+01  0.52182016381E+02  0.00000000000E+00 0.  1.
<mgrwt>
<rscale>  0 0.15421731E+03</rscale>
<asrwt>0</asrwt>
<pdfrwt beam="2">  1        3 0.38641618E-01 0.16065641E+03</pdfrwt>
<pdfrwt beam="1">  1       -3 0.13644089E-01 0.16065641E+03</pdfrwt>
<totfact> 0.68785235E+02</totfact>
</mgrwt>
</event>
<event>
 7    1  0.5928109E-006  0.1381297E+03  0.7546771E-02  0.1227411E+00
          4   -1    0    0  501    0  0.00000000000E+00  0.00000000000E+00  0.37774769960E+02  0.37774769960E+02  0.00000000000E+00 0. -1.
         -4   -1    0    0    0  501 -0.00000000000E+00 -0.00000000000E+00 -0.41139526310E+03  0.41139526310E+03  0.00000000000E+00 0.  1.
         23    2    1    2    0    0  0.55348918988E+02  0.19893153462E+02 -0.17594003942E+03  0.22368437682E+03  0.12498224905E+03 0.  0.
          5    1    3    3  502    0 -0.30264414344E+02  0.18301270608E+02 -0.10960461242E+03  0.11526548636E+03  0.47000000000E+01 0.  1.
         -5    1    3    3    0  502  0.85613333331E+02  0.15918828535E+01 -0.66335426993E+02  0.10841889046E+03  0.47000000000E+01 0.  1.
        -11    1    1    2    0    0 -0.66980887720E+02  0.48694638473E+01 -0.18190185191E+03  0.19390315811E+03  0.00000000000E+00 0.  1.
         11    1    1    2    0    0  0.11631968732E+02 -0.24762617309E+02 -0.15778601815E+02  0.31582498125E+02  0.00000000000E+00 0. -1.
<mgrwt>
<rscale>  0 0.13003038E+03</rscale>
<asrwt>0</asrwt>
<pdfrwt beam="1">  1        4 0.58115030E-02 0.13812966E+03</pdfrwt>
<pdfrwt beam="2">  1       -4 0.63291580E-01 0.13812966E+03</pdfrwt>
<totfact> 0.73634336E+02</totfact>
</mgrwt>
</event>
<event>
 7    1  0.5928109E-006  0.1395870E+03  0.7546771E-02  0.1225393E+00
         -2   -1    0    0    0  501 -0.00000000000E+00  0.00000000000E+00  0.43864309351E+03  0.43864309351E+03  0.00000000000E+00 0.  1.
          2   -1    0    0  501    0  0.00000000000E+00 -0.00000000000E+00 -0.36953384004E+02  0.36953384004E+02  0.00000000000E+00 0. -1.
         23    2    1    2    0    0  0.27931071256E+02 -0.55495699045E+02  0.17545322493E+03  0.22420610246E+03  0.12499849954E+03 0.  0.
          5    1    3    3  502    0  0.73209350096E+02 -0.57322139551E+02  0.12954815206E+03  0.15953134591E+03  0.47000000000E+01 0.  1.
         -5    1    3    3    0  502 -0.45278278840E+02  0.18264405060E+01  0.45905072867E+02  0.64674756548E+02  0.47000000000E+01 0.  1.
        -11    1    1    2    0    0  0.15845351026E+02  0.58765272873E+02  0.93334064319E+02  0.11142567032E+03  0.00000000000E+00 0.  1.
         11    1    1    2    0    0 -0.43776422281E+02 -0.32695738279E+01  0.13290242025E+03  0.13996470473E+03  0.00000000000E+00 0. -1.
<mgrwt>
<rscale>  0 0.13140006E+03</rscale>
<asrwt>0</asrwt>
<pdfrwt beam="2">  1        2 0.56851363E-02 0.13958704E+03</pdfrwt>
<pdfrwt beam="1">  1       -2 0.67483549E-01 0.13958704E+03</pdfrwt>
<totfact> 0.26269635E+03</totfact>
</mgrwt>
</event>
<event>
 7    1  0.5928109E-006  0.1537907E+03  0.7546771E-02  0.1206132E+00
         -1   -1    0    0    0  501 -0.00000000000E+00  0.00000000000E+00  0.13419953938E+03  0.13419953938E+03  0.00000000000E+00 0.  1.
          1   -1    0    0  501    0  0.00000000000E+00 -0.00000000000E+00 -0.14495529638E+03  0.14495529638E+03  0.00000000000E+00 0. -1.
         23    2    1    2    0    0  0.74562037123E+02  0.49658558212E+02 -0.22501780634E+02  0.15542817495E+03  0.12500447053E+03 0.  0.
          5    1    3    3  502    0  0.61524271212E+02  0.84387195419E+02 -0.42706766702E+02  0.11292649211E+03  0.47000000000E+01 0. -1.
         -5    1    3    3    0  502  0.13037765911E+02 -0.34728637206E+02  0.20204986068E+02  0.42501682839E+02  0.47000000000E+01 0. -1.
        -11    1    1    2    0    0 -0.90675421885E+02 -0.26434540470E+02  0.45553537257E+01  0.94559866283E+02  0.00000000000E+00 0.  1.
         11    1    1    2    0    0  0.16113384762E+02 -0.23224017743E+02  0.71906699081E+01  0.29166794516E+02  0.00000000000E+00 0. -1.
<mgrwt>
<rscale>  0 0.14548625E+03</rscale>
<asrwt>0</asrwt>
<pdfrwt beam="2">  1        1 0.22300815E-01 0.15379073E+03</pdfrwt>
<pdfrwt beam="1">  1       -1 0.20646083E-01 0.15379073E+03</pdfrwt>
<totfact> 0.40996829E+03</totfact>
</mgrwt>
</event>
<event>
 6    1  0.5928109E-006  0.5374357E+03  0.7546771E-02  0.1038403E+00
          2   -1    0    0  501    0  0.00000000000E+00  0.00000000000E+00  0.14038929989E+04  0.14038929989E+04  0.00000000000E+00 0. -1.
         -2   -1    0    0    0  501 -0.00000000000E+00 -0.00000000000E+00 -0.96746629773E+02  0.96746629773E+02  0.00000000000E+00 0.  1.
          5    1    1    2  502    0  0.28945126088E+02  0.28372487985E+01  0.98183107758E+03  0.98227298914E+03  0.47000000000E+01 0. -1.
         -5    1    1    2    0  502 -0.11209220681E+03  0.14478782273E+03  0.64823700114E+02  0.19429971317E+03  0.47000000000E+01 0.  1.
        -11    1    1    2    0    0  0.37585329292E+02 -0.15243027082E+02  0.18687808595E+02  0.44656926033E+02  0.00000000000E+00 0.  1.
         11    1    1    2    0    0  0.45561751435E+02 -0.13238204445E+03  0.24180378282E+03  0.27941000031E+03  0.00000000000E+00 0. -1.
<mgrwt>
<rscale>  0 0.41591966E+03</rscale>
<asrwt>0</asrwt>
<pdfrwt beam="1">  1        2 0.21598352E+00 0.53743567E+03</pdfrwt>
<pdfrwt beam="2">  1       -2 0.14884098E-01 0.53743567E+03</pdfrwt>
<totfact> 0.52298214E+02</totfact>
</mgrwt>
</event>
<event>
 7    1  0.5928109E-006  0.1352271E+03  0.7546771E-02  0.1232189E+00
          4   -1    0    0  501    0  0.00000000000E+00  0.00000000000E+00  0.16350481619E+02  0.16350481619E+02  0.00000000000E+00 0. -1.
         -4   -1    0    0    0  501 -0.00000000000E+00 -0.00000000000E+00 -0.92339428435E+03  0.92339428435E+03  0.00000000000E+00 0.  1.
         23    2    1    2    0    0  0.45424751443E+02  0.24445142686E+02 -0.40795027025E+03  0.42977878260E+03  0.12500162369E+03 0.  0.
          5    1    3    3  502    0 -0.34383657301E+02 -0.35185743563E+01 -0.44240081737E+02  0.56337297477E+02  0.47000000000E+01 0. -1.
         -5    1    3    3    0  502  0.79808408744E+02  0.27963717042E+02 -0.36371018852E+03  0.37344148512E+03  0.47000000000E+01 0. -1.
        -11    1    1    2    0    0 -0.48812526624E+02 -0.55241887533E+02 -0.35790502159E+03  0.36541802551E+03  0.00000000000E+00 0. -1.
         11    1    1    2    0    0  0.33877751810E+01  0.30796744847E+02 -0.14118851089E+03  0.14454795786E+03  0.00000000000E+00 0.  1.
<mgrwt>
<rscale>  0 0.12686109E+03</rscale>
<asrwt>0</asrwt>
<pdfrwt beam="1">  1        4 0.25154590E-02 0.13522714E+03</pdfrwt>
<pdfrwt beam="2">  1       -4 0.14206064E+00 0.13522714E+03</pdfrwt>
<totfact> 0.43308198E+02</totfact>
</mgrwt>
</event>
<event>
 7    1  0.5928109E-006  0.1348709E+03  0.7546771E-02  0.1233088E+00
          1   -1    0    0  501    0  0.00000000000E+00  0.00000000000E+00  0.35544750059E+03  0.35544750059E+03  0.00000000000E+00 0. -1.
         -1   -1    0    0    0  501 -0.00000000000E+00 -0.00000000000E+00 -0.49598653636E+02  0.49598653636E+02  0.00000000000E+00 0.  1.
         23    2    1    2    0    0  0.41189465316E+02  0.29461602460E+02  0.25749926913E+03  0.29068201174E+03  0.12500240108E+03 0.  0.
          5    1    3    3  502    0  0.84243939437E+02  0.22970818809E+02  0.20099335965E+03  0.21919197173E+03  0.47000000000E+01 0.  1.
         -5    1    3    3    0  502 -0.43054474122E+02  0.64907836515E+01  0.56505909480E+02  0.71490040009E+02  0.47000000000E+01 0.  1.
        -11    1    1    2    0    0 -0.54155153822E+02  0.15800303831E+02  0.23329565525E+02  0.61046694539E+02  0.00000000000E+00 0.  1.
         11    1    1    2    0    0  0.12965688506E+02 -0.45261906291E+02  0.25020012293E+02  0.53317447938E+02  0.00000000000E+00 0. -1.
<mgrwt>
<rscale>  0 0.12627625E+03</rscale>
<asrwt>0</asrwt>
<pdfrwt beam="1">  1        1 0.54684229E-01 0.13487090E+03</pdfrwt>
<pdfrwt beam="2">  1       -1 0.76305623E-02 0.13487090E+03</pdfrwt>
<totfact> 0.62439630E+03</totfact>
</mgrwt>
</event>
<event>
 7    1  0.5928109E-006  0.1269262E+03  0.7546771E-02  0.1249857E+00
         -1   -1    0    0    0  501 -0.00000000000E+00  0.00000000000E+00  0.11464923139E+03  0.11464923139E+03  0.00000000000E+00 0.  1.
          1   -1    0    0  501    0  0.00000000000E+00 -0.00000000000E+00 -0.12418787810E+03  0.12418787810E+03  0.00000000000E+00 0. -1.
         23    2    1    2    0    0  0.21784532991E+02  0.33491835839E+01 -0.56146379025E+02  0.13879006708E+03  0.12499793572E+03 0.  0.
          5    1    3    3  502    0 -0.27984565772E+02 -0.39368414072E+02  0.52682866205E+01  0.48814473181E+02  0.47000000000E+01 0. -1.
         -5    1    3    3    0  502  0.49769098763E+02  0.42717597656E+02 -0.61414665646E+02  0.89975593899E+02  0.47000000000E+01 0. -1.
        -11    1    1    2    0    0 -0.44247188665E+01  0.27180258606E+02 -0.13317198275E+02  0.30589088983E+02  0.00000000000E+00 0. -1.
         11    1    1    2    0    0 -0.17359814124E+02 -0.30529442190E+02  0.59924930594E+02  0.69457953422E+02  0.00000000000E+00 0.  1.
<mgrwt>
<rscale>  0 0.11599337E+03</rscale>
<asrwt>0</asrwt>
<pdfrwt beam="2">  1        1 0.19105827E-01 0.12692623E+03</pdfrwt>
<pdfrwt beam="1">  1       -1 0.17638343E-01 0.12692623E+03</pdfrwt>
<totfact> 0.63419831E+03</totfact>
</mgrwt>
</event>
<event>
 7    1  0.5928109E-006  0.1549906E+03  0.7546771E-02  0.1199666E+00
          1   -1    0    0  501    0  0.00000000000E+00  0.00000000000E+00  0.93208402142E+03  0.93208402142E+03  0.00000000000E+00 0. -1.
         -1   -1    0    0    0  501 -0.00000000000E+00 -0.00000000000E+00 -0.23958620563E+02  0.23958620563E+02  0.00000000000E+00 0.  1.
         23    2    1    2    0    0 -0.24262234061E+02 -0.88363860671E+02  0.57004979182E+03  0.59074433190E+03  0.12500109056E+03 0.  0.
          5    1    3    3  502    0 -0.59795427811E+02 -0.69442970712E+02  0.51068555373E+03  0.51886380117E+03  0.47000000000E+01 0. -1.
         -5    1    3    3    0  502  0.35533193750E+02 -0.18920889960E+02  0.59364238089E+02  0.71880530735E+02  0.47000000000E+01 0. -1.
        -11    1    1    2    0    0  0.72969893008E+01 -0.19734599272E+02  0.11409141311E+03  0.11601530505E+03  0.00000000000E+00 0.  1.
         11    1    1    2    0    0  0.16965244760E+02  0.10809845994E+03  0.22398419593E+03  0.24928300503E+03  0.00000000000E+00 0. -1.
<mgrwt>
<rscale>  0 0.15065856E+03</rscale>
<asrwt>0</asrwt>
<pdfrwt beam="1">  1        1 0.14339751E+00 0.15499065E+03</pdfrwt>
<pdfrwt beam="2">  1       -1 0.36859424E-02 0.15499065E+03</pdfrwt>
<totfact> 0.49080224E+03</totfact>
</mgrwt>
</event>
<event>
 7    1  0.5928109E-006  0.1502173E+03  0.7546771E-02  0.1208489E+00
          1   -1    0    0  501    0  0.00000000000E+00  0.00000000000E+00  0.43085305427E+02  0.43085305427E+02  0.00000000000E+00 0. -1.
         -1   -1    0    0    0  501 -0.00000000000E+00 -0.00000000000E+00 -0.44902633886E+03  0.44902633886E+03  0.00000000000E+00 0.  1.
         23    2    1    2    0    0  0.80390277815E+02 -0.21833856929E+02 -0.18919063554E+03  0.24157470008E+03  0.12500370020E+03 0.  0.
          5    1    3    3  502    0  0.50026456363E+02 -0.73747615101E+02 -0.10167266550E+03  0.13528036805E+03  0.47000000000E+01 0. -1.
         -5    1    3    3    0  502  0.30363821451E+02  0.51913758172E+02 -0.87517970046E+02  0.10629433203E+03  0.47000000000E+01 0. -1.
        -11    1    1    2    0    0 -0.34836272620E+02  0.15841542925E+02 -0.19673098358E+03  0.20041856270E+03  0.00000000000E+00 0.  1.
         11    1    1    2    0    0 -0.45554005195E+02  0.59923140044E+01 -0.20019414307E+02  0.50118381514E+02  0.00000000000E+00 0. -1.
<mgrwt>
<rscale>  0 0.14365838E+03</rscale>
<asrwt>0</asrwt>
<pdfrwt beam="1">  1        1 0.66285088E-02 0.15021731E+03</pdfrwt>
<pdfrwt beam="2">  1       -1 0.69080972E-01 0.15021731E+03</pdfrwt>
<totfact> 0.24117346E+03</totfact>
</mgrwt>
</event>
<event>
 6    1  0.5928109E-006  0.4102073E+03  0.7546771E-02  0.1081890E+00
          1   -1    0    0  501    0  0.00000000000E+00  0.00000000000E+00  0.19037484772E+03  0.19037484772E+03  0.00000000000E+00 0. -1.
         -1   -1    0    0    0  501 -0.00000000000E+00 -0.00000000000E+00 -0.51317218419E+03  0.51317218419E+03  0.00000000000E+00 0.  1.
          5    1    1    2  502    0  0.12349556582E+03 -0.20531197354E+03 -0.34047904419E+02  0.24204444024E+03  0.47000000000E+01 0. -1.
         -5    1    1    2    0  502 -0.37167208588E+02  0.16633439248E+03 -0.30628250059E+02  0.17323022605E+03  0.47000000000E+01 0.  1.
        -11    1    1    2    0    0 -0.26200977118E+02 -0.17869806518E+02 -0.14314537464E+03  0.14661657296E+03  0.00000000000E+00 0. -1.
         11    1    1    2    0    0 -0.60127380118E+02  0.56847387575E+02 -0.11497580735E+03  0.14165579264E+03  0.00000000000E+00 0.  1.
<mgrwt>
<rscale>  0 0.30679890E+03</rscale>
<asrwt>0</asrwt>
<pdfrwt beam="1">  1        1 0.29288438E-01 0.41020732E+03</pdfrwt>
<pdfrwt beam="2">  1       -1 0.78949567E-01 0.41020732E+03</pdfrwt>
<totfact> 0.26111519E+02</totfact>
</mgrwt>
</event>
<event>
 7    1  0.5928109E-006  0.1409560E+03  0.7546771E-02  0.1223053E+00
          2   -1    0    0  501    0  0.00000000000E+00  0.00000000000E+00  0.73450565505E+03  0.73450565505E+03  0.00000000000E+00 0. -1.
         -2   -1    0    0    0  501 -0.00000000000E+00 -0.00000000000E+00 -0.26023494813E+02  0.26023494813E+02  0.00000000000E+00 0.  1.
         23    2    1    2    0    0 -0.56985186337E+02 -0.30362019503E+02  0.54185219542E+03  0.55988606576E+03  0.12529741119E+03 0.  0.
          5    1    3    3  502    0 -0.49074612315E+02  0.20747131231E+02  0.45898824697E+03  0.46209421322E+03  0.47000000000E+01 0.  1.
         -5    1    3    3    0  502 -0.79105740221E+01 -0.51109150734E+02  0.82863948450E+02  0.97791852538E+02  0.47000000000E+01 0.  1.
        -11    1    1    2    0    0  0.16281295059E+02  0.42592691081E+02  0.23423692393E+02  0.51262922933E+02  0.00000000000E+00 0.  1.
         11    1    1    2    0    0  0.40703891278E+02 -0.12230671578E+02  0.14320627242E+03  0.14938016118E+03  0.00000000000E+00 0. -1.
<mgrwt>
<rscale>  0 0.13301242E+03</rscale>
<asrwt>0</asrwt>
<pdfrwt beam="1">  1        2 0.11300085E+00 0.14095604E+03</pdfrwt>
<pdfrwt beam="2">  1       -2 0.40036151E-02 0.14095604E+03</pdfrwt>
<totfact> 0.10414354E+04</totfact>
</mgrwt>
</event>
<event>
 7    1  0.5928109E-006  0.1852325E+03  0.7546771E-02  0.1167973E+00
          4   -1    0    0  501    0  0.00000000000E+00  0.00000000000E+00  0.12420009912E+03  0.12420009912E+03  0.00000000000E+00 0.  1.
         -4   -1    0    0    0  501 -0.00000000000E+00 -0.00000000000E+00 -0.24968337072E+03  0.24968337072E+03  0.00000000000E+00 0. -1.
         23    2    1    2    0    0 -0.11508719510E+03 -0.73789036442E+02 -0.44501646280E+02  0.19050320636E+03  0.12498476202E+03 0.  0.
          5    1    3    3  502    0 -0.11750656197E+02 -0.36844869624E+02 -0.67819815560E+02  0.78212784896E+02  0.47000000000E+01 0.  1.
         -5    1    3    3    0  502 -0.10333653890E+03 -0.36944166818E+02  0.23318169280E+02  0.11229042146E+03  0.47000000000E+01 0.  1.
        -11    1    1    2    0    0  0.11096911470E+03  0.85678765271E+02 -0.48173443373E+02  0.14824195048E+03  0.00000000000E+00 0.  1.
         11    1    1    2    0    0  0.41180803913E+01 -0.11889728829E+02 -0.32808181946E+02  0.35138312998E+02  0.00000000000E+00 0. -1.
<mgrwt>
<rscale>  0 0.17982476E+03</rscale>
<asrwt>0</asrwt>
<pdfrwt beam="1">  1        4 0.19107708E-01 0.18523249E+03</pdfrwt>
<pdfrwt beam="2">  1       -4 0.38412826E-01 0.18523249E+03</pdfrwt>
<totfact> 0.28364168E+02</totfact>
</mgrwt>
</event>
<event>
 7    1  0.5928109E-006  0.1403868E+03  0.7546771E-02  0.1224361E+00
         -2   -1    0    0    0  501 -0.00000000000E+00  0.00000000000E+00  0.67646613325E+02  0.67646613325E+02  0.00000000000E+00 0.  1.
          2   -1    0    0  501    0  0.00000000000E+00 -0.00000000000E+00 -0.23986607442E+03  0.23986607442E+03  0.00000000000E+00 0. -1.
         23    2    1    2    0    0 -0.33006807427E+01 -0.63816692466E+02 -0.12407359989E+03  0.18735718614E+03  0.12499996911E+03 0.  0.
          5    1    3    3  502    0  0.33901792492E+02 -0.27873044094E+02  0.85180139564E+01  0.44954251000E+02  0.47000000000E+01 0.  1.
         -5    1    3    3    0  502 -0.37202473235E+02 -0.35943648373E+02 -0.13259161385E+03  0.14240293514E+03  0.47000000000E+01 0.  1.
        -11    1    1    2    0    0  0.42548581180E+02  0.53416131554E+02 -0.38603163963E+02  0.78446600554E+02  0.00000000000E+00 0.  1.
         11    1    1    2    0    0 -0.39247900437E+02  0.10400560913E+02 -0.95426972356E+01  0.41708901047E+02  0.00000000000E+00 0. -1.
<mgrwt>
<rscale>  0 0.13210812E+03</rscale>
<asrwt>0</asrwt>
<pdfrwt beam="2">  1        2 0.36902472E-01 0.14038681E+03</pdfrwt>
<pdfrwt beam="1">  1       -2 0.10407171E-01 0.14038681E+03</pdfrwt>
<totfact> 0.82532460E+03</totfact>
</mgrwt>
</event>
<event>
 7    1  0.5928109E-006  0.1615480E+03  0.7546771E-02  0.1194467E+00
         -1   -1    0    0    0  501 -0.00000000000E+00  0.00000000000E+00  0.29740655790E+02  0.29740655790E+02  0.00000000000E+00 0.  1.
          1   -1    0    0  501    0  0.00000000000E+00 -0.00000000000E+00 -0.75721196793E+03  0.75721196793E+03  0.00000000000E+00 0. -1.
         23    2    1    2    0    0 -0.41834962813E+01 -0.10224750717E+03 -0.35176718516E+03  0.38708903110E+03  0.12500284430E+03 0.  0.
          5    1    3    3  502    0 -0.37364058026E+02 -0.12891868570E+02 -0.25788212230E+02  0.47427787187E+02  0.47000000000E+01 0. -1.
         -5    1    3    3    0  502  0.33180561745E+02 -0.89355638596E+02 -0.32597897293E+03  0.33966124392E+03  0.47000000000E+01 0. -1.
        -11    1    1    2    0    0 -0.40372155596E+02  0.48009265206E+02 -0.13021132705E+03  0.14453300725E+03  0.00000000000E+00 0.  1.
         11    1    1    2    0    0  0.44555651877E+02  0.54238241961E+02 -0.24549279993E+03  0.25533058537E+03  0.00000000000E+00 0. -1.
<mgrwt>
<rscale>  0 0.15499391E+03</rscale>
<asrwt>0</asrwt>
<pdfrwt beam="2">  1        1 0.11649414E+00 0.16154803E+03</pdfrwt>
<pdfrwt beam="1">  1       -1 0.45754858E-02 0.16154803E+03</pdfrwt>
<totfact> 0.49330906E+03</totfact>
</mgrwt>
</event>
<event>
 7    1  0.5928109E-006  0.1274336E+03  0.7546771E-02  0.1246334E+00
         -1   -1    0    0    0  501 -0.00000000000E+00  0.00000000000E+00  0.42299985620E+02  0.42299985620E+02  0.00000000000E+00 0.  1.
          1   -1    0    0  501    0  0.00000000000E+00 -0.00000000000E+00 -0.30007914723E+03  0.30007914723E+03  0.00000000000E+00 0. -1.
         23    2    1    2    0    0  0.23271239864E+02 -0.85331314519E+01 -0.17958826803E+03  0.22020731233E+03  0.12499979781E+03 0.  0.
          5    1    3    3  502    0  0.28709206943E+02  0.50674581778E+02 -0.13041912447E+03  0.14291035592E+03  0.47000000000E+01 0. -1.
         -5    1    3    3    0  502 -0.54379670791E+01 -0.59207713230E+02 -0.49169143562E+02  0.77296956412E+02  0.47000000000E+01 0. -1.
        -11    1    1    2    0    0  0.10836333801E+02 -0.13284628551E+02 -0.79829795716E+02  0.81649885304E+02  0.00000000000E+00 0. -1.
         11    1    1    2    0    0 -0.34107573665E+02  0.21817760003E+02  0.16389021441E+01  0.40521935209E+02  0.00000000000E+00 0.  1.
<mgrwt>
<rscale>  0 0.11805871E+03</rscale>
<asrwt>0</asrwt>
<pdfrwt beam="2">  1        1 0.46166022E-01 0.12743357E+03</pdfrwt>
<pdfrwt beam="1">  1       -1 0.65076902E-02 0.12743357E+03</pdfrwt>
<totfact> 0.97410867E+03</totfact>
</mgrwt>
</event>
<event>
 7    1  0.5928109E-006  0.1327867E+03  0.7546771E-02  0.1236108E+00
         -2   -1    0    0    0  501 -0.00000000000E+00  0.00000000000E+00  0.28433631396E+02  0.28433631396E+02  0.00000000000E+00 0.  1.
          2   -1    0    0  501    0  0.00000000000E+00 -0.00000000000E+00 -0.52563617515E+03  0.52563617515E+03  0.00000000000E+00 0. -1.
         23    2    1    2    0    0 -0.31939043266E+01 -0.44660719300E+02 -0.35499479562E+03  0.37901664203E+03  0.12501011619E+03 0.  0.
          5    1    3    3  502    0  0.11850000348E+02 -0.80378141593E+02 -0.30451080766E+03  0.31519833460E+03  0.47000000000E+01 0.  1.
         -5    1    3    3    0  502 -0.15043904674E+02  0.35717422294E+02 -0.50483987956E+02  0.63818307429E+02  0.47000000000E+01 0.  1.
        -11    1    1    2    0    0 -0.32199433296E+02  0.40363743192E+02 -0.12544535500E+03  0.13565608118E+03  0.00000000000E+00 0. -1.
         11    1    1    2    0    0  0.35393337622E+02  0.42969761081E+01 -0.16762393134E+02  0.39397083335E+02  0.00000000000E+00 0.  1.
<mgrwt>
<rscale>  0 0.12433757E+03</rscale>
<asrwt>0</asrwt>
<pdfrwt beam="2">  1        2 0.80867102E-01 0.13278671E+03</pdfrwt>
<pdfrwt beam="1">  1       -2 0.43744049E-02 0.13278671E+03</pdfrwt>
<totfact> 0.13360697E+04</totfact>
</mgrwt>
</event>
<event>
 7    1  0.5928109E-006  0.1744728E+03  0.7546771E-02  0.1179062E+00
         -2   -1    0    0    0  501 -0.00000000000E+00  0.00000000000E+00  0.31273185928E+02  0.31273185928E+02  0.00000000000E+00 0.  1.
          2   -1    0    0  501    0  0.00000000000E+00 -0.00000000000E+00 -0.10307937235E+04  0.10307937235E+04  0.00000000000E+00 0. -1.
         23    2    1    2    0    0 -0.11204986353E+03  0.47524948221E+02 -0.74445292022E+03  0.76462468741E+03  0.12500787799E+03 0.  0.
          5    1    3    3  502    0  0.79915919935E+01 -0.22410144221E+02 -0.41562988755E+02  0.48121223393E+02  0.47000000000E+01 0. -1.
         -5    1    3    3    0  502 -0.12004145553E+03  0.69935092442E+02 -0.70288993146E+03  0.71650346402E+03  0.47000000000E+01 0. -1.
        -11    1    1    2    0    0  0.83961668215E+02 -0.52075027590E+02 -0.10295957949E+03  0.14269563847E+03  0.00000000000E+00 0.  1.
         11    1    1    2    0    0  0.28088195318E+02  0.45500793697E+01 -0.15210803791E+03  0.15474658360E+03  0.00000000000E+00 0. -1.
<mgrwt>
<rscale>  0 0.16884046E+03</rscale>
<asrwt>0</asrwt>
<pdfrwt beam="2">  1        2 0.15858367E+00 0.17447281E+03</pdfrwt>
<pdfrwt beam="1">  1       -2 0.48112588E-02 0.17447281E+03</pdfrwt>
<totfact> 0.51422628E+03</totfact>
</mgrwt>
</event>
<event>
 7    1  0.5928109E-006  0.1280816E+03  0.7546771E-02  0.1241708E+00
         -2   -1    0    0    0  501 -0.00000000000E+00  0.00000000000E+00  0.22397183439E+02  0.22397183439E+02  0.00000000000E+00 0.  1.
          2   -1    0    0  501    0  0.00000000000E+00 -0.00000000000E+00 -0.59381530705E+03  0.59381530705E+03  0.00000000000E+00 0. -1.
         23    2    1    2    0    0  0.27830197569E+02  0.24118182980E+01 -0.34788017113E+03  0.37070945387E+03  0.12499819585E+03 0.  0.
          5    1    3    3  502    0  0.45226722737E+02 -0.51709070009E+02 -0.22363409002E+03  0.23399483026E+03  0.47000000000E+01 0. -1.
         -5    1    3    3    0  502 -0.17396525168E+02  0.54120888307E+02 -0.12424608111E+03  0.13671462361E+03  0.47000000000E+01 0. -1.
        -11    1    1    2    0    0 -0.54530616408E+02  0.98883256788E+01 -0.20088722411E+03  0.20839156394E+03  0.00000000000E+00 0. -1.
         11    1    1    2    0    0  0.26700418840E+02 -0.12300143977E+02 -0.22650728370E+02  0.37111472671E+02  0.00000000000E+00 0.  1.
<mgrwt>
<rscale>  0 0.12084618E+03</rscale>
<asrwt>0</asrwt>
<pdfrwt beam="2">  1        2 0.91356211E-01 0.12808156E+03</pdfrwt>
<pdfrwt beam="1">  1       -2 0.34457201E-02 0.12808156E+03</pdfrwt>
<totfact> 0.16557979E+04</totfact>
</mgrwt>
</event>
<event>
 7    1  0.5928109E-006  0.1515292E+03  0.7546771E-02  0.1207689E+00
          1   -1    0    0  501    0  0.00000000000E+00  0.00000000000E+00  0.13431118051E+04  0.13431118051E+04  0.00000000000E+00 0. -1.
         -1   -1    0    0    0  501 -0.00000000000E+00 -0.00000000000E+00 -0.14209046545E+02  0.14209046545E+02  0.00000000000E+00 0.  1.
         23    2    1    2    0    0  0.70804117594E+02  0.48156884453E+02  0.75694105346E+03  0.77195911278E+03  0.12501521830E+03 0.  0.
          5    1    3    3  502    0 -0.10879187407E+02 -0.30689260127E+02  0.26675330204E+03  0.26877425761E+03  0.47000000000E+01 0.  1.
         -5    1    3    3    0  502  0.81683305001E+02  0.78846144580E+02  0.49018775141E+03  0.50318485517E+03  0.47000000000E+01 0.  1.
        -11    1    1    2    0    0  0.52264694725E+01  0.10776377194E+02  0.11163626897E+02  0.16372930528E+02  0.00000000000E+00 0.  1.
         11    1    1    2    0    0 -0.76030587067E+02 -0.58933261647E+02  0.56079807815E+03  0.56898880829E+03  0.00000000000E+00 0. -1.
<mgrwt>
<rscale>  0 0.14427545E+03</rscale>
<asrwt>0</asrwt>
<pdfrwt beam="1">  1        1 0.20663249E+00 0.15152925E+03</pdfrwt>
<pdfrwt beam="2">  1       -1 0.21860082E-02 0.15152925E+03</pdfrwt>
<totfact> 0.53994059E+03</totfact>
</mgrwt>
</event>
<event>
 7    1  0.5928109E-006  0.1258899E+03  0.7546771E-02  0.1248933E+00
         -1   -1    0    0    0  501 -0.00000000000E+00  0.00000000000E+00  0.65885996355E+02  0.65885996355E+02  0.00000000000E+00 0.  1.
          1   -1    0    0  501    0  0.00000000000E+00 -0.00000000000E+00 -0.18534759563E+03  0.18534759563E+03  0.00000000000E+00 0. -1.
         23    2    1    2    0    0  0.46561611712E+01 -0.14166362837E+02 -0.88016289400E+02  0.15360706020E+03  0.12500358423E+03 0.  0.
          5    1    3    3  502    0  0.37640738182E+02 -0.58509372319E+02 -0.56973905667E+02  0.90046031268E+02  0.47000000000E+01 0. -1.
         -5    1    3    3    0  502 -0.32984577011E+02  0.44343009483E+02 -0.31042383733E+02  0.63561028928E+02  0.47000000000E+01 0. -1.
        -11    1    1    2    0    0 -0.34389081495E+01  0.52774815987E+02 -0.24872988231E+02  0.58443757881E+02  0.00000000000E+00 0.  1.
         11    1    1    2    0    0 -0.12172530217E+01 -0.38608453150E+02 -0.65723216469E+01  0.39182773911E+02  0.00000000000E+00 0. -1.
<mgrwt>
<rscale>  0 0.11653031E+03</rscale>
<asrwt>0</asrwt>
<pdfrwt beam="2">  1        1 0.28515014E-01 0.12588988E+03</pdfrwt>
<pdfrwt beam="1">  1       -1 0.10136307E-01 0.12588988E+03</pdfrwt>
<totfact> 0.90520191E+03</totfact>
</mgrwt>
</event>
<event>
 7    1  0.5928109E-006  0.1255892E+03  0.7546771E-02  0.1249762E+00
         -2   -1    0    0    0  501 -0.00000000000E+00  0.00000000000E+00  0.18617946122E+03  0.18617946122E+03  0.00000000000E+00 0.  1.
          2   -1    0    0  501    0  0.00000000000E+00 -0.00000000000E+00 -0.72491992132E+02  0.72491992132E+02  0.00000000000E+00 0. -1.
         23    2    1    2    0    0  0.80135574890E+01 -0.90470035854E+01  0.19107120177E+02  0.12703431428E+03  0.12500627819E+03 0.  0.
          5    1    3    3  502    0 -0.10842722117E+02  0.34544624094E+02 -0.37940896330E+02  0.52654508743E+02  0.47000000000E+01 0. -1.
         -5    1    3    3    0  502  0.18856279606E+02 -0.43591627680E+02  0.57048016507E+02  0.74379805537E+02  0.47000000000E+01 0. -1.
        -11    1    1    2    0    0 -0.67458090325E+01 -0.30349380972E+02  0.21632183447E+01  0.31165211029E+02  0.00000000000E+00 0. -1.
         11    1    1    2    0    0 -0.12677484564E+01  0.39396384557E+02  0.92417130568E+02  0.10047192804E+03  0.00000000000E+00 0.  1.
<mgrwt>
<rscale>  0 0.11604818E+03</rscale>
<asrwt>0</asrwt>
<pdfrwt beam="2">  1        2 0.11152614E-01 0.12558915E+03</pdfrwt>
<pdfrwt beam="1">  1       -2 0.28642994E-01 0.12558915E+03</pdfrwt>
<totfact> 0.58689486E+03</totfact>
</mgrwt>
</event>
<event>
 7    1  0.5928109E-006  0.1323151E+03  0.7546771E-02  0.1237148E+00
         -2   -1    0    0    0  501 -0.00000000000E+00  0.00000000000E+00  0.14394315162E+03  0.14394315162E+03  0.00000000000E+00 0.  1.
          2   -1    0    0  501    0  0.00000000000E+00 -0.00000000000E+00 -0.11291929343E+03  0.11291929343E+03  0.00000000000E+00 0. -1.
         23    2    1    2    0    0 -0.29961397789E+02 -0.31454981318E+02 -0.34151465766E+02  0.13665138029E+03  0.12498070217E+03 0.  0.
          5    1    3    3  502    0 -0.24173897148E+02 -0.78340625769E+02 -0.81526076465E+01  0.82523850859E+02  0.47000000000E+01 0.  1.
         -5    1    3    3    0  502 -0.57875006411E+01  0.46885644451E+02 -0.25998858119E+02  0.54127529435E+02  0.47000000000E+01 0.  1.
        -11    1    1    2    0    0  0.31692752488E+02 -0.65052784804E+01 -0.11742630418E+02  0.34418578958E+02  0.00000000000E+00 0. -1.
         11    1    1    2    0    0 -0.17313546994E+01  0.37960259798E+02  0.76917954377E+02  0.85792485794E+02  0.00000000000E+00 0.  1.
<mgrwt>
<rscale>  0 0.12367938E+03</rscale>
<asrwt>0</asrwt>
<pdfrwt beam="2">  1        2 0.17372199E-01 0.13231507E+03</pdfrwt>
<pdfrwt beam="1">  1       -2 0.22145100E-01 0.13231507E+03</pdfrwt>
<totfact> 0.54751244E+03</totfact>
</mgrwt>
</event>
<event>
 7    1  0.5928109E-006  0.1490420E+03  0.7546771E-02  0.1211369E+00
         -3   -1    0    0    0  501 -0.00000000000E+00  0.00000000000E+00  0.10227755800E+03  0.10227755800E+03  0.00000000000E+00 0.  1.
          3   -1    0    0  501    0  0.00000000000E+00 -0.00000000000E+00 -0.19128193526E+03  0.19128193526E+03  0.00000000000E+00 0. -1.
         23    2    1    2    0    0  0.78033078741E+02  0.22354126415E+02 -0.86988412387E+02  0.17257026519E+03  0.12499857677E+03 0.  0.
          5    1    3    3  502    0  0.76695843431E+02  0.37795509984E+02 -0.15870833245E+01  0.85646726779E+02  0.47000000000E+01 0.  1.
         -5    1    3    3    0  502  0.13372353104E+01 -0.15441383569E+02 -0.85401329063E+02  0.86923538415E+02  0.47000000000E+01 0.  1.
        -11    1    1    2    0    0 -0.91154256795E+02 -0.51317972837E+01  0.16162972344E+02  0.92718258991E+02  0.00000000000E+00 0.  1.
         11    1    1    2    0    0  0.13121178054E+02 -0.17222329131E+02 -0.18178937221E+02  0.28270969080E+02  0.00000000000E+00 0. -1.
<mgrwt>
<rscale>  0 0.14146632E+03</rscale>
<asrwt>0</asrwt>
<pdfrwt beam="2">  1        3 0.29427989E-01 0.14904198E+03</pdfrwt>
<pdfrwt beam="1">  1       -3 0.15735009E-01 0.14904198E+03</pdfrwt>
<totfact> 0.89047841E+02</totfact>
</mgrwt>
</event>
<event>
 7    1  0.5928109E-006  0.1287491E+03  0.7546771E-02  0.1242750E+00
          3   -1    0    0  501    0  0.00000000000E+00  0.00000000000E+00  0.90198619840E+02  0.90198619840E+02  0.00000000000E+00 0. -1.
         -3   -1    0    0    0  501 -0.00000000000E+00 -0.00000000000E+00 -0.14237648140E+03  0.14237648140E+03  0.00000000000E+00 0.  1.
         23    2    1    2    0    0 -0.11025713569E+02 -0.28804250024E+02 -0.32100630557E+02  0.13269052054E+03  0.12500029032E+03 0.  0.
          5    1    3    3  502    0  0.47722554505E+02  0.11420036729E+02  0.93453809369E+01  0.50172558159E+02  0.47000000000E+01 0. -1.
         -5    1    3    3    0  502 -0.58748268074E+02 -0.40224286753E+02 -0.41446011494E+02  0.82517962379E+02  0.47000000000E+01 0. -1.
        -11    1    1    2    0    0  0.21271619690E+02  0.49115947022E+02 -0.42194363758E+02  0.68155868339E+02  0.00000000000E+00 0.  1.
         11    1    1    2    0    0 -0.10245906121E+02 -0.20311696999E+02  0.22117132752E+02  0.31728712366E+02  0.00000000000E+00 0. -1.
<mgrwt>
<rscale>  0 0.12021089E+03</rscale>
<asrwt>0</asrwt>
<pdfrwt beam="1">  1        3 0.13876711E-01 0.12874907E+03</pdfrwt>
<pdfrwt beam="2">  1       -3 0.21904074E-01 0.12874907E+03</pdfrwt>
<totfact> 0.18400940E+03</totfact>
</mgrwt>
</event>
<event>
 7    1  0.5928109E-006  0.1262833E+03  0.7546771E-02  0.1246004E+00
         -2   -1    0    0    0  501 -0.00000000000E+00  0.00000000000E+00  0.67136713314E+02  0.67136713314E+02  0.00000000000E+00 0.  1.
          2   -1    0    0  501    0  0.00000000000E+00 -0.00000000000E+00 -0.22456116715E+03  0.22456116715E+03  0.00000000000E+00 0. -1.
         23    2    1    2    0    0 -0.28712507516E+01  0.17709637688E+02 -0.14736854616E+03  0.19407459635E+03  0.12500234078E+03 0.  0.
          5    1    3    3  502    0 -0.12606164418E+02 -0.37721446182E+02 -0.43197716579E+01  0.40281178118E+02  0.47000000000E+01 0.  1.
         -5    1    3    3    0  502  0.97349136667E+01  0.55431083869E+02 -0.14304877450E+03  0.15379341823E+03  0.47000000000E+01 0.  1.
        -11    1    1    2    0    0  0.28550599424E+02  0.44170446940E+00  0.33425948352E+02  0.43961640706E+02  0.00000000000E+00 0.  1.
         11    1    1    2    0    0 -0.25679348673E+02 -0.18151342157E+02 -0.43481856026E+02  0.53661643414E+02  0.00000000000E+00 0. -1.
<mgrwt>
<rscale>  0 0.11825475E+03</rscale>
<asrwt>0</asrwt>
<pdfrwt beam="2">  1        2 0.34547871E-01 0.12628326E+03</pdfrwt>
<pdfrwt beam="1">  1       -2 0.10328725E-01 0.12628326E+03</pdfrwt>
<totfact> 0.88930026E+03</totfact>
</mgrwt>
</event>
<event>
 7    1  0.5928109E-006  0.1255675E+03  0.7546771E-02  0.1242218E+00
         -2   -1    0    0    0  501 -0.00000000000E+00  0.00000000000E+00  0.39529789303E+03  0.39529789303E+03  0.00000000000E+00 0.  1.
          2   -1    0    0  501    0  0.00000000000E+00 -0.00000000000E+00 -0.17984162494E+03  0.17984162494E+03  0.00000000000E+00 0. -1.
         23    2    1    2    0    0  0.53577721227E+02  0.11775841355E+02 -0.14932205165E+03  0.19510067025E+03  0.11295111230E+03 0.  0.
          5    1    3    3  502    0  0.68925717105E+02 -0.33921928941E+02 -0.86688146607E+02  0.11592401176E+03  0.47000000000E+01 0. -1.
         -5    1    3    3    0  502 -0.15347995878E+02  0.45697770295E+02 -0.62633905044E+02  0.79176658483E+02  0.47000000000E+01 0.  1.
        -11    1    1    2    0    0 -0.58554126292E+02 -0.43686070762E+02  0.22435958953E+03  0.23595398682E+03  0.00000000000E+00 0.  1.
         11    1    1    2    0    0  0.49764050647E+01  0.31910229407E+02  0.14041873021E+03  0.14408486091E+03  0.00000000000E+00 0. -1.
<mgrwt>
<rscale>  0 0.12053421E+03</rscale>
<asrwt>0</asrwt>
<pdfrwt beam="2">  1        2 0.27667942E-01 0.12556750E+03</pdfrwt>
<pdfrwt beam="1">  1       -2 0.60815060E-01 0.12556750E+03</pdfrwt>
<totfact> 0.49149480E+02</totfact>
</mgrwt>
</event>
<event>
 7    1  0.5928109E-006  0.1540655E+03  0.7546771E-02  0.1204285E+00
          2   -1    0    0  501    0  0.00000000000E+00  0.00000000000E+00  0.96188845866E+02  0.96188845866E+02  0.00000000000E+00 0. -1.
         -2   -1    0    0    0  501 -0.00000000000E+00 -0.00000000000E+00 -0.25738607369E+03  0.25738607369E+03  0.00000000000E+00 0.  1.
         23    2    1    2    0    0  0.30553271577E+02  0.84712660865E+02 -0.79970147479E+01  0.15427292857E+03  0.12500578758E+03 0.  0.
          5    1    3    3  502    0  0.13552807488E+01  0.26609412239E+02 -0.63262083307E+02  0.68804642213E+02  0.47000000000E+01 0.  1.
         -5    1    3    3    0  502  0.29197990828E+02  0.58103248626E+02  0.55265068560E+02  0.85468286353E+02  0.47000000000E+01 0.  1.
        -11    1    1    2    0    0  0.31513261579E+02 -0.21180116896E+02 -0.55719152760E+02  0.67426307858E+02  0.00000000000E+00 0.  1.
         11    1    1    2    0    0 -0.62066533156E+02 -0.63532543969E+02 -0.97481060316E+02  0.13187568313E+03  0.00000000000E+00 0. -1.
<mgrwt>
<rscale>  0 0.14693966E+03</rscale>
<asrwt>0</asrwt>
<pdfrwt beam="1">  1        2 0.14798284E-01 0.15406552E+03</pdfrwt>
<pdfrwt beam="2">  1       -2 0.39597857E-01 0.15406552E+03</pdfrwt>
<totfact> 0.23400268E+03</totfact>
</mgrwt>
</event>
<event>
 7    1  0.5928109E-006  0.1570907E+03  0.7546771E-02  0.1200055E+00
         -3   -1    0    0    0  501 -0.00000000000E+00  0.00000000000E+00  0.17102447698E+03  0.17102447698E+03  0.00000000000E+00 0.  1.
          3   -1    0    0  501    0  0.00000000000E+00 -0.00000000000E+00 -0.13110788654E+03  0.13110788654E+03  0.00000000000E+00 0. -1.
         23    2    1    2    0    0 -0.61091658327E+02  0.72929643002E+02 -0.18127832390E+02  0.15813316102E+03  0.12500621889E+03 0.  0.
          5    1    3    3  502    0  0.10582232043E+02 -0.23529551137E+02 -0.26876306825E+02  0.37550622901E+02  0.47000000000E+01 0.  1.
         -5    1    3    3    0  502 -0.71673890369E+02  0.96459194139E+02  0.87484744347E+01  0.12058253812E+03  0.47000000000E+01 0.  1.
        -11    1    1    2    0    0  0.46126658194E+02 -0.63187741067E+02 -0.50802725693E+01  0.78397502426E+02  0.00000000000E+00 0. -1.
         11    1    1    2    0    0  0.14965000133E+02 -0.97419019354E+01  0.63124695408E+02  0.65601700074E+02  0.00000000000E+00 0.  1.
<mgrwt>
<rscale>  0 0.15034092E+03</rscale>
<asrwt>0</asrwt>
<pdfrwt beam="2">  1        3 0.20170444E-01 0.15709067E+03</pdfrwt>
<pdfrwt beam="1">  1       -3 0.26311458E-01 0.15709067E+03</pdfrwt>
<totfact> 0.71467923E+02</totfact>
</mgrwt>
</event>
<event>
 7    1  0.5928109E-006  0.1298038E+03  0.7546771E-02  0.1241332E+00
         -2   -1    0    0    0  501 -0.00000000000E+00  0.00000000000E+00  0.68601020852E+03  0.68601020852E+03  0.00000000000E+00 0.  1.
          2   -1    0    0  501    0  0.00000000000E+00 -0.00000000000E+00 -0.18955707107E+02  0.18955707107E+02  0.00000000000E+00 0. -1.
         23    2    1    2    0    0  0.13255382286E+02  0.32361850568E+02  0.38209362387E+03  0.40354002826E+03  0.12500408983E+03 0.  0.
          5    1    3    3  502    0  0.31972451556E+02  0.75026695261E+02  0.26915188530E+03  0.28127578997E+03  0.47000000000E+01 0. -1.
         -5    1    3    3    0  502 -0.18717069270E+02 -0.42664844693E+02  0.11294173857E+03  0.12226423829E+03  0.47000000000E+01 0. -1.
        -11    1    1    2    0    0 -0.48530155148E+01  0.30820533639E+02  0.60236774808E+02  0.67837497689E+02  0.00000000000E+00 0. -1.
         11    1    1    2    0    0 -0.84023667714E+01 -0.63182384207E+02  0.22472410273E+03  0.23358838967E+03  0.00000000000E+00 0.  1.
<mgrwt>
<rscale>  0 0.12107619E+03</rscale>
<asrwt>0</asrwt>
<pdfrwt beam="2">  1        2 0.29162632E-02 0.12980376E+03</pdfrwt>
<pdfrwt beam="1">  1       -2 0.10554001E+00 0.12980376E+03</pdfrwt>
<totfact> 0.23450137E+03</totfact>
</mgrwt>
</event>
<event>
 7    1  0.5928109E-006  0.1256336E+03  0.7546771E-02  0.1249731E+00
         -2   -1    0    0    0  501 -0.00000000000E+00  0.00000000000E+00  0.33381907204E+02  0.33381907204E+02  0.00000000000E+00 0.  1.
          2   -1    0    0  501    0  0.00000000000E+00 -0.00000000000E+00 -0.35462968702E+03  0.35462968702E+03  0.00000000000E+00 0. -1.
         23    2    1    2    0    0  0.11245227493E+02 -0.56504326154E+01 -0.19813498646E+03  0.23460878273E+03  0.12500170218E+03 0.  0.
          5    1    3    3  502    0 -0.13251906781E+02  0.19683444197E+02  0.79630843701E+01  0.25466678650E+02  0.47000000000E+01 0.  1.
         -5    1    3    3    0  502  0.24497134274E+02 -0.25333876812E+02 -0.20609807083E+03  0.20914210408E+03  0.47000000000E+01 0.  1.
        -11    1    1    2    0    0 -0.45473496037E+02  0.76913307885E+00 -0.31067901947E+02  0.55078534284E+02  0.00000000000E+00 0.  1.
         11    1    1    2    0    0  0.34228268544E+02  0.48812995365E+01 -0.92044891408E+02  0.98324277200E+02  0.00000000000E+00 0. -1.
<mgrwt>
<rscale>  0 0.11606648E+03</rscale>
<asrwt>0</asrwt>
<pdfrwt beam="2">  1        2 0.54558418E-01 0.12563363E+03</pdfrwt>
<pdfrwt beam="1">  1       -2 0.51356776E-02 0.12563363E+03</pdfrwt>
<totfact> 0.15986713E+04</totfact>
</mgrwt>
</event>
<event>
 7    1  0.5928109E-006  0.1224732E+03  0.7546771E-02  0.1252714E+00
          2   -1    0    0  501    0  0.00000000000E+00  0.00000000000E+00  0.73017205454E+03  0.73017205454E+03  0.00000000000E+00 0. -1.
         -2   -1    0    0    0  501 -0.00000000000E+00 -0.00000000000E+00 -0.18663541278E+02  0.18663541278E+02  0.00000000000E+00 0.  1.
         23    2    1    2    0    0 -0.43189986473E+01 -0.19780762941E+02  0.53979676626E+03  0.55351624147E+03  0.12078803078E+03 0.  0.
          5    1    3    3  502    0  0.29650765549E+02 -0.11525250615E+01  0.48666694462E+03  0.48759337690E+03  0.47000000000E+01 0. -1.
         -5    1    3    3    0  502 -0.33969764196E+02 -0.18628237880E+02  0.53129821641E+02  0.65922864574E+02  0.47000000000E+01 0.  1.
        -11    1    1    2    0    0  0.18362812337E+02 -0.33015692317E+02  0.81956050847E+02  0.90244241292E+02  0.00000000000E+00 0.  1.
         11    1    1    2    0    0 -0.14043813690E+02  0.52796455258E+02  0.89755696157E+02  0.10507511305E+03  0.00000000000E+00 0. -1.
<mgrwt>
<rscale>  0 0.11435367E+03</rscale>
<asrwt>0</asrwt>
<pdfrwt beam="1">  1        2 0.11233414E+00 0.12247318E+03</pdfrwt>
<pdfrwt beam="2">  1       -2 0.28713146E-02 0.12247318E+03</pdfrwt>
<totfact> 0.16958717E+04</totfact>
</mgrwt>
</event>
<event>
 7    1  0.5928109E-006  0.1742300E+03  0.7546771E-02  0.1179483E+00
         -2   -1    0    0    0  501 -0.00000000000E+00  0.00000000000E+00  0.52603894700E+02  0.52603894700E+02  0.00000000000E+00 0.  1.
          2   -1    0    0  501    0  0.00000000000E+00 -0.00000000000E+00 -0.52408812666E+03  0.52408812666E+03  0.00000000000E+00 0. -1.
         23    2    1    2    0    0 -0.10347529604E+03 -0.63441776561E+02 -0.30392936308E+03  0.35032721600E+03  0.12499641846E+03 0.  0.
          5    1    3    3  502    0 -0.89782712938E+02 -0.87468997591E+01 -0.84399229888E+02  0.12362347594E+03  0.47000000000E+01 0. -1.
         -5    1    3    3    0  502 -0.13692583106E+02 -0.54694876802E+02 -0.21953013319E+03  0.22670374006E+03  0.47000000000E+01 0. -1.
        -11    1    1    2    0    0  0.21667925318E+02 -0.49017772655E+01  0.57069903191E+01  0.22936785879E+02  0.00000000000E+00 0.  1.
         11    1    1    2    0    0  0.81807370726E+02  0.68343553827E+02 -0.17326185920E+03  0.20342801948E+03  0.00000000000E+00 0. -1.
<mgrwt>
<rscale>  0 0.16844167E+03</rscale>
<asrwt>0</asrwt>
<pdfrwt beam="2">  1        2 0.80628941E-01 0.17423002E+03</pdfrwt>
<pdfrwt beam="1">  1       -2 0.80929070E-02 0.17423002E+03</pdfrwt>
<totfact> 0.53470078E+03</totfact>
</mgrwt>
</event>
<event>
 6    1  0.5928109E-006  0.2903444E+03  0.7546771E-02  0.1114404E+00
          4   -1    0    0  501    0  0.00000000000E+00  0.00000000000E+00  0.19477075963E+03  0.19477075963E+03  0.00000000000E+00 0. -1.
         -4   -1    0    0    0  501 -0.00000000000E+00 -0.00000000000E+00 -0.26292730828E+03  0.26292730828E+03  0.00000000000E+00 0.  1.
          5    1    1    2  502    0  0.78087287455E+02  0.74099784549E+01  0.48735350042E+02  0.92464893806E+02  0.47000000000E+01 0. -1.
         -5    1    1    2    0  502 -0.15897190141E+03 -0.10447969746E+03 -0.54485700533E+02  0.19793649027E+03  0.47000000000E+01 0.  1.
        -11    1    1    2    0    0  0.82055504700E+02  0.52772900941E+02 -0.72863874522E+02  0.12176711024E+03  0.00000000000E+00 0.  1.
         11    1    1    2    0    0 -0.11708907484E+01  0.44296818066E+02  0.10457676364E+02  0.45529573586E+02  0.00000000000E+00 0. -1.
<mgrwt>
<rscale>  0 0.24826927E+03</rscale>
<asrwt>0</asrwt>
<pdfrwt beam="1">  1        4 0.29964732E-01 0.29034445E+03</pdfrwt>
<pdfrwt beam="2">  1       -4 0.40450355E-01 0.29034445E+03</pdfrwt>
<totfact> 0.11812542E+02</totfact>
</mgrwt>
</event>
<event>
 7    1  0.5928109E-006  0.1310525E+03  0.7546771E-02  0.1247230E+00
         -3   -1    0    0    0  501 -0.00000000000E+00  0.00000000000E+00  0.88474310647E+03  0.88474310647E+03  0.00000000000E+00 0.  1.
          3   -1    0    0  501    0  0.00000000000E+00 -0.00000000000E+00 -0.13517866965E+02  0.13517866965E+02  0.00000000000E+00 0. -1.
         23    2    1    2    0    0  0.34833157598E+02  0.18374548459E+02  0.45533827656E+03  0.47382243123E+03  0.12499510925E+03 0.  0.
          5    1    3    3  502    0 -0.13235137780E+02 -0.12469747726E+02  0.44430279976E+01  0.19300103062E+02  0.47000000000E+01 0. -1.
         -5    1    3    3    0  502  0.48068295378E+02  0.30844296185E+02  0.45089524856E+03  0.45452232817E+03  0.47000000000E+01 0. -1.
        -11    1    1    2    0    0 -0.13181827681E+02 -0.47006783256E+02  0.24710919096E+03  0.25188559012E+03  0.00000000000E+00 0. -1.
         11    1    1    2    0    0 -0.21651329917E+02  0.28632234797E+02  0.16877777199E+03  0.17255295208E+03  0.00000000000E+00 0.  1.
<mgrwt>
<rscale>  0 0.11752916E+03</rscale>
<asrwt>0</asrwt>
<pdfrwt beam="2">  1        3 0.20796725E-02 0.13105247E+03</pdfrwt>
<pdfrwt beam="1">  1       -3 0.13611428E+00 0.13105247E+03</pdfrwt>
<totfact> 0.90119123E+02</totfact>
</mgrwt>
</event>
<event>
 7    1  0.5928109E-006  0.2400331E+03  0.7546771E-02  0.1122619E+00
          1   -1    0    0  501    0  0.00000000000E+00  0.00000000000E+00  0.20145105422E+03  0.20145105422E+03  0.00000000000E+00 0. -1.
         -1   -1    0    0    0  501 -0.00000000000E+00 -0.00000000000E+00 -0.35230903803E+03  0.35230903803E+03  0.00000000000E+00 0.  1.
         23    2    1    2    0    0 -0.88748013967E+02  0.18472606942E+03  0.58947466376E+02  0.24716529475E+03  0.12496378847E+03 0.  0.
          5    1    3    3  502    0 -0.13917726673E+02  0.18591624766E+01  0.46872599709E+02  0.49155774883E+02  0.47000000000E+01 0.  1.
         -5    1    3    3    0  502 -0.74830287295E+02  0.18286690695E+03  0.12074866667E+02  0.19800951987E+03  0.47000000000E+01 0.  1.
        -11    1    1    2    0    0  0.58827734416E+02 -0.30164213194E+02 -0.59963542941E+02  0.89253619401E+02  0.00000000000E+00 0.  1.
         11    1    1    2    0    0  0.29920279551E+02 -0.15456185623E+03 -0.14984190724E+03  0.21734117809E+03  0.00000000000E+00 0. -1.
<mgrwt>
<rscale>  0 0.23580612E+03</rscale>
<asrwt>0</asrwt>
<pdfrwt beam="1">  1        1 0.30992470E-01 0.24003308E+03</pdfrwt>
<pdfrwt beam="2">  1       -1 0.54201390E-01 0.24003308E+03</pdfrwt>
<totfact> 0.51527309E+02</totfact>
</mgrwt>
</event>
<event>
 7    1  0.5928109E-006  0.2580426E+03  0.7546771E-02  0.1110387E+00
          2   -1    0    0  501    0  0.00000000000E+00  0.00000000000E+00  0.59042923938E+02  0.59042923938E+02  0.00000000000E+00 0. -1.
         -2   -1    0    0    0  501 -0.00000000000E+00 -0.00000000000E+00 -0.12191180001E+04  0.12191180001E+04  0.00000000000E+00 0.  1.
         23    2    1    2    0    0 -0.43682190086E+02 -0.22153450152E+03 -0.37052885585E+03  0.45152809953E+03  0.12490125122E+03 0.  0.
          5    1    3    3  502    0 -0.22283216173E+02  0.69744847954E+01 -0.66026039495E+02  0.70190548171E+02  0.47000000000E+01 0.  1.
         -5    1    3    3    0  502 -0.21398973913E+02 -0.22850898631E+03 -0.30450281635E+03  0.38133755136E+03  0.47000000000E+01 0.  1.
        -11    1    1    2    0    0  0.34860219706E+02  0.17915723597E+03 -0.73322158832E+03  0.75559674939E+03  0.00000000000E+00 0.  1.
         11    1    1    2    0    0  0.88219703798E+01  0.42377265549E+02 -0.56324631948E+02  0.71036075066E+02  0.00000000000E+00 0. -1.
<mgrwt>
<rscale>  0 0.25467241E+03</rscale>
<asrwt>0</asrwt>
<pdfrwt beam="1">  1        2 0.90835272E-02 0.25804262E+03</pdfrwt>
<pdfrwt beam="2">  1       -2 0.18755661E+00 0.25804262E+03</pdfrwt>
<totfact> 0.12549072E+02</totfact>
</mgrwt>
</event>
<event>
 7    1  0.5928109E-006  0.1629881E+03  0.7546771E-02  0.1192706E+00
         -2   -1    0    0    0  501 -0.00000000000E+00  0.00000000000E+00  0.50958295931E+02  0.50958295931E+02  0.00000000000E+00 0.  1.
          2   -1    0    0  501    0  0.00000000000E+00 -0.00000000000E+00 -0.48531841310E+03  0.48531841310E+03  0.00000000000E+00 0. -1.
         23    2    1    2    0    0  0.67069282050E+02 -0.80273445386E+02 -0.30939613938E+03  0.34970142429E+03  0.12499200157E+03 0.  0.
          5    1    3    3  502    0  0.24166518499E+02 -0.14258871293E+02  0.19533761499E+01  0.28517393031E+02  0.47000000000E+01 0. -1.
         -5    1    3    3    0  502  0.42902763551E+02 -0.66014574093E+02 -0.31134951553E+03  0.32118403126E+03  0.47000000000E+01 0. -1.
        -11    1    1    2    0    0  0.20231396716E+02  0.14500220626E+02 -0.72207265295E+01  0.25917266501E+02  0.00000000000E+00 0.  1.
         11    1    1    2    0    0 -0.87300678766E+02  0.65773224760E+02 -0.11774325126E+03  0.16065801824E+03  0.00000000000E+00 0. -1.
<mgrwt>
<rscale>  0 0.15649971E+03</rscale>
<asrwt>0</asrwt>
<pdfrwt beam="2">  1        2 0.74664374E-01 0.16298808E+03</pdfrwt>
<pdfrwt beam="1">  1       -2 0.78397376E-02 0.16298808E+03</pdfrwt>
<totfact> 0.60968554E+03</totfact>
</mgrwt>
</event>
<event>
 7    1  0.5928109E-006  0.1271794E+03  0.7546771E-02  0.1245698E+00
         -2   -1    0    0    0  501 -0.00000000000E+00  0.00000000000E+00  0.41626006304E+02  0.41626006304E+02  0.00000000000E+00 0. -1.
          2   -1    0    0  501    0  0.00000000000E+00 -0.00000000000E+00 -0.31140220755E+03  0.31140220755E+03  0.00000000000E+00 0.  1.
         23    2    1    2    0    0 -0.18861175038E+02 -0.13856727946E+02 -0.18913613949E+03  0.22791900318E+03  0.12500735944E+03 0.  0.
          5    1    3    3  502    0  0.21937387576E+02 -0.59672512937E+02 -0.76570811764E+02  0.99635520715E+02  0.47000000000E+01 0.  1.
         -5    1    3    3    0  502 -0.40798562615E+02  0.45815784991E+02 -0.11256532773E+03  0.12828348246E+03  0.47000000000E+01 0.  1.
        -11    1    1    2    0    0  0.46088448711E+02 -0.15823472226E+02 -0.66457120688E+02  0.82407986676E+02  0.00000000000E+00 0.  1.
         11    1    1    2    0    0 -0.27227273673E+02  0.29680200173E+02 -0.14182941064E+02  0.42701224001E+02  0.00000000000E+00 0. -1.
<mgrwt>
<rscale>  0 0.11843693E+03</rscale>
<asrwt>0</asrwt>
<pdfrwt beam="2">  1        2 0.47908032E-01 0.12717937E+03</pdfrwt>
<pdfrwt beam="1">  1       -2 0.64040010E-02 0.12717937E+03</pdfrwt>
<totfact> 0.13159729E+04</totfact>
</mgrwt>
</event>
<event>
 7    1  0.5928109E-006  0.1616775E+03  0.7546771E-02  0.1194121E+00
         -2   -1    0    0    0  501 -0.00000000000E+00  0.00000000000E+00  0.25676161058E+02  0.25676161058E+02  0.00000000000E+00 0.  1.
          2   -1    0    0  501    0  0.00000000000E+00 -0.00000000000E+00 -0.88150539404E+03  0.88150539404E+03  0.00000000000E+00 0. -1.
         23    2    1    2    0    0  0.98232848518E+02 -0.29862263314E+02 -0.50876961415E+03  0.53384094102E+03  0.12489268484E+03 0.  0.
          5    1    3    3  502    0 -0.14289426450E+01 -0.40369213413E+02 -0.29394532546E+03  0.29674510886E+03  0.47000000000E+01 0. -1.
         -5    1    3    3    0  502  0.99661791163E+02  0.10506950099E+02 -0.21482428869E+03  0.23709583216E+03  0.47000000000E+01 0. -1.
        -11    1    1    2    0    0 -0.42179963993E+01 -0.26980749341E+02 -0.58009274193E+02  0.64115740821E+02  0.00000000000E+00 0.  1.
         11    1    1    2    0    0 -0.94014852119E+02  0.56843012654E+02 -0.28905034464E+03  0.30922487326E+03  0.00000000000E+00 0. -1.
<mgrwt>
<rscale>  0 0.15528848E+03</rscale>
<asrwt>0</asrwt>
<pdfrwt beam="2">  1        2 0.13561620E+00 0.16167755E+03</pdfrwt>
<pdfrwt beam="1">  1       -2 0.39501792E-02 0.16167755E+03</pdfrwt>
<totfact> 0.85189831E+03</totfact>
</mgrwt>
</event>
<event>
 6    1  0.5928109E-006  0.1476204E+03  0.7546771E-02  0.1224210E+00
          1   -1    0    0  501    0  0.00000000000E+00  0.00000000000E+00  0.11376209705E+03  0.11376209705E+03  0.00000000000E+00 0. -1.
         -1   -1    0    0    0  501 -0.00000000000E+00 -0.00000000000E+00 -0.14620750499E+03  0.14620750499E+03  0.00000000000E+00 0.  1.
          5    1    1    2  502    0  0.45385639500E+01  0.41219601072E+02  0.65703731767E+02  0.77837808573E+02  0.47000000000E+01 0. -1.
         -5    1    1    2    0  502  0.74261551452E+01 -0.57575511848E+02 -0.41821055936E+02  0.71702008789E+02  0.47000000000E+01 0.  1.
        -11    1    1    2    0    0 -0.42535130298E+02 -0.13781556506E+02 -0.73677573416E+01  0.45315035666E+02  0.00000000000E+00 0.  1.
         11    1    1    2    0    0  0.30570411203E+02  0.30137467282E+02 -0.48960326422E+02  0.65114749010E+02  0.00000000000E+00 0. -1.
<mgrwt>
<rscale>  0 0.13221231E+03</rscale>
<asrwt>0</asrwt>
<pdfrwt beam="1">  1        1 0.17501861E-01 0.14762037E+03</pdfrwt>
<pdfrwt beam="2">  1       -1 0.22493462E-01 0.14762037E+03</pdfrwt>
<totfact> 0.48490469E+03</totfact>
</mgrwt>
</event>
<event>
 7    1  0.5928109E-006  0.1499838E+03  0.7546771E-02  0.1209553E+00
         -2   -1    0    0    0  501 -0.00000000000E+00  0.00000000000E+00  0.41127063556E+02  0.41127063556E+02  0.00000000000E+00 0.  1.
          2   -1    0    0  501    0  0.00000000000E+00 -0.00000000000E+00 -0.85844642039E+03  0.85844642039E+03  0.00000000000E+00 0. -1.
         23    2    1    2    0    0 -0.26309113247E+02 -0.78598713624E+02 -0.73752842125E+03  0.75262427947E+03  0.12500082670E+03 0.  0.
          5    1    3    3  502    0 -0.34016807400E+02 -0.44310174622E+02 -0.69498588741E+03  0.69724314874E+03  0.47000000000E+01 0. -1.
         -5    1    3    3    0  502  0.77076941529E+01 -0.34288539002E+02 -0.42542533844E+02  0.55381130739E+02  0.47000000000E+01 0. -1.
        -11    1    1    2    0    0 -0.13445471284E+02 -0.12106129711E+02 -0.32514400553E+02  0.37209210122E+02  0.00000000000E+00 0. -1.
         11    1    1    2    0    0  0.39754584531E+02  0.90704843335E+02 -0.47276535031E+02  0.10973999435E+03  0.00000000000E+00 0.  1.
<mgrwt>
<rscale>  0 0.14284390E+03</rscale>
<asrwt>0</asrwt>
<pdfrwt beam="2">  1        2 0.13206867E+00 0.14998378E+03</pdfrwt>
<pdfrwt beam="1">  1       -2 0.63272411E-02 0.14998378E+03</pdfrwt>
<totfact> 0.43203340E+03</totfact>
</mgrwt>
</event>
<event>
 7    1  0.5928109E-006  0.1440407E+03  0.7546771E-02  0.1218297E+00
         -1   -1    0    0    0  501 -0.00000000000E+00  0.00000000000E+00  0.42935788577E+02  0.42935788577E+02  0.00000000000E+00 0.  1.
          1   -1    0    0  501    0  0.00000000000E+00 -0.00000000000E+00 -0.39297113015E+03  0.39297113015E+03  0.00000000000E+00 0. -1.
         23    2    1    2    0    0 -0.59819344464E+02  0.39296959849E+02 -0.19683405580E+03  0.24390855037E+03  0.12500052158E+03 0.  0.
          5    1    3    3  502    0 -0.78754735959E+02 -0.20057752688E+02 -0.11698002004E+03  0.14251679539E+03  0.47000000000E+01 0.  1.
         -5    1    3    3    0  502  0.18935391494E+02  0.59354712537E+02 -0.79854035761E+02  0.10139175498E+03  0.47000000000E+01 0.  1.
        -11    1    1    2    0    0  0.73791601854E+02 -0.38873516706E+02 -0.15676601054E+03  0.17757233136E+03  0.00000000000E+00 0. -1.
         11    1    1    2    0    0 -0.13972257390E+02 -0.42344314258E+00  0.35647247677E+01  0.14426036993E+02  0.00000000000E+00 0.  1.
<mgrwt>
<rscale>  0 0.13637121E+03</rscale>
<asrwt>0</asrwt>
<pdfrwt beam="2">  1        1 0.60457098E-01 0.14404074E+03</pdfrwt>
<pdfrwt beam="1">  1       -1 0.66055058E-02 0.14404074E+03</pdfrwt>
<totfact> 0.68642335E+03</totfact>
</mgrwt>
</event>
<event>
 7    1  0.5928109E-006  0.1460219E+03  0.7546771E-02  0.1215888E+00
         -3   -1    0    0    0  501 -0.00000000000E+00  0.00000000000E+00  0.12579768921E+03  0.12579768921E+03  0.00000000000E+00 0. -1.
          3   -1    0    0  501    0  0.00000000000E+00 -0.00000000000E+00 -0.17995461984E+03  0.17995461984E+03  0.00000000000E+00 0.  1.
         23    2    1    2    0    0 -0.35480428974E+02  0.66626873491E+02 -0.10340483605E+03  0.17892720331E+03  0.12499753139E+03 0.  0.
          5    1    3    3  502    0 -0.72669376577E+02  0.13913368553E+02 -0.27196037597E+02  0.78969200184E+02  0.47000000000E+01 0. -1.
         -5    1    3    3    0  502  0.37188947604E+02  0.52713504937E+02 -0.76208798458E+02  0.99958003126E+02  0.47000000000E+01 0. -1.
        -11    1    1    2    0    0 -0.22267009436E+02 -0.43500177295E+02  0.23560415331E+01  0.48924800108E+02  0.00000000000E+00 0.  1.
         11    1    1    2    0    0  0.57747438410E+02 -0.23126696196E+02  0.46891863891E+02  0.77900305642E+02  0.00000000000E+00 0. -1.
<mgrwt>
<rscale>  0 0.13811529E+03</rscale>
<asrwt>0</asrwt>
<pdfrwt beam="2">  1        3 0.27685326E-01 0.14602186E+03</pdfrwt>
<pdfrwt beam="1">  1       -3 0.19353491E-01 0.14602186E+03</pdfrwt>
<totfact> 0.69307558E+02</totfact>
</mgrwt>
</event>
<event>
 7    1  0.5928109E-006  0.1549030E+03  0.7546771E-02  0.1203043E+00
         -1   -1    0    0    0  501 -0.00000000000E+00  0.00000000000E+00  0.14533817600E+03  0.14533817600E+03  0.00000000000E+00 0.  1.
          1   -1    0    0  501    0  0.00000000000E+00 -0.00000000000E+00 -0.24485931837E+03  0.24485931837E+03  0.00000000000E+00 0. -1.
         23    2    1    2    0    0  0.31707598340E+02 -0.84672858177E+02 -0.18063658564E+03  0.23795907622E+03  0.12577790417E+03 0.  0.
          5    1    3    3  502    0  0.21654344341E+02 -0.43087644054E+02 -0.18813184675E+03  0.19427078386E+03  0.47000000000E+01 0. -1.
         -5    1    3    3    0  502  0.10053253999E+02 -0.41585214123E+02  0.74952611164E+01  0.43688292354E+02  0.47000000000E+01 0.  1.
        -11    1    1    2    0    0 -0.18115564548E+02  0.94985546566E+02  0.34614591167E+02  0.10270636620E+03  0.00000000000E+00 0.  1.
         11    1    1    2    0    0 -0.13592033792E+02 -0.10312688389E+02  0.46500852101E+02  0.49532051952E+02  0.00000000000E+00 0. -1.
<mgrwt>
<rscale>  0 0.14792720E+03</rscale>
<asrwt>0</asrwt>
<pdfrwt beam="2">  1        1 0.37670664E-01 0.15490302E+03</pdfrwt>
<pdfrwt beam="1">  1       -1 0.22359720E-01 0.15490302E+03</pdfrwt>
<totfact> 0.18692150E+03</totfact>
</mgrwt>
</event>
<event>
 7    1  0.5928109E-006  0.1615116E+03  0.7546771E-02  0.1193949E+00
         -1   -1    0    0    0  501 -0.00000000000E+00  0.00000000000E+00  0.38585347510E+02  0.38585347510E+02  0.00000000000E+00 0.  1.
          1   -1    0    0  501    0  0.00000000000E+00 -0.00000000000E+00 -0.65666276487E+03  0.65666276487E+03  0.00000000000E+00 0. -1.
         23    2    1    2    0    0  0.20622371050E+02  0.10018187838E+03 -0.44591874407E+03  0.47426736711E+03  0.12499727296E+03 0.  0.
          5    1    3    3  502    0  0.25494891343E+02  0.67833375061E+02 -0.43257150135E+03  0.43862461175E+03  0.47000000000E+01 0.  1.
         -5    1    3    3    0  502 -0.48725202939E+01  0.32348503322E+02 -0.13347242725E+02  0.35642755358E+02  0.47000000000E+01 0.  1.
        -11    1    1    2    0    0 -0.16737835582E+02 -0.51450455721E+02 -0.16233979454E+03  0.17111841931E+03  0.00000000000E+00 0. -1.
         11    1    1    2    0    0 -0.38845354679E+01 -0.48731422663E+02 -0.98188787445E+01  0.49862325962E+02  0.00000000000E+00 0.  1.
<mgrwt>
<rscale>  0 0.15543478E+03</rscale>
<asrwt>0</asrwt>
<pdfrwt beam="2">  1        1 0.10102504E+00 0.16151164E+03</pdfrwt>
<pdfrwt beam="1">  1       -1 0.59362074E-02 0.16151164E+03</pdfrwt>
<totfact> 0.41128190E+03</totfact>
</mgrwt>
</event>
<event>
 6    1  0.5928109E-006  0.2382802E+03  0.7546771E-02  0.1146209E+00
         -2   -1    0    0    0  501 -0.00000000000E+00  0.00000000000E+00  0.78463929422E+02  0.78463929422E+02  0.00000000000E+00 0.  1.
          2   -1    0    0  501    0  0.00000000000E+00 -0.00000000000E+00 -0.49445669826E+03  0.49445669826E+03  0.00000000000E+00 0. -1.
          5    1    1    2  502    0  0.47742323928E+02 -0.46404900281E+02 -0.17657865933E+03  0.18877197142E+03  0.47000000000E+01 0. -1.
         -5    1    1    2    0  502 -0.11981913852E+03  0.10525561075E+03 -0.18551712174E+03  0.24469176940E+03  0.47000000000E+01 0.  1.
        -11    1    1    2    0    0 -0.89670614999E+01 -0.31810746077E+02 -0.41615296433E+02  0.53142870219E+02  0.00000000000E+00 0. -1.
         11    1    1    2    0    0  0.81043876095E+02 -0.27039964395E+02 -0.12281691332E+02  0.86314016643E+02  0.00000000000E+00 0.  1.
<mgrwt>
<rscale>  0 0.20424145E+03</rscale>
<asrwt>0</asrwt>
<pdfrwt beam="2">  1        2 0.76070262E-01 0.23828021E+03</pdfrwt>
<pdfrwt beam="1">  1       -2 0.12071374E-01 0.23828021E+03</pdfrwt>
<totfact> 0.30640308E+03</totfact>
</mgrwt>
</event>
<event>
 7    1  0.5928109E-006  0.1295411E+03  0.7546771E-02  0.1234867E+00
         -1   -1    0    0    0  501 -0.00000000000E+00  0.00000000000E+00  0.13525637341E+03  0.13525637341E+03  0.00000000000E+00 0.  1.
          1   -1    0    0  501    0  0.00000000000E+00 -0.00000000000E+00 -0.12802505723E+03  0.12802505723E+03  0.00000000000E+00 0. -1.
         23    2    1    2    0    0 -0.32996815899E+02  0.82720916093E+01 -0.47436952633E+02  0.13795351782E+03  0.12499476487E+03 0.  0.
          5    1    3    3  502    0 -0.77966623804E+00 -0.55731042279E+02 -0.94846686986E+01  0.56732758555E+02  0.47000000000E+01 0. -1.
         -5    1    3    3    0  502 -0.32217149661E+02  0.64003133889E+02 -0.37952283934E+02  0.81220759266E+02  0.47000000000E+01 0. -1.
        -11    1    1    2    0    0  0.43160972293E+02  0.33904141544E+02  0.60348546683E+02  0.81573938424E+02  0.00000000000E+00 0.  1.
         11    1    1    2    0    0 -0.10164156394E+02 -0.42176233153E+02 -0.56802778720E+01  0.43753974390E+02  0.00000000000E+00 0. -1.
<mgrwt>
<rscale>  0 0.12512963E+03</rscale>
<asrwt>0</asrwt>
<pdfrwt beam="2">  1        1 0.19696163E-01 0.12954115E+03</pdfrwt>
<pdfrwt beam="1">  1       -1 0.20808673E-01 0.12954115E+03</pdfrwt>
<totfact> 0.46922956E+03</totfact>
</mgrwt>
</event>
<event>
 7    1  0.5928109E-006  0.1339519E+03  0.7546771E-02  0.1232144E+00
         -2   -1    0    0    0  501 -0.00000000000E+00  0.00000000000E+00  0.23244157882E+03  0.23244157882E+03  0.00000000000E+00 0.  1.
          2   -1    0    0  501    0  0.00000000000E+00 -0.00000000000E+00 -0.78759433575E+02  0.78759433575E+02  0.00000000000E+00 0. -1.
         23    2    1    2    0    0  0.47547042820E+02  0.76688470021E+01  0.13943275088E+02  0.13467561464E+03  0.12499429492E+03 0.  0.
          5    1    3    3  502    0  0.44451880367E+02  0.32170654090E+02 -0.44661682477E+02  0.70906110698E+02  0.47000000000E+01 0. -1.
         -5    1    3    3    0  502  0.30951624535E+01 -0.24501807088E+02  0.58604957565E+02  0.63769503937E+02  0.47000000000E+01 0. -1.
        -11    1    1    2    0    0 -0.52290742237E+01  0.41745429221E+02  0.45048955487E+02  0.61639536570E+02  0.00000000000E+00 0.  1.
         11    1    1    2    0    0 -0.42317968597E+02 -0.49414276223E+02  0.94689914668E+02  0.11488586119E+03  0.00000000000E+00 0. -1.
<mgrwt>
<rscale>  0 0.12689046E+03</rscale>
<asrwt>0</asrwt>
<pdfrwt beam="2">  1        2 0.12116836E-01 0.13395188E+03</pdfrwt>
<pdfrwt beam="1">  1       -2 0.35760243E-01 0.13395188E+03</pdfrwt>
<totfact> 0.35647295E+03</totfact>
</mgrwt>
</event>
<event>
 7    1  0.5928109E-006  0.1506123E+03  0.7546771E-02  0.1208936E+00
          1   -1    0    0  501    0  0.00000000000E+00  0.00000000000E+00  0.79103034476E+03  0.79103034476E+03  0.00000000000E+00 0. -1.
         -1   -1    0    0    0  501 -0.00000000000E+00 -0.00000000000E+00 -0.42518362260E+02  0.42518362260E+02  0.00000000000E+00 0.  1.
         23    2    1    2    0    0  0.74737160432E+02 -0.38385886762E+02  0.67113798927E+03  0.68783011517E+03  0.12499978897E+03 0.  0.
          5    1    3    3  502    0  0.10495275948E+03 -0.37720443148E+02  0.41058464688E+03  0.42548766822E+03  0.47000000000E+01 0.  1.
         -5    1    3    3    0  502 -0.30215599050E+02 -0.66544361380E+00  0.26055334239E+03  0.26234244695E+03  0.47000000000E+01 0.  1.
        -11    1    1    2    0    0 -0.82764909676E+02  0.45776204794E+02  0.33233566740E+02  0.10024949455E+03  0.00000000000E+00 0.  1.
         11    1    1    2    0    0  0.80277492444E+01 -0.73903180315E+01  0.44140426491E+02  0.45469097301E+02  0.00000000000E+00 0. -1.
<mgrwt>
<rscale>  0 0.14331578E+03</rscale>
<asrwt>0</asrwt>
<pdfrwt beam="1">  1        1 0.12169697E+00 0.15061231E+03</pdfrwt>
<pdfrwt beam="2">  1       -1 0.65412871E-02 0.15061231E+03</pdfrwt>
<totfact> 0.27069944E+03</totfact>
</mgrwt>
</event>
<event>
 7    1  0.5928109E-006  0.1392797E+03  0.7546771E-02  0.1225205E+00
          1   -1    0    0  501    0  0.00000000000E+00  0.00000000000E+00  0.19634487993E+03  0.19634487993E+03  0.00000000000E+00 0.  1.
         -1   -1    0    0    0  501 -0.00000000000E+00 -0.00000000000E+00 -0.81340236607E+02  0.81340236607E+02  0.00000000000E+00 0. -1.
         23    2    1    2    0    0  0.99972061694E+00  0.61369075163E+02  0.84035151957E+02  0.16266761880E+03  0.12502673560E+03 0.  0.
          5    1    3    3  502    0  0.60157080315E+02  0.40670293961E+02  0.26447862775E+02  0.77424328013E+02  0.47000000000E+01 0. -1.
         -5    1    3    3    0  502 -0.59157359698E+02  0.20698781203E+02  0.57587289182E+02  0.85243290792E+02  0.47000000000E+01 0. -1.
        -11    1    1    2    0    0 -0.23345515882E+02 -0.73288541456E+02  0.25618858746E+01  0.76959643189E+02  0.00000000000E+00 0.  1.
         11    1    1    2    0    0  0.22345795265E+02  0.11919466293E+02  0.28407605494E+02  0.38057854546E+02  0.00000000000E+00 0. -1.
<mgrwt>
<rscale>  0 0.13152889E+03</rscale>
<asrwt>0</asrwt>
<pdfrwt beam="1">  1        1 0.30206905E-01 0.13927975E+03</pdfrwt>
<pdfrwt beam="2">  1       -1 0.12513883E-01 0.13927975E+03</pdfrwt>
<totfact> 0.61403064E+03</totfact>
</mgrwt>
</event>
<event>
 7    1  0.5928109E-006  0.1331673E+03  0.7546771E-02  0.1235900E+00
         -1   -1    0    0    0  501 -0.00000000000E+00  0.00000000000E+00  0.38193295253E+02  0.38193295253E+02  0.00000000000E+00 0.  1.
          1   -1    0    0  501    0  0.00000000000E+00 -0.00000000000E+00 -0.40947487203E+03  0.40947487203E+03  0.00000000000E+00 0. -1.
         23    2    1    2    0    0  0.44934939488E+02  0.96021195524E+01 -0.28409128725E+03  0.31375369197E+03  0.12498868049E+03 0.  0.
          5    1    3    3  502    0  0.28026574391E+02  0.56580705552E+02 -0.72297236339E+02  0.96103306369E+02  0.47000000000E+01 0.  1.
         -5    1    3    3    0  502  0.16908365098E+02 -0.46978586000E+02 -0.21179405091E+03  0.21765038560E+03  0.47000000000E+01 0.  1.
        -11    1    1    2    0    0 -0.53360939180E+02 -0.22962803617E+02 -0.14973943560E+02  0.59990825681E+02  0.00000000000E+00 0.  1.
         11    1    1    2    0    0  0.84259996919E+01  0.13360684064E+02 -0.72216345973E+02  0.73923649634E+02  0.00000000000E+00 0. -1.
<mgrwt>
<rscale>  0 0.12447026E+03</rscale>
<asrwt>0</asrwt>
<pdfrwt beam="2">  1        1 0.62996130E-01 0.13316726E+03</pdfrwt>
<pdfrwt beam="1">  1       -1 0.58758920E-02 0.13316726E+03</pdfrwt>
<totfact> 0.77227199E+03</totfact>
</mgrwt>
</event>
<event>
 7    1  0.5928109E-006  0.1269103E+03  0.7546771E-02  0.1246304E+00
         -2   -1    0    0    0  501 -0.00000000000E+00  0.00000000000E+00  0.10933528003E+02  0.10933528003E+02  0.00000000000E+00 0.  1.
          2   -1    0    0  501    0  0.00000000000E+00 -0.00000000000E+00 -0.14552417299E+04  0.14552417299E+04  0.00000000000E+00 0. -1.
         23    2    1    2    0    0 -0.21194922868E+02  0.56981735871E+01 -0.11476980783E+04  0.11546935098E+04  0.12499811450E+03 0.  0.
          5    1    3    3  502    0  0.64374570557E+01 -0.54592480394E+02 -0.68850479119E+03  0.69071174687E+03  0.47000000000E+01 0.  1.
         -5    1    3    3    0  502 -0.27632379924E+02  0.60290653981E+02 -0.45919328714E+03  0.46398176293E+03  0.47000000000E+01 0.  1.
        -11    1    1    2    0    0  0.46222409070E+02 -0.15730914583E+02 -0.26702756947E+03  0.27145477640E+03  0.00000000000E+00 0. -1.
         11    1    1    2    0    0 -0.25027486202E+02  0.10032740996E+02 -0.29582554124E+02  0.40026971731E+02  0.00000000000E+00 0.  1.
<mgrwt>
<rscale>  0 0.11807653E+03</rscale>
<asrwt>0</asrwt>
<pdfrwt beam="2">  1        2 0.22388339E+00 0.12691029E+03</pdfrwt>
<pdfrwt beam="1">  1       -2 0.16820809E-02 0.12691029E+03</pdfrwt>
<totfact> 0.13891246E+04</totfact>
</mgrwt>
</event>
<event>
 7    1  0.5928109E-006  0.1869503E+03  0.7546771E-02  0.1166292E+00
         -2   -1    0    0    0  501 -0.00000000000E+00  0.00000000000E+00  0.76606186144E+02  0.76606186144E+02  0.00000000000E+00 0.  1.
          2   -1    0    0  501    0  0.00000000000E+00 -0.00000000000E+00 -0.85465127121E+03  0.85465127121E+03  0.00000000000E+00 0. -1.
         23    2    1    2    0    0  0.50301912139E+02  0.12958886280E+03 -0.73643120006E+03  0.75979031034E+03  0.12500738990E+03 0.  0.
          5    1    3    3  502    0  0.83862843622E+02  0.65018266180E+02 -0.53796362807E+03  0.54834962078E+03  0.47000000000E+01 0.  1.
         -5    1    3    3    0  502 -0.33560931484E+02  0.64570596619E+02 -0.19846757199E+03  0.21144068956E+03  0.47000000000E+01 0.  1.
        -11    1    1    2    0    0 -0.48204037270E+02 -0.10576121896E+03  0.78809365792E+01  0.11649538105E+03  0.00000000000E+00 0.  1.
         11    1    1    2    0    0 -0.20978748683E+01 -0.23827643841E+02 -0.49494821583E+02  0.54971765966E+02  0.00000000000E+00 0. -1.
<mgrwt>
<rscale>  0 0.18157008E+03</rscale>
<asrwt>0</asrwt>
<pdfrwt beam="2">  1        2 0.13148481E+00 0.18695027E+03</pdfrwt>
<pdfrwt beam="1">  1       -2 0.11785567E-01 0.18695027E+03</pdfrwt>
<totfact> 0.16522866E+03</totfact>
</mgrwt>
</event>
<event>
 7    1  0.5928109E-006  0.1425333E+03  0.7546771E-02  0.1219216E+00
         -2   -1    0    0    0  501 -0.00000000000E+00  0.00000000000E+00  0.40865549351E+03  0.40865549351E+03  0.00000000000E+00 0.  1.
          2   -1    0    0  501    0  0.00000000000E+00 -0.00000000000E+00 -0.41780393546E+02  0.41780393546E+02  0.00000000000E+00 0. -1.
         23    2    1    2    0    0 -0.65490736230E+02 -0.20031503567E+02  0.17598756388E+03  0.22646712283E+03  0.12500174965E+03 0.  0.
          5    1    3    3  502    0 -0.47568767728E+01  0.14189666446E+02  0.15168130704E+03  0.15249027319E+03  0.47000000000E+01 0. -1.
         -5    1    3    3    0  502 -0.60733859457E+02 -0.34221170013E+02  0.24306256835E+02  0.73976849642E+02  0.47000000000E+01 0. -1.
        -11    1    1    2    0    0  0.72600254781E+02  0.29798686004E+02  0.19578909422E+03  0.21093157208E+03  0.00000000000E+00 0.  1.
         11    1    1    2    0    0 -0.71095185510E+01 -0.97671824367E+01 -0.49015581423E+01  0.13037192144E+02  0.00000000000E+00 0. -1.
<mgrwt>
<rscale>  0 0.13571321E+03</rscale>
<asrwt>0</asrwt>
<pdfrwt beam="2">  1        2 0.64277531E-02 0.14253328E+03</pdfrwt>
<pdfrwt beam="1">  1       -2 0.62870073E-01 0.14253328E+03</pdfrwt>
<totfact> 0.26041672E+03</totfact>
</mgrwt>
</event>
<event>
 7    1  0.5928109E-006  0.1523094E+03  0.7546771E-02  0.1206301E+00
         -1   -1    0    0    0  501 -0.00000000000E+00  0.00000000000E+00  0.67780260538E+02  0.67780260538E+02  0.00000000000E+00 0.  1.
          1   -1    0    0  501    0  0.00000000000E+00 -0.00000000000E+00 -0.29720021004E+03  0.29720021004E+03  0.00000000000E+00 0. -1.
         23    2    1    2    0    0  0.72610600568E+02  0.47985064012E+02 -0.15968873137E+03  0.22067772034E+03  0.12499319840E+03 0.  0.
          5    1    3    3  502    0 -0.34280124914E+02  0.14269608139E+01 -0.26505849921E+02  0.43609784009E+02  0.47000000000E+01 0. -1.
         -5    1    3    3    0  502  0.10689072548E+03  0.46558103198E+02 -0.13318288145E+03  0.17706793633E+03  0.47000000000E+01 0. -1.
        -11    1    1    2    0    0 -0.54946684590E+02  0.35594223283E+00 -0.74548434929E+02  0.92610658094E+02  0.00000000000E+00 0. -1.
         11    1    1    2    0    0 -0.17663915978E+02 -0.48341006245E+02  0.48172167916E+01  0.51692092142E+02  0.00000000000E+00 0.  1.
<mgrwt>
<rscale>  0 0.14535403E+03</rscale>
<asrwt>0</asrwt>
<pdfrwt beam="2">  1        1 0.45723109E-01 0.15230944E+03</pdfrwt>
<pdfrwt beam="1">  1       -1 0.10427733E-01 0.15230944E+03</pdfrwt>
<totfact> 0.48887219E+03</totfact>
</mgrwt>
</event>
<event>
 7    1  0.5928109E-006  0.1274451E+03  0.7546771E-02  0.1246562E+00
         -1   -1    0    0    0  501 -0.00000000000E+00  0.00000000000E+00  0.94880024423E+02  0.94880024423E+02  0.00000000000E+00 0.  1.
          1   -1    0    0  501    0  0.00000000000E+00 -0.00000000000E+00 -0.12972008732E+03  0.12972008732E+03  0.00000000000E+00 0. -1.
         23    2    1    2    0    0  0.23661119008E+02  0.75637539065E+01 -0.30693855236E+02  0.13108917937E+03  0.12500080509E+03 0.  0.
          5    1    3    3  502    0 -0.36158152545E+01 -0.28241332135E+02 -0.67077330553E+02  0.73021265635E+02  0.47000000000E+01 0.  1.
         -5    1    3    3    0  502  0.27276934263E+02  0.35805086042E+02  0.36383475318E+02  0.58067913734E+02  0.47000000000E+01 0.  1.
        -11    1    1    2    0    0  0.30739677594E+02  0.27116202280E+01 -0.18937358760E+02  0.36206411306E+02  0.00000000000E+00 0. -1.
         11    1    1    2    0    0 -0.54400796602E+02 -0.10275374135E+02  0.14791151095E+02  0.57304521072E+02  0.00000000000E+00 0.  1.
<mgrwt>
<rscale>  0 0.11792372E+03</rscale>
<asrwt>0</asrwt>
<pdfrwt beam="2">  1        1 0.19956936E-01 0.12744513E+03</pdfrwt>
<pdfrwt beam="1">  1       -1 0.14596927E-01 0.12744513E+03</pdfrwt>
<totfact> 0.80831058E+03</totfact>
</mgrwt>
</event>
<event>
 7    1  0.5928109E-006  0.1531089E+03  0.7546771E-02  0.1205387E+00
         -1   -1    0    0    0  501 -0.00000000000E+00  0.00000000000E+00  0.71039199116E+02  0.71039199116E+02  0.00000000000E+00 0.  1.
          1   -1    0    0  501    0  0.00000000000E+00 -0.00000000000E+00 -0.45231332561E+03  0.45231332561E+03  0.00000000000E+00 0. -1.
         23    2    1    2    0    0 -0.30025992052E+02 -0.83160181453E+02 -0.36457754480E+03  0.39542270694E+03  0.12500062005E+03 0.  0.
          5    1    3    3  502    0 -0.46326603474E+01  0.31541213527E+02 -0.48915757100E+02  0.58576027394E+02  0.47000000000E+01 0. -1.
         -5    1    3    3    0  502 -0.25393331705E+02 -0.11470139498E+03 -0.31566178770E+03  0.33684667955E+03  0.47000000000E+01 0. -1.
        -11    1    1    2    0    0  0.18070315736E+02  0.98973112971E+02  0.20720940696E+01  0.10063054693E+03  0.00000000000E+00 0.  1.
         11    1    1    2    0    0  0.11955676315E+02 -0.15812931518E+02 -0.18768675765E+02  0.27299270857E+02  0.00000000000E+00 0. -1.
<mgrwt>
<rscale>  0 0.14606984E+03</rscale>
<asrwt>0</asrwt>
<pdfrwt beam="2">  1        1 0.69586666E-01 0.15310889E+03</pdfrwt>
<pdfrwt beam="1">  1       -1 0.10929107E-01 0.15310889E+03</pdfrwt>
<totfact> 0.26814666E+03</totfact>
</mgrwt>
</event>
<event>
 7    1  0.5928109E-006  0.1328505E+03  0.7546771E-02  0.1236210E+00
          1   -1    0    0  501    0  0.00000000000E+00  0.00000000000E+00  0.48862782057E+02  0.48862782057E+02  0.00000000000E+00 0. -1.
         -1   -1    0    0    0  501 -0.00000000000E+00 -0.00000000000E+00 -0.30578669725E+03  0.30578669725E+03  0.00000000000E+00 0.  1.
         23    2    1    2    0    0  0.71128182964E+01  0.44384895987E+02 -0.94614169434E+02  0.16309839841E+03  0.12501454048E+03 0.  0.
          5    1    3    3  502    0  0.44342591567E+02  0.36981175333E+02 -0.10801575825E+03  0.12256984453E+03  0.47000000000E+01 0.  1.
         -5    1    3    3    0  502 -0.37229773270E+02  0.74037206537E+01  0.13401588819E+02  0.40528553887E+02  0.47000000000E+01 0.  1.
        -11    1    1    2    0    0 -0.40194486410E+02 -0.23786352399E+02 -0.34871151369E+02  0.58287086872E+02  0.00000000000E+00 0. -1.
         11    1    1    2    0    0  0.33081668113E+02 -0.20598543587E+02 -0.12743859439E+03  0.13326399403E+03  0.00000000000E+00 0.  1.
<mgrwt>
<rscale>  0 0.12427278E+03</rscale>
<asrwt>0</asrwt>
<pdfrwt beam="1">  1        1 0.75173512E-02 0.13285047E+03</pdfrwt>
<pdfrwt beam="2">  1       -1 0.47044107E-01 0.13285047E+03</pdfrwt>
<totfact> 0.41645919E+03</totfact>
</mgrwt>
</event>
<event>
 7    1  0.5928109E-006  0.1404119E+03  0.7546771E-02  0.1224012E+00
          1   -1    0    0  501    0  0.00000000000E+00  0.00000000000E+00  0.32586583751E+02  0.32586583751E+02  0.00000000000E+00 0. -1.
         -1   -1    0    0    0  501 -0.00000000000E+00 -0.00000000000E+00 -0.50548374230E+03  0.50548374230E+03  0.00000000000E+00 0.  1.
         23    2    1    2    0    0 -0.63383493121E+02  0.85650632035E+01 -0.20837937490E+03  0.25127172205E+03  0.12499874763E+03 0.  0.
          5    1    3    3  502    0 -0.56420844504E+02  0.24403436102E+02 -0.22094050293E+03  0.22938098270E+03  0.47000000000E+01 0. -1.
         -5    1    3    3    0  502 -0.69626486172E+01 -0.15838372898E+02  0.12561128033E+02  0.21890739350E+02  0.47000000000E+01 0. -1.
        -11    1    1    2    0    0  0.65600467013E+02  0.30039581345E+02 -0.17428440921E+03  0.18862887640E+03  0.00000000000E+00 0.  1.
         11    1    1    2    0    0 -0.22169738918E+01 -0.38604644548E+02 -0.90233374437E+02  0.98169727596E+02  0.00000000000E+00 0. -1.
<mgrwt>
<rscale>  0 0.13234866E+03</rscale>
<asrwt>0</asrwt>
<pdfrwt beam="1">  1        1 0.50133211E-02 0.14041195E+03</pdfrwt>
<pdfrwt beam="2">  1       -1 0.77766722E-01 0.14041195E+03</pdfrwt>
<totfact> 0.27745343E+03</totfact>
</mgrwt>
</event>
<event>
 7    1  0.5928109E-006  0.1266458E+03  0.7546771E-02  0.1253120E+00
         -1   -1    0    0    0  501 -0.00000000000E+00  0.00000000000E+00  0.17223480051E+02  0.17223480051E+02  0.00000000000E+00 0.  1.
          1   -1    0    0  501    0  0.00000000000E+00 -0.00000000000E+00 -0.10373621210E+04  0.10373621210E+04  0.00000000000E+00 0. -1.
         23    2    1    2    0    0 -0.19690607817E+02 -0.50491050443E+01 -0.89641853109E+03  0.90532057905E+03  0.12500381784E+03 0.  0.
          5    1    3    3  502    0 -0.60298522120E+02 -0.36796217954E+02 -0.40056691046E+03  0.40677489252E+03  0.47000000000E+01 0. -1.
         -5    1    3    3    0  502  0.40607914303E+02  0.31747112910E+02 -0.49585162063E+03  0.49854568653E+03  0.47000000000E+01 0. -1.
        -11    1    1    2    0    0 -0.16446616641E+02  0.13978069684E+02 -0.16518779704E+01  0.21647316967E+02  0.00000000000E+00 0.  1.
         11    1    1    2    0    0  0.36137224458E+02 -0.89289646398E+01 -0.12206823184E+03  0.12761770499E+03  0.00000000000E+00 0. -1.
<mgrwt>
<rscale>  0 0.11412311E+03</rscale>
<asrwt>0</asrwt>
<pdfrwt beam="2">  1        1 0.15959424E+00 0.12664584E+03</pdfrwt>
<pdfrwt beam="1">  1       -1 0.26497651E-02 0.12664584E+03</pdfrwt>
<totfact> 0.65854933E+03</totfact>
</mgrwt>
</event>
<event>
 7    1  0.5928109E-006  0.1370249E+03  0.7546771E-02  0.1231661E+00
         -3   -1    0    0    0  501 -0.00000000000E+00  0.00000000000E+00  0.16924535051E+03  0.16924535051E+03  0.00000000000E+00 0.  1.
          3   -1    0    0  501    0  0.00000000000E+00 -0.00000000000E+00 -0.13107517628E+03  0.13107517628E+03  0.00000000000E+00 0. -1.
         23    2    1    2    0    0  0.54815563301E+02  0.12082638850E+02 -0.68239306642E+02  0.15307655729E+03  0.12500037311E+03 0.  0.
          5    1    3    3  502    0 -0.68383943213E+01  0.20847645707E+02 -0.85409848266E+02  0.88308097869E+02  0.47000000000E+01 0. -1.
         -5    1    3    3    0  502  0.61653957622E+02 -0.87650068573E+01  0.17170541624E+02  0.64768459418E+02  0.47000000000E+01 0. -1.
        -11    1    1    2    0    0 -0.21282062985E+01  0.30960612785E+02  0.50083744984E+02  0.58919184631E+02  0.00000000000E+00 0.  1.
         11    1    1    2    0    0 -0.52687357002E+02 -0.43043251634E+02  0.56325735883E+02  0.88324784868E+02  0.00000000000E+00 0. -1.
<mgrwt>
<rscale>  0 0.12720617E+03</rscale>
<asrwt>0</asrwt>
<pdfrwt beam="2">  1        3 0.20165412E-01 0.13702492E+03</pdfrwt>
<pdfrwt beam="1">  1       -3 0.26037746E-01 0.13702492E+03</pdfrwt>
<totfact> 0.71433921E+02</totfact>
</mgrwt>
</event>
<event>
 7    1  0.5928109E-006  0.1237033E+03  0.7546771E-02  0.1247123E+00
          2   -1    0    0  501    0  0.00000000000E+00  0.00000000000E+00  0.79580590961E+02  0.79580590961E+02  0.00000000000E+00 0. -1.
         -2   -1    0    0    0  501 -0.00000000000E+00 -0.00000000000E+00 -0.16616263403E+03  0.16616263403E+03  0.00000000000E+00 0.  1.
         23    2    1    2    0    0 -0.27153079577E+02 -0.32582548142E+02 -0.21436203779E+02  0.12554686228E+03  0.11620495524E+03 0.  0.
          5    1    3    3  502    0 -0.26946681448E+02 -0.17240381454E+02  0.46000505174E+02  0.56227136420E+02  0.47000000000E+01 0. -1.
         -5    1    3    3    0  502 -0.20639812868E+00 -0.15342166688E+02 -0.67436708953E+02  0.69319725860E+02  0.47000000000E+01 0.  1.
        -11    1    1    2    0    0 -0.31103374677E+02 -0.52429912365E+01 -0.21106964249E+02  0.37952770824E+02  0.00000000000E+00 0. -1.
         11    1    1    2    0    0  0.58256454254E+02  0.37825539379E+02 -0.44038875037E+02  0.82243591884E+02  0.00000000000E+00 0.  1.
<mgrwt>
<rscale>  0 0.11759204E+03</rscale>
<asrwt>0</asrwt>
<pdfrwt beam="1">  1        2 0.12243168E-01 0.12370329E+03</pdfrwt>
<pdfrwt beam="2">  1       -2 0.25563482E-01 0.12370329E+03</pdfrwt>
<totfact> 0.64047484E+03</totfact>
</mgrwt>
</event>
<event>
 7    1  0.5928109E-006  0.1652654E+03  0.7546771E-02  0.1189992E+00
          2   -1    0    0  501    0  0.00000000000E+00  0.00000000000E+00  0.15576159329E+04  0.15576159329E+04  0.00000000000E+00 0. -1.
         -2   -1    0    0    0  501 -0.00000000000E+00 -0.00000000000E+00 -0.22070411220E+02  0.22070411220E+02  0.00000000000E+00 0.  1.
         23    2    1    2    0    0  0.13374179959E+02  0.10729832667E+03  0.12532241449E+04  0.12640741344E+04  0.12498343967E+03 0.  0.
          5    1    3    3  502    0 -0.76960487100E+01 -0.24598610606E+02  0.11064046808E+03  0.11370014946E+03  0.47000000000E+01 0. -1.
         -5    1    3    3    0  502  0.21070228669E+02  0.13189693727E+03  0.11425836769E+04  0.11503739849E+04  0.47000000000E+01 0. -1.
        -11    1    1    2    0    0  0.22876111701E+01 -0.28289781482E+02  0.76793179733E+01  0.29402666983E+02  0.00000000000E+00 0.  1.
         11    1    1    2    0    0 -0.15661791129E+02 -0.79008545184E+02  0.27464205880E+03  0.28620954277E+03  0.00000000000E+00 0. -1.
<mgrwt>
<rscale>  0 0.15885786E+03</rscale>
<asrwt>0</asrwt>
<pdfrwt beam="1">  1        2 0.23963313E+00 0.16526542E+03</pdfrwt>
<pdfrwt beam="2">  1       -2 0.33954491E-02 0.16526542E+03</pdfrwt>
<totfact> 0.44394048E+03</totfact>
</mgrwt>
</event>
<event>
 6    1  0.5928109E-006  0.5576670E+03  0.7546771E-02  0.1051089E+00
          2   -1    0    0  501    0  0.00000000000E+00  0.00000000000E+00  0.69889550331E+03  0.69889550331E+03  0.00000000000E+00 0. -1.
         -2   -1    0    0    0  501 -0.00000000000E+00 -0.00000000000E+00 -0.16415406902E+03  0.16415406902E+03  0.00000000000E+00 0.  1.
          5    1    1    2  502    0  0.14673906604E+03  0.21307817898E+03  0.37414119812E+03  0.45490481421E+03  0.47000000000E+01 0. -1.
         -5    1    1    2    0  502 -0.19167702469E+03 -0.15291174836E+03  0.61732389192E+02  0.25289338160E+03  0.47000000000E+01 0.  1.
        -11    1    1    2    0    0  0.59738400973E+02 -0.10413101239E+02  0.26462692683E+02  0.66161796622E+02  0.00000000000E+00 0.  1.
         11    1    1    2    0    0 -0.14800442322E+02 -0.49753329382E+02  0.72405154293E+02  0.89089579894E+02  0.00000000000E+00 0. -1.
<mgrwt>
<rscale>  0 0.37958142E+03</rscale>
<asrwt>0</asrwt>
<pdfrwt beam="1">  1        2 0.10752238E+00 0.55766702E+03</pdfrwt>
<pdfrwt beam="2">  1       -2 0.25254472E-01 0.55766702E+03</pdfrwt>
<totfact> 0.58318812E+02</totfact>
</mgrwt>
</event>
<event>
 7    1  0.5928109E-006  0.2758359E+03  0.7546771E-02  0.1100004E+00
         -2   -1    0    0    0  501 -0.00000000000E+00  0.00000000000E+00  0.21477014467E+03  0.21477014467E+03  0.00000000000E+00 0.  1.
          2   -1    0    0  501    0  0.00000000000E+00 -0.00000000000E+00 -0.36393184393E+03  0.36393184393E+03  0.00000000000E+00 0. -1.
         23    2    1    2    0    0 -0.10078278035E+03 -0.22429856356E+03 -0.15597187216E+03  0.31687956463E+03  0.12497367379E+03 0.  0.
          5    1    3    3  502    0 -0.63449243494E+02 -0.22057281362E+03 -0.15852527267E+03  0.27898122639E+03  0.47000000000E+01 0.  1.
         -5    1    3    3    0  502 -0.37333536853E+02 -0.37257499469E+01  0.25534005032E+01  0.37898338232E+02  0.47000000000E+01 0.  1.
        -11    1    1    2    0    0  0.84861702016E+02  0.10820604156E+03  0.33731527293E+02  0.14159050757E+03  0.00000000000E+00 0. -1.
         11    1    1    2    0    0  0.15921078331E+02  0.11609252200E+03 -0.26921354388E+02  0.12023191640E+03  0.00000000000E+00 0.  1.
<mgrwt>
<rscale>  0 0.27224069E+03</rscale>
<asrwt>0</asrwt>
<pdfrwt beam="2">  1        2 0.55989514E-01 0.27583588E+03</pdfrwt>
<pdfrwt beam="1">  1       -2 0.33041561E-01 0.27583588E+03</pdfrwt>
<totfact> 0.75980624E+02</totfact>
</mgrwt>
</event>
<event>
 7    1  0.5928109E-006  0.1833385E+03  0.7546771E-02  0.1170167E+00
         -1   -1    0    0    0  501 -0.00000000000E+00  0.00000000000E+00  0.26333479765E+03  0.26333479765E+03  0.00000000000E+00 0.  1.
          1   -1    0    0  501    0  0.00000000000E+00 -0.00000000000E+00 -0.14185734873E+03  0.14185734873E+03  0.00000000000E+00 0. -1.
         23    2    1    2    0    0 -0.13381755469E+03 -0.94641811612E+01 -0.27723219478E+02  0.18542271702E+03  0.12496518885E+03 0.  0.
          5    1    3    3  502    0 -0.98404441957E+01  0.34908986395E+02  0.24139199937E+02  0.43820801529E+02  0.47000000000E+01 0.  1.
         -5    1    3    3    0  502 -0.12397711049E+03 -0.44373167556E+02 -0.51862419414E+02  0.14160191550E+03  0.47000000000E+01 0.  1.
        -11    1    1    2    0    0  0.10101230473E+03 -0.12089692874E+02  0.50557297095E+02  0.11360319832E+03  0.00000000000E+00 0. -1.
         11    1    1    2    0    0  0.32805249960E+02  0.21553874035E+02  0.98643371302E+02  0.10616623104E+03  0.00000000000E+00 0.  1.
<mgrwt>
<rscale>  0 0.17757864E+03</rscale>
<asrwt>0</asrwt>
<pdfrwt beam="2">  1        1 0.21824207E-01 0.18333850E+03</pdfrwt>
<pdfrwt beam="1">  1       -1 0.40513046E-01 0.18333850E+03</pdfrwt>
<totfact> 0.13630712E+03</totfact>
</mgrwt>
</event>
<event>
 7    1  0.5928109E-006  0.1487173E+03  0.7546771E-02  0.1215688E+00
          2   -1    0    0  501    0  0.00000000000E+00  0.00000000000E+00  0.15082662749E+03  0.15082662749E+03  0.00000000000E+00 0.  1.
         -2   -1    0    0    0  501 -0.00000000000E+00 -0.00000000000E+00 -0.11189342978E+03  0.11189342978E+03  0.00000000000E+00 0. -1.
         23    2    1    2    0    0 -0.47424721159E+02 -0.65138405301E+02  0.22594818242E+02  0.15042397775E+03  0.12499892499E+03 0.  0.
          5    1    3    3  502    0 -0.12983058057E+02 -0.61755096534E+02 -0.42725369952E+02  0.76353120316E+02  0.47000000000E+01 0.  1.
         -5    1    3    3    0  502 -0.34441663102E+02 -0.33833087664E+01  0.65320188194E+02  0.74070857435E+02  0.47000000000E+01 0.  1.
        -11    1    1    2    0    0  0.68631001044E+02  0.46840159603E+02  0.12172874388E+02  0.83978531345E+02  0.00000000000E+00 0. -1.
         11    1    1    2    0    0 -0.21206279885E+02  0.18298245698E+02  0.41655050790E+01  0.28317548177E+02  0.00000000000E+00 0.  1.
<mgrwt>
<rscale>  0 0.13826137E+03</rscale>
<asrwt>0</asrwt>
<pdfrwt beam="1">  1        2 0.23204097E-01 0.14871734E+03</pdfrwt>
<pdfrwt beam="2">  1       -2 0.17214374E-01 0.14871734E+03</pdfrwt>
<totfact> 0.60839354E+03</totfact>
</mgrwt>
</event>
<event>
 7    1  0.5928109E-006  0.1408861E+03  0.7546771E-02  0.1224321E+00
         -1   -1    0    0    0  501 -0.00000000000E+00  0.00000000000E+00  0.29853070325E+03  0.29853070325E+03  0.00000000000E+00 0.  1.
          1   -1    0    0  501    0  0.00000000000E+00 -0.00000000000E+00 -0.54911059087E+02  0.54911059087E+02  0.00000000000E+00 0. -1.
         23    2    1    2    0    0  0.64413490522E+02  0.86691686550E+01  0.98347636387E+02  0.17181717543E+03  0.12499852777E+03 0.  0.
          5    1    3    3  502    0  0.65701030676E+02 -0.22276451584E+02  0.11645427640E+03  0.13563389775E+03  0.47000000000E+01 0.  1.
         -5    1    3    3    0  502 -0.12875401535E+01  0.30945620239E+02 -0.18106640010E+02  0.36183277686E+02  0.47000000000E+01 0.  1.
        -11    1    1    2    0    0 -0.84323834231E+02 -0.19107130244E+02  0.11786763122E+03  0.14617923907E+03  0.00000000000E+00 0. -1.
         11    1    1    2    0    0  0.19910343708E+02  0.10437961589E+02  0.27404376560E+02  0.35445347838E+02  0.00000000000E+00 0.  1.
<mgrwt>
<rscale>  0 0.13213542E+03</rscale>
<asrwt>0</asrwt>
<pdfrwt beam="2">  1        1 0.84478554E-02 0.14088607E+03</pdfrwt>
<pdfrwt beam="1">  1       -1 0.45927800E-01 0.14088607E+03</pdfrwt>
<totfact> 0.37314292E+03</totfact>
</mgrwt>
</event>
<event>
 6    1  0.5928109E-006  0.2212006E+03  0.7546771E-02  0.1163100E+00
         -1   -1    0    0    0  501 -0.00000000000E+00  0.00000000000E+00  0.35499922112E+03  0.35499922112E+03  0.00000000000E+00 0.  1.
          1   -1    0    0  501    0  0.00000000000E+00 -0.00000000000E+00 -0.19522732677E+03  0.19522732677E+03  0.00000000000E+00 0. -1.
          5    1    1    2  502    0  0.24672937572E+02  0.13572377855E+03 -0.96389371351E+02  0.16835289966E+03  0.47000000000E+01 0. -1.
         -5    1    1    2    0  502 -0.23696510923E+02 -0.75937140499E+02 -0.22646955431E+02  0.82842914769E+02  0.47000000000E+01 0.  1.
        -11    1    1    2    0    0  0.44254725688E+02 -0.35006427909E+02  0.15201804952E+03  0.16215245332E+03  0.00000000000E+00 0.  1.
         11    1    1    2    0    0 -0.45231152337E+02 -0.24780210145E+02  0.12679017161E+03  0.13687828014E+03  0.00000000000E+00 0. -1.
<mgrwt>
<rscale>  0 0.18494599E+03</rscale>
<asrwt>0</asrwt>
<pdfrwt beam="2">  1        1 0.30034973E-01 0.22120057E+03</pdfrwt>
<pdfrwt beam="1">  1       -1 0.54615265E-01 0.22120057E+03</pdfrwt>
<totfact> 0.52860189E+02</totfact>
</mgrwt>
</event>
<event>
 7    1  0.5928109E-006  0.1430334E+03  0.7546771E-02  0.1219400E+00
          2   -1    0    0  501    0  0.00000000000E+00  0.00000000000E+00  0.18394129059E+03  0.18394129059E+03  0.00000000000E+00 0. -1.
         -2   -1    0    0    0  501 -0.00000000000E+00 -0.00000000000E+00 -0.11352649278E+03  0.11352649278E+03  0.00000000000E+00 0.  1.
         23    2    1    2    0    0  0.28108238019E+02 -0.63599906426E+02  0.10441127607E+03  0.17708830485E+03  0.12499412788E+03 0.  0.
          5    1    3    3  502    0  0.34726726057E+02  0.18601406946E+01 -0.16940927762E+02  0.38967815688E+02  0.47000000000E+01 0.  1.
         -5    1    3    3    0  502 -0.66184880381E+01 -0.65460047121E+02  0.12135220383E+03  0.13812048916E+03  0.47000000000E+01 0.  1.
        -11    1    1    2    0    0 -0.95981510696E+00 -0.21048755935E+02 -0.22363096176E+02  0.30725875773E+02  0.00000000000E+00 0.  1.
         11    1    1    2    0    0 -0.27148422912E+02  0.84648662361E+02 -0.11633382080E+02  0.89653602743E+02  0.00000000000E+00 0. -1.
<mgrwt>
<rscale>  0 0.13558264E+03</rscale>
<asrwt>0</asrwt>
<pdfrwt beam="1">  1        2 0.28298660E-01 0.14303340E+03</pdfrwt>
<pdfrwt beam="2">  1       -2 0.17465614E-01 0.14303340E+03</pdfrwt>
<totfact> 0.47600379E+03</totfact>
</mgrwt>
</event>
<event>
 7    1  0.5928109E-006  0.1148233E+03  0.7546771E-02  0.1262970E+00
          3   -1    0    0  501    0  0.00000000000E+00  0.00000000000E+00  0.36092512007E+02  0.36092512007E+02  0.00000000000E+00 0. -1.
         -3   -1    0    0    0  501 -0.00000000000E+00 -0.00000000000E+00 -0.29712735160E+03  0.29712735160E+03  0.00000000000E+00 0.  1.
         23    2    1    2    0    0 -0.41775364972E+01 -0.97977228461E+01 -0.14228662241E+03  0.18283839255E+03  0.11432824537E+03 0.  0.
          5    1    3    3  502    0 -0.43634703736E+02  0.65796649891E+01 -0.12476122873E+02  0.46097971793E+02  0.47000000000E+01 0. -1.
         -5    1    3    3    0  502  0.39457167238E+02 -0.16377387835E+02 -0.12981049954E+03  0.13674042076E+03  0.47000000000E+01 0.  1.
        -11    1    1    2    0    0  0.44268238152E+02  0.86630672249E+01 -0.91137415475E+02  0.10168949868E+03  0.00000000000E+00 0.  1.
         11    1    1    2    0    0 -0.40090701655E+02  0.11346556213E+01 -0.27610801705E+02  0.48691972371E+02  0.00000000000E+00 0. -1.
<mgrwt>
<rscale>  0 0.10871407E+03</rscale>
<asrwt>0</asrwt>
<pdfrwt beam="1">  1        3 0.55526944E-02 0.11482332E+03</pdfrwt>
<pdfrwt beam="2">  1       -3 0.45711898E-01 0.11482332E+03</pdfrwt>
<totfact> 0.20494902E+03</totfact>
</mgrwt>
</event>
<event>
 7    1  0.5928109E-006  0.1290202E+03  0.7546771E-02  0.1242447E+00
         -2   -1    0    0    0  501 -0.00000000000E+00  0.00000000000E+00  0.43522324337E+02  0.43522324337E+02  0.00000000000E+00 0.  1.
          2   -1    0    0  501    0  0.00000000000E+00 -0.00000000000E+00 -0.30670054140E+03  0.30670054140E+03  0.00000000000E+00 0. -1.
         23    2    1    2    0    0 -0.22767572715E+02 -0.22413667214E+02 -0.11601128566E+03  0.17350742174E+03  0.12500188859E+03 0.  0.
          5    1    3    3  502    0 -0.67478723375E+02  0.15434480159E+02 -0.72777489635E+02  0.10054976024E+03  0.47000000000E+01 0. -1.
         -5    1    3    3    0  502  0.44711150660E+02 -0.37848147374E+02 -0.43233796028E+02  0.72957661503E+02  0.47000000000E+01 0. -1.
        -11    1    1    2    0    0  0.45093685772E+02 -0.16814445674E+02 -0.49065111731E+02  0.68728096649E+02  0.00000000000E+00 0.  1.
         11    1    1    2    0    0 -0.22326113057E+02  0.39228112889E+02 -0.98101819670E+02  0.10798734735E+03  0.00000000000E+00 0. -1.
<mgrwt>
<rscale>  0 0.12039504E+03</rscale>
<asrwt>0</asrwt>
<pdfrwt beam="2">  1        2 0.47184697E-01 0.12902018E+03</pdfrwt>
<pdfrwt beam="1">  1       -2 0.66957425E-02 0.12902018E+03</pdfrwt>
<totfact> 0.12511413E+04</totfact>
</mgrwt>
</event>
<event>
 7    1  0.5928109E-006  0.1305414E+03  0.7546771E-02  0.1242696E+00
         -2   -1    0    0    0  501 -0.00000000000E+00  0.00000000000E+00  0.15631945377E+02  0.15631945377E+02  0.00000000000E+00 0. -1.
          2   -1    0    0  501    0  0.00000000000E+00 -0.00000000000E+00 -0.16381111961E+04  0.16381111961E+04  0.00000000000E+00 0.  1.
         23    2    1    2    0    0 -0.37461095577E+02 -0.22799094764E+01 -0.14616854964E+04  0.14675031696E+04  0.12503011925E+03 0.  0.
          5    1    3    3  502    0 -0.24220008627E+02  0.24267062666E+02 -0.10642947982E+03  0.11191435709E+03  0.47000000000E+01 0. -1.
         -5    1    3    3    0  502 -0.13241086950E+02 -0.26546972142E+02 -0.13552560166E+04  0.13555888125E+04  0.47000000000E+01 0. -1.
        -11    1    1    2    0    0  0.61818160083E+02 -0.23211290163E+01 -0.76529541985E+02  0.98405504686E+02  0.00000000000E+00 0. -1.
         11    1    1    2    0    0 -0.24357064507E+02  0.46010384926E+01 -0.84264212367E+02  0.87834467223E+02  0.00000000000E+00 0.  1.
<mgrwt>
<rscale>  0 0.12024322E+03</rscale>
<asrwt>0</asrwt>
<pdfrwt beam="2">  1        2 0.25201713E+00 0.13054142E+03</pdfrwt>
<pdfrwt beam="1">  1       -2 0.24049144E-02 0.13054142E+03</pdfrwt>
<totfact> 0.66609674E+03</totfact>
</mgrwt>
</event>
<event>
 7    1  0.5928109E-006  0.1348078E+03  0.7546771E-02  0.1233152E+00
         -1   -1    0    0    0  501 -0.00000000000E+00  0.00000000000E+00  0.17491858540E+02  0.17491858540E+02  0.00000000000E+00 0.  1.
          1   -1    0    0  501    0  0.00000000000E+00 -0.00000000000E+00 -0.11332142450E+04  0.11332142450E+04  0.00000000000E+00 0. -1.
         23    2    1    2    0    0 -0.40736468687E+02  0.22841219968E+02 -0.91424433156E+03  0.92412977293E+03  0.12645931444E+03 0.  0.
          5    1    3    3  502    0  0.38786038799E+02  0.37094695449E+02 -0.36997010504E+03  0.37387209292E+03  0.47000000000E+01 0. -1.
         -5    1    3    3    0  502 -0.79522507485E+02 -0.14253475481E+02 -0.54427422652E+03  0.55025768001E+03  0.47000000000E+01 0.  1.
        -11    1    1    2    0    0 -0.24178093239E+02  0.14395122598E+02 -0.67176811117E+02  0.72832161160E+02  0.00000000000E+00 0.  1.
         11    1    1    2    0    0  0.64914561926E+02 -0.37236342567E+02 -0.13430124375E+03  0.15374416942E+03  0.00000000000E+00 0. -1.
<mgrwt>
<rscale>  0 0.12623480E+03</rscale>
<asrwt>0</asrwt>
<pdfrwt beam="2">  1        1 0.17434063E+00 0.13480779E+03</pdfrwt>
<pdfrwt beam="1">  1       -1 0.26910555E-02 0.13480779E+03</pdfrwt>
<totfact> 0.55237494E+03</totfact>
</mgrwt>
</event>
<event>
 7    1  0.5928109E-006  0.1297795E+03  0.7546771E-02  0.1241500E+00
         -1   -1    0    0    0  501 -0.00000000000E+00  0.00000000000E+00  0.29073708106E+03  0.29073708106E+03  0.00000000000E+00 0.  1.
          1   -1    0    0  501    0  0.00000000000E+00 -0.00000000000E+00 -0.45409568848E+02  0.45409568848E+02  0.00000000000E+00 0. -1.
         23    2    1    2    0    0  0.34648753653E+02 -0.42142774718E+01  0.11734386902E+03  0.17496371031E+03  0.12499768024E+03 0.  0.
          5    1    3    3  502    0 -0.21563706055E+02 -0.15730236580E+02 -0.14759264185E+02  0.30860324706E+02  0.47000000000E+01 0. -1.
         -5    1    3    3    0  502  0.56212459708E+02  0.11515959108E+02  0.13210313320E+03  0.14410338561E+03  0.47000000000E+01 0. -1.
        -11    1    1    2    0    0 -0.17826735532E+02  0.25460648124E+02  0.74461651098E+00  0.31090055586E+02  0.00000000000E+00 0. -1.
         11    1    1    2    0    0 -0.16822018121E+02 -0.21246370652E+02  0.12723902669E+03  0.13009288401E+03  0.00000000000E+00 0.  1.
<mgrwt>
<rscale>  0 0.12097320E+03</rscale>
<asrwt>0</asrwt>
<pdfrwt beam="2">  1        1 0.69860877E-02 0.12977949E+03</pdfrwt>
<pdfrwt beam="1">  1       -1 0.44728781E-01 0.12977949E+03</pdfrwt>
<totfact> 0.50240523E+03</totfact>
</mgrwt>
</event>
<event>
 7    1  0.5928109E-006  0.1367522E+03  0.7546771E-02  0.1229679E+00
         -1   -1    0    0    0  501 -0.00000000000E+00  0.00000000000E+00  0.22766672049E+03  0.22766672049E+03  0.00000000000E+00 0.  1.
          1   -1    0    0  501    0  0.00000000000E+00 -0.00000000000E+00 -0.83494899050E+02  0.83494899050E+02  0.00000000000E+00 0. -1.
         23    2    1    2    0    0  0.48540389102E+02 -0.26844660040E+02  0.63609854295E+01  0.13690010922E+03  0.12499749046E+03 0.  0.
          5    1    3    3  502    0  0.54624418747E+02 -0.33719654286E+02 -0.48806069836E+02  0.80777253366E+02  0.47000000000E+01 0.  1.
         -5    1    3    3    0  502 -0.60840296448E+01  0.68749942459E+01  0.55167055265E+02  0.56122855854E+02  0.47000000000E+01 0.  1.
        -11    1    1    2    0    0 -0.68056528646E+02  0.38505618795E+02  0.78754754364E+02  0.11098056183E+03  0.00000000000E+00 0. -1.
         11    1    1    2    0    0  0.19516139543E+02 -0.11660958755E+02  0.59056081650E+02  0.63280948488E+02  0.00000000000E+00 0.  1.
<mgrwt>
<rscale>  0 0.12851268E+03</rscale>
<asrwt>0</asrwt>
<pdfrwt beam="2">  1        1 0.12845369E-01 0.13675225E+03</pdfrwt>
<pdfrwt beam="1">  1       -1 0.35025649E-01 0.13675225E+03</pdfrwt>
<totfact> 0.34425086E+03</totfact>
</mgrwt>
</event>
<event>
 7    1  0.5928109E-006  0.1647347E+03  0.7546771E-02  0.1190592E+00
          1   -1    0    0  501    0  0.00000000000E+00  0.00000000000E+00  0.12863909848E+03  0.12863909848E+03  0.00000000000E+00 0. -1.
         -1   -1    0    0    0  501 -0.00000000000E+00 -0.00000000000E+00 -0.20932777629E+03  0.20932777629E+03  0.00000000000E+00 0.  1.
         23    2    1    2    0    0  0.10369747104E+03  0.27574494624E+02  0.18712377802E+02  0.16579404778E+03  0.12499597971E+03 0.  0.
          5    1    3    3  502    0  0.21252353429E+02 -0.31419447761E+02  0.46864521284E+02  0.60474933477E+02  0.47000000000E+01 0.  1.
         -5    1    3    3    0  502  0.82445117608E+02  0.58993942385E+02 -0.28152143482E+02  0.10531911431E+03  0.47000000000E+01 0.  1.
        -11    1    1    2    0    0 -0.16621713023E+02 -0.30439473718E+02  0.62418103929E+01  0.35239226737E+02  0.00000000000E+00 0. -1.
         11    1    1    2    0    0 -0.87075758014E+02  0.28649790939E+01 -0.10564286601E+03  0.13693360025E+03  0.00000000000E+00 0.  1.
<mgrwt>
<rscale>  0 0.15833252E+03</rscale>
<asrwt>0</asrwt>
<pdfrwt beam="1">  1        1 0.19790630E-01 0.16473468E+03</pdfrwt>
<pdfrwt beam="2">  1       -1 0.32204274E-01 0.16473468E+03</pdfrwt>
<totfact> 0.22924247E+03</totfact>
</mgrwt>
</event>
<event>
 7    1  0.5928109E-006  0.1289324E+03  0.7546771E-02  0.1243839E+00
          3   -1    0    0  501    0  0.00000000000E+00  0.00000000000E+00  0.33495705119E+02  0.33495705119E+02  0.00000000000E+00 0. -1.
         -3   -1    0    0    0  501 -0.00000000000E+00 -0.00000000000E+00 -0.38612554490E+03  0.38612554490E+03  0.00000000000E+00 0.  1.
         23    2    1    2    0    0 -0.30481289958E+02  0.82515043036E+01 -0.16727300232E+03  0.21119617555E+03  0.12500548348E+03 0.  0.
          5    1    3    3  502    0 -0.45129000819E+02  0.53061704208E+02 -0.14021941727E+03  0.15663890369E+03  0.47000000000E+01 0. -1.
         -5    1    3    3    0  502  0.14647710860E+02 -0.44810199904E+02 -0.27053585047E+02  0.54557271860E+02  0.47000000000E+01 0. -1.
        -11    1    1    2    0    0 -0.24999341827E+02 -0.81758662715E+01 -0.17386900085E+02  0.31529607921E+02  0.00000000000E+00 0. -1.
         11    1    1    2    0    0  0.55480631785E+02 -0.75638032177E-01 -0.16796993737E+03  0.17689546655E+03  0.00000000000E+00 0.  1.
<mgrwt>
<rscale>  0 0.11955159E+03</rscale>
<asrwt>0</asrwt>
<pdfrwt beam="1">  1        3 0.51531854E-02 0.12893241E+03</pdfrwt>
<pdfrwt beam="2">  1       -3 0.59403930E-01 0.12893241E+03</pdfrwt>
<totfact> 0.13924378E+03</totfact>
</mgrwt>
</event>
<event>
 6    1  0.5928109E-006  0.1576831E+03  0.7546771E-02  0.1201621E+00
          4   -1    0    0  501    0  0.00000000000E+00  0.00000000000E+00  0.26910162957E+03  0.26910162957E+03  0.00000000000E+00 0. -1.
         -4   -1    0    0    0  501 -0.00000000000E+00 -0.00000000000E+00 -0.10311000136E+03  0.10311000136E+03  0.00000000000E+00 0.  1.
          5    1    1    2  502    0 -0.32054752749E+02  0.53942588374E+02  0.91831848953E+02  0.11132155450E+03  0.47000000000E+01 0. -1.
         -5    1    1    2    0  502 -0.50432826189E+02 -0.78367216287E+02  0.95075052651E+02  0.13321503737E+03  0.47000000000E+01 0.  1.
        -11    1    1    2    0    0  0.90576997396E+02  0.65464095587E+01  0.96798302239E+01  0.91327690481E+02  0.00000000000E+00 0.  1.
         11    1    1    2    0    0 -0.80894184583E+01  0.17878218355E+02 -0.30595103626E+02  0.36347348575E+02  0.00000000000E+00 0. -1.
<mgrwt>
<rscale>  0 0.14906943E+03</rscale>
<asrwt>0</asrwt>
<pdfrwt beam="1">  1        4 0.41400251E-01 0.15768308E+03</pdfrwt>
<pdfrwt beam="2">  1       -4 0.15863077E-01 0.15768308E+03</pdfrwt>
<totfact> 0.33168276E+02</totfact>
</mgrwt>
</event>
<event>
 7    1  0.2244137E-005  0.3539092E+03  0.7546771E-02  0.1062080E+00
          1   -1    0    0  501    0  0.00000000000E+00  0.00000000000E+00  0.24637250309E+04  0.24637250309E+04  0.00000000000E+00 0. -1.
         -1   -1    0    0    0  501 -0.00000000000E+00 -0.00000000000E+00 -0.52780235185E+02  0.52780235185E+02  0.00000000000E+00 0.  1.
         23    2    1    2    0    0  0.23724534179E+03  0.23095849836E+03  0.15418820999E+04  0.15819772860E+04  0.12499817334E+03 0.  0.
          5    1    3    3  502    0  0.80675061285E+02  0.16357372311E+03  0.73920564142E+03  0.76138813933E+03  0.47000000000E+01 0.  1.
         -5    1    3    3    0  502  0.15657028051E+03  0.67384775249E+02  0.80267645850E+03  0.82058914671E+03  0.47000000000E+01 0.  1.
        -11    1    1    2    0    0 -0.14173262625E+03 -0.12955770191E+03  0.62121025425E+03  0.65021190042E+03  0.00000000000E+00 0. -1.
         11    1    1    2    0    0 -0.95512715546E+02 -0.10140079645E+03  0.24785244159E+03  0.28431607966E+03  0.00000000000E+00 0.  1.
<mgrwt>
<rscale>  0 0.35130758E+03</rscale>
<asrwt>0</asrwt>
<pdfrwt beam="1">  1        1 0.37903453E+00 0.35390920E+03</pdfrwt>
<pdfrwt beam="2">  1       -1 0.81200381E-02 0.35390920E+03</pdfrwt>
<totfact> 0.13845741E+02</totfact>
</mgrwt>
</event>
<event>
 7    1  0.5928109E-006  0.1365164E+03  0.7546771E-02  0.1232707E+00
         -1   -1    0    0    0  501 -0.00000000000E+00  0.00000000000E+00  0.13830223481E+03  0.13830223481E+03  0.00000000000E+00 0.  1.
          1   -1    0    0  501    0  0.00000000000E+00 -0.00000000000E+00 -0.10318422898E+03  0.10318422898E+03  0.00000000000E+00 0. -1.
         23    2    1    2    0    0  0.30919133469E+02  0.45338701837E+02  0.60464972478E+01  0.13665028786E+03  0.12500060138E+03 0.  0.
          5    1    3    3  502    0  0.88662175353E+01  0.47297534472E+02  0.60637028740E+02  0.77553889876E+02  0.47000000000E+01 0.  1.
         -5    1    3    3    0  502  0.22052915934E+02 -0.19588326353E+01 -0.54590531492E+02  0.59096397987E+02  0.47000000000E+01 0.  1.
        -11    1    1    2    0    0  0.12848460390E+01 -0.63026953348E+02  0.25202104759E+02  0.67891043312E+02  0.00000000000E+00 0.  1.
         11    1    1    2    0    0 -0.32203979508E+02  0.17688251511E+02  0.38694038184E+01  0.36945132610E+02  0.00000000000E+00 0. -1.
<mgrwt>
<rscale>  0 0.12652396E+03</rscale>
<asrwt>0</asrwt>
<pdfrwt beam="2">  1        1 0.15874497E-01 0.13651645E+03</pdfrwt>
<pdfrwt beam="1">  1       -1 0.21277267E-01 0.13651645E+03</pdfrwt>
<totfact> 0.59870272E+03</totfact>
</mgrwt>
</event>
<event>
 7    1  0.5928109E-006  0.1466347E+03  0.7546771E-02  0.1214376E+00
          2   -1    0    0  501    0  0.00000000000E+00  0.00000000000E+00  0.26375625693E+03  0.26375625693E+03  0.00000000000E+00 0.  1.
         -2   -1    0    0    0  501 -0.00000000000E+00 -0.00000000000E+00 -0.77607118433E+02  0.77607118433E+02  0.00000000000E+00 0. -1.
         23    2    1    2    0    0 -0.32785913803E+02 -0.69306110421E+02  0.16428423865E+03  0.22020681489E+03  0.12499390853E+03 0.  0.
          5    1    3    3  502    0  0.29581532183E+02  0.17686977046E+02  0.18840489991E+02  0.39559452302E+02  0.47000000000E+01 0. -1.
         -5    1    3    3    0  502 -0.62367445986E+02 -0.86993087468E+02  0.14544374866E+03  0.18064736259E+03  0.47000000000E+01 0. -1.
        -11    1    1    2    0    0 -0.14818952707E+01  0.16457033898E+02  0.49640007590E+02  0.52317877746E+02  0.00000000000E+00 0.  1.
         11    1    1    2    0    0  0.34267809074E+02  0.52849076523E+02 -0.27775107751E+02  0.68838682720E+02  0.00000000000E+00 0. -1.
<mgrwt>
<rscale>  0 0.13922486E+03</rscale>
<asrwt>0</asrwt>
<pdfrwt beam="1">  1        2 0.40577885E-01 0.14663468E+03</pdfrwt>
<pdfrwt beam="2">  1       -2 0.11939557E-01 0.14663468E+03</pdfrwt>
<totfact> 0.60135819E+03</totfact>
</mgrwt>
</event>
<event>
 7    1  0.5928109E-006  0.1413900E+03  0.7546771E-02  0.1222698E+00
          2   -1    0    0  501    0  0.00000000000E+00  0.00000000000E+00  0.16648557706E+04  0.16648557706E+04  0.00000000000E+00 0. -1.
         -2   -1    0    0    0  501 -0.00000000000E+00 -0.00000000000E+00 -0.18296975788E+02  0.18296975788E+02  0.00000000000E+00 0.  1.
         23    2    1    2    0    0 -0.64112396354E+02 -0.15978946879E+02  0.14520651262E+04  0.14589325792E+04  0.12500165491E+03 0.  0.
          5    1    3    3  502    0 -0.23801532977E+02  0.23661114657E+02  0.12034457218E+04  0.12039227785E+04  0.47000000000E+01 0.  1.
         -5    1    3    3    0  502 -0.40310863376E+02 -0.39640061536E+02  0.24861940444E+03  0.25500980069E+03  0.47000000000E+01 0.  1.
        -11    1    1    2    0    0  0.38375767821E+02 -0.68857407201E+01  0.15517571036E+02  0.41963174236E+02  0.00000000000E+00 0.  1.
         11    1    1    2    0    0  0.25736628533E+02  0.22864687599E+02  0.17897609763E+03  0.18225699303E+03  0.00000000000E+00 0. -1.
<mgrwt>
<rscale>  0 0.13325905E+03</rscale>
<asrwt>0</asrwt>
<pdfrwt beam="1">  1        2 0.25613154E+00 0.14139003E+03</pdfrwt>
<pdfrwt beam="2">  1       -2 0.28149207E-02 0.14139003E+03</pdfrwt>
<totfact> 0.51365335E+03</totfact>
</mgrwt>
</event>
<event>
 7    1  0.5928109E-006  0.1354306E+03  0.7546771E-02  0.1231475E+00
          2   -1    0    0  501    0  0.00000000000E+00  0.00000000000E+00  0.60281506894E+03  0.60281506894E+03  0.00000000000E+00 0. -1.
         -2   -1    0    0    0  501 -0.00000000000E+00 -0.00000000000E+00 -0.24155061719E+02  0.24155061719E+02  0.00000000000E+00 0.  1.
         23    2    1    2    0    0  0.31510846855E+01  0.51989109992E+02  0.31622130087E+03  0.34400199405E+03  0.12501465471E+03 0.  0.
          5    1    3    3  502    0  0.60705767348E+02  0.71890911700E+01  0.16559550231E+03  0.17658095482E+03  0.47000000000E+01 0.  1.
         -5    1    3    3    0  502 -0.57554682662E+02  0.44800018822E+02  0.15062579856E+03  0.16742103922E+03  0.47000000000E+01 0.  1.
        -11    1    1    2    0    0  0.41181795968E+02 -0.44849742221E+02  0.15392495251E+03  0.16553045249E+03  0.00000000000E+00 0.  1.
         11    1    1    2    0    0 -0.44332880653E+02 -0.71393677714E+01  0.10851375385E+03  0.11743768413E+03  0.00000000000E+00 0. -1.
<mgrwt>
<rscale>  0 0.12732829E+03</rscale>
<asrwt>0</asrwt>
<pdfrwt beam="1">  1        2 0.92740768E-01 0.13543065E+03</pdfrwt>
<pdfrwt beam="2">  1       -2 0.37161638E-02 0.13543065E+03</pdfrwt>
<totfact> 0.14621176E+04</totfact>
</mgrwt>
</event>
<event>
 7    1  0.5928109E-006  0.3467567E+03  0.7546771E-02  0.1065076E+00
         -1   -1    0    0    0  501 -0.00000000000E+00  0.00000000000E+00  0.17607602654E+03  0.17607602654E+03  0.00000000000E+00 0.  1.
          1   -1    0    0  501    0  0.00000000000E+00 -0.00000000000E+00 -0.10354879477E+04  0.10354879477E+04  0.00000000000E+00 0. -1.
         23    2    1    2    0    0  0.27027394296E+03  0.17767426039E+03 -0.79771642379E+03  0.86982278531E+03  0.12499615199E+03 0.  0.
          5    1    3    3  502    0  0.18023470433E+03  0.98463248337E+02 -0.63656196812E+03  0.66888922040E+03  0.47000000000E+01 0.  1.
         -5    1    3    3    0  502  0.90039238628E+02  0.79211012054E+02 -0.16115445568E+03  0.20093356491E+03  0.47000000000E+01 0.  1.
        -11    1    1    2    0    0 -0.31253466452E+02 -0.61075461608E+02 -0.26196167165E+02  0.73438616204E+02  0.00000000000E+00 0.  1.
         11    1    1    2    0    0 -0.23902047650E+03 -0.11659879878E+03 -0.35499330165E+02  0.26830257268E+03  0.00000000000E+00 0. -1.
<mgrwt>
<rscale>  0 0.34406789E+03</rscale>
<asrwt>0</asrwt>
<pdfrwt beam="2">  1        1 0.15930583E+00 0.34675667E+03</pdfrwt>
<pdfrwt beam="1">  1       -1 0.27088620E-01 0.34675667E+03</pdfrwt>
<totfact> 0.18257809E+02</totfact>
</mgrwt>
</event>
<event>
 7    1  0.5928109E-006  0.1298527E+03  0.7546771E-02  0.1241257E+00
         -2   -1    0    0    0  501 -0.00000000000E+00  0.00000000000E+00  0.16979358994E+03  0.16979358994E+03  0.00000000000E+00 0.  1.
          2   -1    0    0  501    0  0.00000000000E+00 -0.00000000000E+00 -0.87009434438E+02  0.87009434438E+02  0.00000000000E+00 0. -1.
         23    2    1    2    0    0 -0.58646304064E+01  0.34668618131E+02  0.24861293502E+01  0.12987652747E+03  0.12500169829E+03 0.  0.
          5    1    3    3  502    0 -0.10587255691E+02 -0.41542069141E+02  0.25357700288E+02  0.50029355937E+02  0.47000000000E+01 0. -1.
         -5    1    3    3    0  502  0.47226252848E+01  0.76210687272E+02 -0.22871570937E+02  0.79847171529E+02  0.47000000000E+01 0. -1.
        -11    1    1    2    0    0 -0.33443560532E+02  0.11293937049E+02  0.43930884876E+02  0.56355544546E+02  0.00000000000E+00 0. -1.
         11    1    1    2    0    0  0.39308190939E+02 -0.45962555180E+02  0.36367141280E+02  0.70570952370E+02  0.00000000000E+00 0.  1.
<mgrwt>
<rscale>  0 0.12112251E+03</rscale>
<asrwt>0</asrwt>
<pdfrwt beam="2">  1        2 0.13386067E-01 0.12985273E+03</pdfrwt>
<pdfrwt beam="1">  1       -2 0.26122091E-01 0.12985273E+03</pdfrwt>
<totfact> 0.55651801E+03</totfact>
</mgrwt>
</event>
<event>
 7    1  0.5928109E-006  0.1398583E+03  0.7546771E-02  0.1224402E+00
          2   -1    0    0  501    0  0.00000000000E+00  0.00000000000E+00  0.25912090983E+03  0.25912090983E+03  0.00000000000E+00 0. -1.
         -2   -1    0    0    0  501 -0.00000000000E+00 -0.00000000000E+00 -0.86411809840E+02  0.86411809840E+02  0.00000000000E+00 0.  1.
         23    2    1    2    0    0 -0.49682784848E+02  0.38270389018E+02  0.18684643244E+03  0.23339222574E+03  0.12500935938E+03 0.  0.
          5    1    3    3  502    0  0.57691234180E+01 -0.37560797628E+02  0.92759408723E+02  0.10035185205E+03  0.47000000000E+01 0.  1.
         -5    1    3    3    0  502 -0.55451908266E+02  0.75831186646E+02  0.94087023719E+02  0.13304037369E+03  0.47000000000E+01 0.  1.
        -11    1    1    2    0    0  0.56455409215E+02 -0.55956159841E+02  0.11448808311E+02  0.80308033629E+02  0.00000000000E+00 0. -1.
         11    1    1    2    0    0 -0.67726243666E+01  0.17685770822E+02 -0.25586140757E+02  0.31832460308E+02  0.00000000000E+00 0.  1.
<mgrwt>
<rscale>  0 0.13208000E+03</rscale>
<asrwt>0</asrwt>
<pdfrwt beam="1">  1        2 0.39864755E-01 0.13985829E+03</pdfrwt>
<pdfrwt beam="2">  1       -2 0.13294125E-01 0.13985829E+03</pdfrwt>
<totfact> 0.51419214E+03</totfact>
</mgrwt>
</event>
<event>
 7    1  0.5928109E-006  0.1402273E+03  0.7546771E-02  0.1224689E+00
         -1   -1    0    0    0  501 -0.00000000000E+00  0.00000000000E+00  0.25774454137E+03  0.25774454137E+03  0.00000000000E+00 0. -1.
          1   -1    0    0  501    0  0.00000000000E+00 -0.00000000000E+00 -0.10621968834E+03  0.10621968834E+03  0.00000000000E+00 0.  1.
         23    2    1    2    0    0  0.68088797721E-01 -0.63545837801E+02 -0.37724548840E+02  0.14521311279E+03  0.12500251359E+03 0.  0.
          5    1    3    3  502    0  0.52767508830E+02  0.14780952266E+01 -0.30319302319E+02  0.61056898437E+02  0.47000000000E+01 0.  1.
         -5    1    3    3    0  502 -0.52699420033E+02 -0.65023933028E+02 -0.74052465210E+01  0.84156214353E+02  0.47000000000E+01 0.  1.
        -11    1    1    2    0    0 -0.18011064040E+02  0.36123493122E+02  0.17657362453E+02  0.44057776067E+02  0.00000000000E+00 0.  1.
         11    1    1    2    0    0  0.17942975242E+02  0.27422344680E+02  0.17159203941E+03  0.17469334085E+03  0.00000000000E+00 0. -1.
<mgrwt>
<rscale>  0 0.13188276E+03</rscale>
<asrwt>0</asrwt>
<pdfrwt beam="2">  1        1 0.16341491E-01 0.14022734E+03</pdfrwt>
<pdfrwt beam="1">  1       -1 0.39653006E-01 0.14022734E+03</pdfrwt>
<totfact> 0.20336957E+03</totfact>
</mgrwt>
</event>
<event>
 7    1  0.5928109E-006  0.1567893E+03  0.7546771E-02  0.1200642E+00
          2   -1    0    0  501    0  0.00000000000E+00  0.00000000000E+00  0.52403077154E+03  0.52403077154E+03  0.00000000000E+00 0. -1.
         -2   -1    0    0    0  501 -0.00000000000E+00 -0.00000000000E+00 -0.39475097156E+02  0.39475097156E+02  0.00000000000E+00 0.  1.
         23    2    1    2    0    0  0.89721981114E+02  0.30117611857E+02  0.26401479518E+03  0.30706140166E+03  0.12500315148E+03 0.  0.
          5    1    3    3  502    0  0.34225843085E+02  0.57379695155E+02  0.22268925580E+03  0.23254339896E+03  0.47000000000E+01 0. -1.
         -5    1    3    3    0  502  0.55496138029E+02 -0.27262083299E+02  0.41325539377E+02  0.74518002702E+02  0.47000000000E+01 0. -1.
        -11    1    1    2    0    0  0.12801994179E+01 -0.10082185176E+02 -0.57798866138E+01  0.11691726038E+02  0.00000000000E+00 0.  1.
         11    1    1    2    0    0 -0.91002180532E+02 -0.20035426680E+02  0.22632076582E+03  0.24475274100E+03  0.00000000000E+00 0. -1.
<mgrwt>
<rscale>  0 0.14986242E+03</rscale>
<asrwt>0</asrwt>
<pdfrwt beam="1">  1        2 0.80620114E-01 0.15678932E+03</pdfrwt>
<pdfrwt beam="2">  1       -2 0.60730922E-02 0.15678932E+03</pdfrwt>
<totfact> 0.82709161E+03</totfact>
</mgrwt>
</event>
<event>
 6    1  0.5928109E-006  0.1522254E+03  0.7546771E-02  0.1208106E+00
         -2   -1    0    0    0  501 -0.00000000000E+00  0.00000000000E+00  0.18703461460E+02  0.18703461460E+02  0.00000000000E+00 0.  1.
          2   -1    0    0  501    0  0.00000000000E+00 -0.00000000000E+00 -0.12420575930E+04  0.12420575930E+04  0.00000000000E+00 0. -1.
          5    1    1    2  502    0 -0.73494395731E+02  0.27973341154E+02 -0.62627360646E+03  0.63120888315E+03  0.47000000000E+01 0. -1.
         -5    1    1    2    0  502  0.46828522085E+02  0.49359408830E+02 -0.31541891233E+03  0.32270798251E+03  0.47000000000E+01 0.  1.
        -11    1    1    2    0    0  0.47830322323E+02 -0.79189245412E+02 -0.26216195908E+03  0.27800641919E+03  0.00000000000E+00 0.  1.
         11    1    1    2    0    0 -0.21164448678E+02  0.18564954277E+01 -0.19499653692E+02  0.28837769630E+02  0.00000000000E+00 0. -1.
<mgrwt>
<rscale>  0 0.14395336E+03</rscale>
<asrwt>0</asrwt>
<pdfrwt beam="2">  1        2 0.19108583E+00 0.15222545E+03</pdfrwt>
<pdfrwt beam="1">  1       -2 0.28774549E-02 0.15222545E+03</pdfrwt>
<totfact> 0.83336625E+03</totfact>
</mgrwt>
</event>
<event>
 7    1  0.5928109E-006  0.1273455E+03  0.7546771E-02  0.1248755E+00
         -2   -1    0    0    0  501 -0.00000000000E+00  0.00000000000E+00  0.22711806353E+02  0.22711806353E+02  0.00000000000E+00 0.  1.
          2   -1    0    0  501    0  0.00000000000E+00 -0.00000000000E+00 -0.56022288576E+03  0.56022288576E+03  0.00000000000E+00 0. -1.
         23    2    1    2    0    0  0.53984813785E+01  0.23727206498E+02 -0.39077134698E+03  0.41099772209E+03  0.12499903205E+03 0.  0.
          5    1    3    3  502    0  0.36963699754E+02  0.59716997181E+02 -0.15306988031E+03  0.16847822741E+03  0.47000000000E+01 0. -1.
         -5    1    3    3    0  502 -0.31565218375E+02 -0.35989790683E+02 -0.23770146667E+03  0.24251949468E+03  0.47000000000E+01 0. -1.
        -11    1    1    2    0    0 -0.18145840092E+02  0.16726824434E+02 -0.66389795881E+01  0.25556490727E+02  0.00000000000E+00 0.  1.
         11    1    1    2    0    0  0.12747358714E+02 -0.40454030933E+02 -0.14010075284E+03  0.14638047930E+03  0.00000000000E+00 0. -1.
<mgrwt>
<rscale>  0 0.11663413E+03</rscale>
<asrwt>0</asrwt>
<pdfrwt beam="2">  1        2 0.86188141E-01 0.12734552E+03</pdfrwt>
<pdfrwt beam="1">  1       -2 0.34941238E-02 0.12734552E+03</pdfrwt>
<totfact> 0.17310559E+04</totfact>
</mgrwt>
</event>
<event>
 7    1  0.5928109E-006  0.1406696E+03  0.7546771E-02  0.1220731E+00
         -1   -1    0    0    0  501 -0.00000000000E+00  0.00000000000E+00  0.17397236721E+02  0.17397236721E+02  0.00000000000E+00 0.  1.
          1   -1    0    0  501    0  0.00000000000E+00 -0.00000000000E+00 -0.96247439949E+03  0.96247439949E+03  0.00000000000E+00 0. -1.
         23    2    1    2    0    0  0.52521638342E+02  0.37478863677E+02 -0.52576640457E+03  0.54425935502E+03  0.12499898252E+03 0.  0.
          5    1    3    3  502    0  0.22425067795E+02  0.82478372813E+02 -0.34795621777E+03  0.35833111103E+03  0.47000000000E+01 0.  1.
         -5    1    3    3    0  502  0.30096570547E+02 -0.44999509136E+02 -0.17781018680E+03  0.18592824399E+03  0.47000000000E+01 0.  1.
        -11    1    1    2    0    0 -0.22896721453E+02  0.22791793357E+02 -0.45418940677E+02  0.55736934523E+02  0.00000000000E+00 0.  1.
         11    1    1    2    0    0 -0.29624916889E+02 -0.60270657034E+02 -0.37389181752E+03  0.37987534667E+03  0.00000000000E+00 0. -1.
<mgrwt>
<rscale>  0 0.13463859E+03</rscale>
<asrwt>0</asrwt>
<pdfrwt beam="2">  1        1 0.14807302E+00 0.14066959E+03</pdfrwt>
<pdfrwt beam="1">  1       -1 0.26764972E-02 0.14066959E+03</pdfrwt>
<totfact> 0.74007045E+03</totfact>
</mgrwt>
</event>
<event>
 7    1  0.5928109E-006  0.1502598E+03  0.7546771E-02  0.1209516E+00
         -2   -1    0    0    0  501 -0.00000000000E+00  0.00000000000E+00  0.33686132383E+02  0.33686132383E+02  0.00000000000E+00 0.  1.
          2   -1    0    0  501    0  0.00000000000E+00 -0.00000000000E+00 -0.91813985817E+03  0.91813985817E+03  0.00000000000E+00 0. -1.
         23    2    1    2    0    0  0.60771418423E+02  0.57098139626E+02 -0.76805276425E+03  0.78261297626E+03  0.12499863631E+03 0.  0.
          5    1    3    3  502    0  0.59779445191E+02  0.39324286019E+02 -0.75847881967E+03  0.76186100532E+03  0.47000000000E+01 0.  1.
         -5    1    3    3    0  502  0.99197323224E+00  0.17773853607E+02 -0.95739445873E+01  0.20751970940E+02  0.47000000000E+01 0.  1.
        -11    1    1    2    0    0 -0.54019090209E+02  0.37072488950E+01 -0.26022454678E+02  0.60074736361E+02  0.00000000000E+00 0.  1.
         11    1    1    2    0    0 -0.67523282142E+01 -0.60805388521E+02 -0.90378506858E+02  0.10913827794E+03  0.00000000000E+00 0. -1.
<mgrwt>
<rscale>  0 0.14287172E+03</rscale>
<asrwt>0</asrwt>
<pdfrwt beam="2">  1        2 0.14125228E+00 0.15025985E+03</pdfrwt>
<pdfrwt beam="1">  1       -2 0.51824823E-02 0.15025985E+03</pdfrwt>
<totfact> 0.53563881E+03</totfact>
</mgrwt>
</event>
<event>
 7    1  0.5928109E-006  0.1252560E+03  0.7546771E-02  0.1252913E+00
         -1   -1    0    0    0  501 -0.00000000000E+00  0.00000000000E+00  0.18364088783E+02  0.18364088783E+02  0.00000000000E+00 0.  1.
          1   -1    0    0  501    0  0.00000000000E+00 -0.00000000000E+00 -0.70224492160E+03  0.70224492160E+03  0.00000000000E+00 0. -1.
         23    2    1    2    0    0 -0.32510766273E+00  0.79677672818E+01 -0.52382847990E+03  0.53859571665E+03  0.12500191451E+03 0.  0.
          5    1    3    3  502    0 -0.21288291512E+02 -0.34638825484E+02 -0.61888516573E+02  0.74197830629E+02  0.47000000000E+01 0.  1.
         -5    1    3    3    0  502  0.20963183850E+02  0.42606592766E+02 -0.46193996333E+03  0.46439788602E+03  0.47000000000E+01 0.  1.
        -11    1    1    2    0    0  0.33587778552E+01 -0.44090941068E+02 -0.53190179425E+02  0.69169991038E+02  0.00000000000E+00 0.  1.
         11    1    1    2    0    0 -0.30336701925E+01  0.36123173786E+02 -0.10686217349E+03  0.11284330269E+03  0.00000000000E+00 0. -1.
<mgrwt>
<rscale>  0 0.11424021E+03</rscale>
<asrwt>0</asrwt>
<pdfrwt beam="2">  1        1 0.10803768E+00 0.12525602E+03</pdfrwt>
<pdfrwt beam="1">  1       -1 0.28252444E-02 0.12525602E+03</pdfrwt>
<totfact> 0.11000958E+04</totfact>
</mgrwt>
</event>
<event>
 7    1  0.5928109E-006  0.1406747E+03  0.7546771E-02  0.1223064E+00
         -4   -1    0    0    0  501 -0.00000000000E+00  0.00000000000E+00  0.51561938630E+02  0.51561938630E+02  0.00000000000E+00 0.  1.
          4   -1    0    0  501    0  0.00000000000E+00 -0.00000000000E+00 -0.57547782266E+03  0.57547782266E+03  0.00000000000E+00 0. -1.
         23    2    1    2    0    0  0.37072547600E+02 -0.52814245387E+02 -0.48974300944E+03  0.50954644845E+03  0.12500259810E+03 0.  0.
          5    1    3    3  502    0  0.51435473847E+02 -0.15431651097E+02 -0.44899974677E+03  0.45222406662E+03  0.47000000000E+01 0. -1.
         -5    1    3    3    0  502 -0.14362926248E+02 -0.37382594290E+02 -0.40743262670E+02  0.57322381835E+02  0.47000000000E+01 0. -1.
        -11    1    1    2    0    0 -0.25809272934E+02 -0.18306014525E+02 -0.32655108119E+02  0.45470702913E+02  0.00000000000E+00 0. -1.
         11    1    1    2    0    0 -0.11263274665E+02  0.71120259911E+02 -0.15177664738E+01  0.72022609930E+02  0.00000000000E+00 0.  1.
<mgrwt>
<rscale>  0 0.13300471E+03</rscale>
<asrwt>0</asrwt>
<pdfrwt beam="2">  1        4 0.88535058E-01 0.14067469E+03</pdfrwt>
<pdfrwt beam="1">  1       -4 0.79326052E-02 0.14067469E+03</pdfrwt>
<totfact> 0.21300420E+02</totfact>
</mgrwt>
</event>
<event>
 7    1  0.5928109E-006  0.1762817E+03  0.7546771E-02  0.1177535E+00
          2   -1    0    0  501    0  0.00000000000E+00  0.00000000000E+00  0.16830904661E+04  0.16830904661E+04  0.00000000000E+00 0. -1.
         -2   -1    0    0    0  501 -0.00000000000E+00 -0.00000000000E+00 -0.20352086118E+02  0.20352086118E+02  0.00000000000E+00 0.  1.
         23    2    1    2    0    0 -0.73344013591E+02 -0.10034216372E+03  0.12627403997E+04  0.12749857074E+04  0.12500937152E+03 0.  0.
          5    1    3    3  502    0 -0.64520709262E+02  0.87103262164E+01  0.39404738062E+03  0.39941735050E+03  0.47000000000E+01 0.  1.
         -5    1    3    3    0  502 -0.88233043287E+01 -0.10905248993E+03  0.86869301909E+03  0.87556835694E+03  0.47000000000E+01 0.  1.
        -11    1    1    2    0    0  0.35734307701E+02  0.83688416469E+02  0.15267376454E+03  0.17773567502E+03  0.00000000000E+00 0.  1.
         11    1    1    2    0    0  0.37609705890E+02  0.16653747246E+02  0.24732421569E+03  0.25072116971E+03  0.00000000000E+00 0. -1.
<mgrwt>
<rscale>  0 0.17030062E+03</rscale>
<asrwt>0</asrwt>
<pdfrwt beam="1">  1        2 0.25893689E+00 0.17628170E+03</pdfrwt>
<pdfrwt beam="2">  1       -2 0.31310915E-02 0.17628170E+03</pdfrwt>
<totfact> 0.43119591E+03</totfact>
</mgrwt>
</event>
<event>
 6    1  0.5928109E-006  0.1420170E+03  0.7546771E-02  0.1228839E+00
          1   -1    0    0  501    0  0.00000000000E+00  0.00000000000E+00  0.28070510015E+03  0.28070510015E+03  0.00000000000E+00 0. -1.
         -1   -1    0    0    0  501 -0.00000000000E+00 -0.00000000000E+00 -0.17036859016E+03  0.17036859016E+03  0.00000000000E+00 0.  1.
          5    1    1    2  502    0  0.14851458847E+02 -0.36858270158E+02  0.23120357277E+03  0.23464074661E+03  0.47000000000E+01 0. -1.
         -5    1    1    2    0  502 -0.30113472614E+02  0.36108179831E+02  0.14980439275E+02  0.49569400284E+02  0.47000000000E+01 0.  1.
        -11    1    1    2    0    0 -0.24721367627E+01  0.44486161000E+02 -0.39351719944E+02  0.59444830248E+02  0.00000000000E+00 0.  1.
         11    1    1    2    0    0  0.17734150530E+02 -0.43736070673E+02 -0.96495782115E+02  0.10741871317E+03  0.00000000000E+00 0. -1.
<mgrwt>
<rscale>  0 0.12907204E+03</rscale>
<asrwt>0</asrwt>
<pdfrwt beam="1">  1        1 0.43185400E-01 0.14201704E+03</pdfrwt>
<pdfrwt beam="2">  1       -1 0.26210552E-01 0.14201704E+03</pdfrwt>
<totfact> 0.12131274E+03</totfact>
</mgrwt>
</event>
<event>
 7    1  0.5928109E-006  0.1317501E+03  0.7546771E-02  0.1237399E+00
          2   -1    0    0  501    0  0.00000000000E+00  0.00000000000E+00  0.11053671858E+04  0.11053671858E+04  0.00000000000E+00 0. -1.
         -2   -1    0    0    0  501 -0.00000000000E+00 -0.00000000000E+00 -0.18530035268E+02  0.18530035268E+02  0.00000000000E+00 0.  1.
         23    2    1    2    0    0 -0.27345390740E+02 -0.31388140821E+02  0.91295203586E+03  0.92240962680E+03  0.12500045628E+03 0.  0.
          5    1    3    3  502    0  0.45726330362E+02 -0.31150993896E+02  0.29960686540E+03  0.30470911621E+03  0.47000000000E+01 0. -1.
         -5    1    3    3    0  502 -0.73071721102E+02 -0.23714692526E+00  0.61334517046E+03  0.61770051059E+03  0.47000000000E+01 0. -1.
        -11    1    1    2    0    0  0.31862486720E+02 -0.21536689156E+02  0.32151280309E+02  0.50127356456E+02  0.00000000000E+00 0.  1.
         11    1    1    2    0    0 -0.45170959793E+01  0.52924829978E+02  0.14173383435E+03  0.15136023779E+03  0.00000000000E+00 0. -1.
<mgrwt>
<rscale>  0 0.12352068E+03</rscale>
<asrwt>0</asrwt>
<pdfrwt beam="1">  1        2 0.17005644E+00 0.13175014E+03</pdfrwt>
<pdfrwt beam="2">  1       -2 0.28507755E-02 0.13175014E+03</pdfrwt>
<totfact> 0.10006256E+04</totfact>
</mgrwt>
</event>
<event>
 7    1  0.5928109E-006  0.1373662E+03  0.7546771E-02  0.1224761E+00
         -1   -1    0    0    0  501 -0.00000000000E+00  0.00000000000E+00  0.43461835386E+02  0.43461835386E+02  0.00000000000E+00 0.  1.
          1   -1    0    0  501    0  0.00000000000E+00 -0.00000000000E+00 -0.74052173341E+03  0.74052173341E+03  0.00000000000E+00 0. -1.
         23    2    1    2    0    0  0.22145463050E+02  0.64695611990E+02 -0.63935231318E+03  0.65394255417E+03  0.11913664443E+03 0.  0.
          5    1    3    3  502    0  0.35163770968E+02  0.38528218966E+02 -0.61003660435E+03  0.61228070613E+03  0.47000000000E+01 0. -1.
         -5    1    3    3    0  502 -0.13018307918E+02  0.26167393024E+02 -0.29315708830E+02  0.41661848049E+02  0.47000000000E+01 0.  1.
        -11    1    1    2    0    0  0.10113715784E+02 -0.80099151840E+02 -0.38192148939E+02  0.89312942024E+02  0.00000000000E+00 0.  1.
         11    1    1    2    0    0 -0.32259178835E+02  0.15403539850E+02 -0.19515435906E+02  0.40728072599E+02  0.00000000000E+00 0. -1.
<mgrwt>
<rscale>  0 0.13183310E+03</rscale>
<asrwt>0</asrwt>
<pdfrwt beam="2">  1        1 0.11392642E+00 0.13736624E+03</pdfrwt>
<pdfrwt beam="1">  1       -1 0.66864365E-02 0.13736624E+03</pdfrwt>
<totfact> 0.28808726E+03</totfact>
</mgrwt>
</event>
<event>
 7    1  0.5928109E-006  0.1547307E+03  0.7546771E-02  0.1203892E+00
         -2   -1    0    0    0  501 -0.00000000000E+00  0.00000000000E+00  0.33663457935E+02  0.33663457935E+02  0.00000000000E+00 0. -1.
          2   -1    0    0  501    0  0.00000000000E+00 -0.00000000000E+00 -0.59023332685E+03  0.59023332685E+03  0.00000000000E+00 0.  1.
         23    2    1    2    0    0  0.46624674073E+00  0.91187361483E+02 -0.29203876376E+03  0.33049693773E+03  0.12500493603E+03 0.  0.
          5    1    3    3  502    0  0.52794579232E+02  0.43511467038E+01 -0.10466008039E+03  0.11739685899E+03  0.47000000000E+01 0.  1.
         -5    1    3    3    0  502 -0.52328332491E+02  0.86836214779E+02 -0.18737868336E+03  0.21310007874E+03  0.47000000000E+01 0.  1.
        -11    1    1    2    0    0  0.76420179580E+01 -0.10747184809E+03 -0.23775424367E+03  0.26102811909E+03  0.00000000000E+00 0.  1.
         11    1    1    2    0    0 -0.81082646987E+01  0.16284486607E+02 -0.26776861489E+02  0.32371727969E+02  0.00000000000E+00 0. -1.
<mgrwt>
<rscale>  0 0.14725104E+03</rscale>
<asrwt>0</asrwt>
<pdfrwt beam="2">  1        2 0.90805125E-01 0.15473069E+03</pdfrwt>
<pdfrwt beam="1">  1       -2 0.51789937E-02 0.15473069E+03</pdfrwt>
<totfact> 0.92021688E+03</totfact>
</mgrwt>
</event>
<event>
 7    1  0.5928109E-006  0.1306313E+03  0.7546771E-02  0.1239686E+00
          2   -1    0    0  501    0  0.00000000000E+00  0.00000000000E+00  0.17075964152E+03  0.17075964152E+03  0.00000000000E+00 0.  1.
         -2   -1    0    0    0  501 -0.00000000000E+00 -0.00000000000E+00 -0.99357134782E+02  0.99357134782E+02  0.00000000000E+00 0. -1.
         23    2    1    2    0    0 -0.61253507572E+01  0.37442612778E+02  0.10212363693E+03  0.16581245052E+03  0.12500024942E+03 0.  0.
          5    1    3    3  502    0 -0.15183355766E+02  0.37933352859E+02  0.12987950114E+03  0.13623600247E+03  0.47000000000E+01 0.  1.
         -5    1    3    3    0  502  0.90580050087E+01 -0.49074008095E+00 -0.27755864219E+02  0.29576448048E+02  0.47000000000E+01 0.  1.
        -11    1    1    2    0    0  0.22823981084E+02 -0.16528842490E+02  0.28028721217E+02  0.39746018161E+02  0.00000000000E+00 0.  1.
         11    1    1    2    0    0 -0.16698630327E+02 -0.20913770288E+02 -0.58749851407E+02  0.64558307620E+02  0.00000000000E+00 0. -1.
<mgrwt>
<rscale>  0 0.12209129E+03</rscale>
<asrwt>0</asrwt>
<pdfrwt beam="1">  1        2 0.26270714E-01 0.13063128E+03</pdfrwt>
<pdfrwt beam="2">  1       -2 0.15285713E-01 0.13063128E+03</pdfrwt>
<totfact> 0.63965927E+03</totfact>
</mgrwt>
</event>
<event>
 6    1  0.5928109E-006  0.1830396E+03  0.7546771E-02  0.1195091E+00
         -2   -1    0    0    0  501 -0.00000000000E+00  0.00000000000E+00  0.38238349240E+02  0.38238349240E+02  0.00000000000E+00 0.  1.
          2   -1    0    0  501    0  0.00000000000E+00 -0.00000000000E+00 -0.82981576487E+03  0.82981576487E+03  0.00000000000E+00 0. -1.
          5    1    1    2  502    0 -0.27091965656E+02  0.39299985825E+02 -0.62818069366E+03  0.63000915658E+03  0.47000000000E+01 0. -1.
         -5    1    1    2    0  502  0.37098665473E+02 -0.59738269781E+02 -0.11089814106E+03  0.13139809568E+03  0.47000000000E+01 0.  1.
        -11    1    1    2    0    0 -0.32263885637E+02 -0.18838531718E+02 -0.48646786897E+02  0.61338067047E+02  0.00000000000E+00 0.  1.
         11    1    1    2    0    0  0.22257185820E+02  0.39276815674E+02 -0.38517940161E+01  0.45308794811E+02  0.00000000000E+00 0. -1.
<mgrwt>
<rscale>  0 0.15446535E+03</rscale>
<asrwt>0</asrwt>
<pdfrwt beam="2">  1        2 0.12766396E+00 0.18303956E+03</pdfrwt>
<pdfrwt beam="1">  1       -2 0.58828234E-02 0.18303956E+03</pdfrwt>
<totfact> 0.50788706E+03</totfact>
</mgrwt>
</event>
<event>
 7    1  0.5928109E-006  0.1433543E+03  0.7546771E-02  0.1217954E+00
          3   -1    0    0  501    0  0.00000000000E+00  0.00000000000E+00  0.63651106567E+02  0.63651106567E+02  0.00000000000E+00 0. -1.
         -3   -1    0    0    0  501 -0.00000000000E+00 -0.00000000000E+00 -0.36014651018E+03  0.36014651018E+03  0.00000000000E+00 0.  1.
         23    2    1    2    0    0  0.28365779677E+02  0.64202705880E+02 -0.52511547223E+02  0.15266935009E+03  0.12499545179E+03 0.  0.
          5    1    3    3  502    0  0.14741618502E+02  0.96839750689E+02 -0.61654739773E+02  0.11583889488E+03  0.47000000000E+01 0. -1.
         -5    1    3    3    0  502  0.13624161176E+02 -0.32637044809E+02  0.91431925499E+01  0.36830455218E+02  0.47000000000E+01 0. -1.
        -11    1    1    2    0    0 -0.20665977261E+02  0.15718879649E+02 -0.12446140684E+03  0.12714089660E+03  0.00000000000E+00 0.  1.
         11    1    1    2    0    0 -0.76998024165E+01 -0.79921585529E+02 -0.11952244955E+03  0.14398737006E+03  0.00000000000E+00 0. -1.
<mgrwt>
<rscale>  0 0.13661737E+03</rscale>
<asrwt>0</asrwt>
<pdfrwt beam="1">  1        3 0.97924778E-02 0.14335434E+03</pdfrwt>
<pdfrwt beam="2">  1       -3 0.55407156E-01 0.14335434E+03</pdfrwt>
<totfact> 0.57863019E+02</totfact>
</mgrwt>
</event>
<event>
 7    1  0.5928109E-006  0.1305430E+03  0.7546771E-02  0.1240977E+00
          2   -1    0    0  501    0  0.00000000000E+00  0.00000000000E+00  0.12866281165E+03  0.12866281165E+03  0.00000000000E+00 0. -1.
         -2   -1    0    0    0  501 -0.00000000000E+00 -0.00000000000E+00 -0.15997039381E+03  0.15997039381E+03  0.00000000000E+00 0.  1.
         23    2    1    2    0    0  0.28053090005E+02 -0.25054967695E+02  0.70036139822E+02  0.14814367474E+03  0.12500704068E+03 0.  0.
          5    1    3    3  502    0  0.21120237994E+02 -0.17506961258E+02  0.10644779969E+03  0.11002627960E+03  0.47000000000E+01 0. -1.
         -5    1    3    3    0  502  0.69328520113E+01 -0.75480064375E+01 -0.36411659864E+02  0.38117395140E+02  0.47000000000E+01 0. -1.
        -11    1    1    2    0    0 -0.46822067950E+02 -0.28444636209E+01 -0.17348207870E+02  0.50013571525E+02  0.00000000000E+00 0. -1.
         11    1    1    2    0    0  0.18768977945E+02  0.27899431316E+02 -0.83995514110E+02  0.90475959191E+02  0.00000000000E+00 0.  1.
<mgrwt>
<rscale>  0 0.12129432E+03</rscale>
<asrwt>0</asrwt>
<pdfrwt beam="1">  1        2 0.19794279E-01 0.13054305E+03</pdfrwt>
<pdfrwt beam="2">  1       -2 0.24610830E-01 0.13054305E+03</pdfrwt>
<totfact> 0.39280866E+03</totfact>
</mgrwt>
</event>
<event>
 7    1  0.5928109E-006  0.1257637E+03  0.7546771E-02  0.1250004E+00
          2   -1    0    0  501    0  0.00000000000E+00  0.00000000000E+00  0.27168732273E+03  0.27168732273E+03  0.00000000000E+00 0. -1.
         -2   -1    0    0    0  501 -0.00000000000E+00 -0.00000000000E+00 -0.55314012087E+02  0.55314012087E+02  0.00000000000E+00 0.  1.
         23    2    1    2    0    0  0.13936060249E+02  0.12035936420E+01  0.19777902912E+03  0.23437801822E+03  0.12498339350E+03 0.  0.
          5    1    3    3  502    0  0.45052385892E+02 -0.48085105477E+02  0.88505721592E+02  0.11044114993E+03  0.47000000000E+01 0.  1.
         -5    1    3    3    0  502 -0.31116325643E+02  0.49288699119E+02  0.10927330753E+03  0.12393686829E+03  0.47000000000E+01 0.  1.
        -11    1    1    2    0    0 -0.33223393338E+02 -0.29600025763E+02 -0.12593049179E+02  0.46244354009E+02  0.00000000000E+00 0.  1.
         11    1    1    2    0    0  0.19287333089E+02  0.28396432121E+02  0.31187330703E+02  0.46378962594E+02  0.00000000000E+00 0. -1.
<mgrwt>
<rscale>  0 0.11590801E+03</rscale>
<asrwt>0</asrwt>
<pdfrwt beam="1">  1        2 0.41798049E-01 0.12576371E+03</pdfrwt>
<pdfrwt beam="2">  1       -2 0.85098482E-02 0.12576371E+03</pdfrwt>
<totfact> 0.98212954E+03</totfact>
</mgrwt>
</event>
<event>
 6    1  0.5928109E-006  0.2620899E+03  0.7546771E-02  0.1117022E+00
          1   -1    0    0  501    0  0.00000000000E+00  0.00000000000E+00  0.74617742743E+03  0.74617742743E+03  0.00000000000E+00 0. -1.
         -1   -1    0    0    0  501 -0.00000000000E+00 -0.00000000000E+00 -0.70858607527E+02  0.70858607527E+02  0.00000000000E+00 0.  1.
          5    1    1    2  502    0  0.10191919941E+03 -0.68617719896E+02  0.30017700675E+03  0.32438286032E+03  0.47000000000E+01 0. -1.
         -5    1    1    2    0  502 -0.58410635626E+02 -0.10078044471E+03  0.97936192017E+02  0.15225665206E+03  0.47000000000E+01 0.  1.
        -11    1    1    2    0    0 -0.67751697397E+02  0.12415812681E+03  0.16716303268E+03  0.21897262945E+03  0.00000000000E+00 0.  1.
         11    1    1    2    0    0  0.24243133613E+02  0.45240037788E+02  0.11004258846E+03  0.12142389312E+03  0.00000000000E+00 0. -1.
<mgrwt>
<rscale>  0 0.24420700E+03</rscale>
<asrwt>0</asrwt>
<pdfrwt beam="1">  1        1 0.11479652E+00 0.26208988E+03</pdfrwt>
<pdfrwt beam="2">  1       -1 0.10901325E-01 0.26208988E+03</pdfrwt>
<totfact> 0.13656257E+03</totfact>
</mgrwt>
</event>
<event>
 7    1  0.5928109E-006  0.1299110E+03  0.7546771E-02  0.1239627E+00
         -1   -1    0    0    0  501 -0.00000000000E+00  0.00000000000E+00  0.70195447646E+02  0.70195447646E+02  0.00000000000E+00 0.  1.
          1   -1    0    0  501    0  0.00000000000E+00 -0.00000000000E+00 -0.20184969167E+03  0.20184969167E+03  0.00000000000E+00 0. -1.
         23    2    1    2    0    0  0.22140993136E+01 -0.35317969004E+02 -0.41685146886E+02  0.13643503491E+03  0.12499842443E+03 0.  0.
          5    1    3    3  502    0  0.59676484934E+02 -0.40061060868E+02 -0.21603679064E+02  0.75199603729E+02  0.47000000000E+01 0. -1.
         -5    1    3    3    0  502 -0.57462385621E+02  0.47430918634E+01 -0.20081467821E+02  0.61235431178E+02  0.47000000000E+01 0. -1.
        -11    1    1    2    0    0  0.28758086838E+02  0.15257443687E+02  0.57188873756E+01  0.33053332953E+02  0.00000000000E+00 0.  1.
         11    1    1    2    0    0 -0.30972186152E+02  0.20060525317E+02 -0.95687984511E+02  0.10255677145E+03  0.00000000000E+00 0. -1.
<mgrwt>
<rscale>  0 0.12212827E+03</rscale>
<asrwt>0</asrwt>
<pdfrwt beam="2">  1        1 0.31053799E-01 0.12991100E+03</pdfrwt>
<pdfrwt beam="1">  1       -1 0.10799300E-01 0.12991100E+03</pdfrwt>
<totfact> 0.74087086E+03</totfact>
</mgrwt>
</event>
<event>
 7    1  0.5928109E-006  0.1347397E+03  0.7546771E-02  0.1232834E+00
          1   -1    0    0  501    0  0.00000000000E+00  0.00000000000E+00  0.11946489161E+03  0.11946489161E+03  0.00000000000E+00 0. -1.
         -1   -1    0    0    0  501 -0.00000000000E+00 -0.00000000000E+00 -0.14498833690E+03  0.14498833690E+03  0.00000000000E+00 0.  1.
         23    2    1    2    0    0 -0.10735187727E+02 -0.49145148895E+02  0.40692210215E+02  0.14075029954E+03  0.12499720370E+03 0.  0.
          5    1    3    3  502    0 -0.26144838415E+02 -0.74616843986E+01 -0.39950811947E+02  0.48552926637E+02  0.47000000000E+01 0. -1.
         -5    1    3    3    0  502  0.15409650688E+02 -0.41683464496E+02  0.80643022162E+02  0.92197372903E+02  0.47000000000E+01 0. -1.
        -11    1    1    2    0    0  0.29331571627E+02  0.41439399322E+02 -0.83132114765E+02  0.97409000691E+02  0.00000000000E+00 0.  1.
         11    1    1    2    0    0 -0.18596383900E+02  0.77057495728E+01  0.16916459264E+02  0.26293928285E+02  0.00000000000E+00 0. -1.
<mgrwt>
<rscale>  0 0.12644135E+03</rscale>
<asrwt>0</asrwt>
<pdfrwt beam="1">  1        1 0.18379214E-01 0.13473972E+03</pdfrwt>
<pdfrwt beam="2">  1       -1 0.22305898E-01 0.13473972E+03</pdfrwt>
<totfact> 0.45916176E+03</totfact>
</mgrwt>
</event>
<event>
 7    1  0.5928109E-006  0.1397514E+03  0.7546771E-02  0.1225187E+00
          1   -1    0    0  501    0  0.00000000000E+00  0.00000000000E+00  0.13956149250E+03  0.13956149250E+03  0.00000000000E+00 0. -1.
         -1   -1    0    0    0  501 -0.00000000000E+00 -0.00000000000E+00 -0.14229141279E+03  0.14229141279E+03  0.00000000000E+00 0.  1.
         23    2    1    2    0    0  0.35829877257E+01  0.62393759066E+02  0.63731843742E+02  0.15359751096E+03  0.12499851397E+03 0.  0.
          5    1    3    3  502    0 -0.51772200928E+02  0.71950753567E+01  0.52937278712E+02  0.74542440098E+02  0.47000000000E+01 0. -1.
         -5    1    3    3    0  502  0.55355188654E+02  0.55198683710E+02  0.10794565030E+02  0.79055070858E+02  0.47000000000E+01 0. -1.
        -11    1    1    2    0    0  0.25443714958E+02 -0.24386718501E+02  0.11260379936E+02  0.36998524652E+02  0.00000000000E+00 0. -1.
         11    1    1    2    0    0 -0.29026702683E+02 -0.38007040565E+02 -0.77722143968E+02  0.91256869682E+02  0.00000000000E+00 0.  1.
<mgrwt>
<rscale>  0 0.13154083E+03</rscale>
<asrwt>0</asrwt>
<pdfrwt beam="1">  1        1 0.21470999E-01 0.13975138E+03</pdfrwt>
<pdfrwt beam="2">  1       -1 0.21890986E-01 0.13975138E+03</pdfrwt>
<totfact> 0.38922140E+03</totfact>
</mgrwt>
</event>
<event>
 7    1  0.5928109E-006  0.1231331E+03  0.7546771E-02  0.1247136E+00
         -2   -1    0    0    0  501 -0.00000000000E+00  0.00000000000E+00  0.25787770262E+02  0.25787770262E+02  0.00000000000E+00 0.  1.
          2   -1    0    0  501    0  0.00000000000E+00 -0.00000000000E+00 -0.73156050897E+03  0.73156050897E+03  0.00000000000E+00 0. -1.
         23    2    1    2    0    0 -0.43861363924E+02 -0.29209903053E+02 -0.59034623291E+03  0.60305093382E+03  0.11128664065E+03 0.  0.
          5    1    3    3  502    0 -0.14348607752E+01 -0.65787224919E+02 -0.35562152065E+03  0.36168878022E+03  0.47000000000E+01 0. -1.
         -5    1    3    3    0  502 -0.42426503149E+02  0.36577321866E+02 -0.23472471227E+03  0.24136215360E+03  0.47000000000E+01 0.  1.
        -11    1    1    2    0    0 -0.12948383268E+02  0.14972158022E+02  0.49723240963E+01  0.20409560309E+02  0.00000000000E+00 0.  1.
         11    1    1    2    0    0  0.56809747192E+02  0.14237745031E+02 -0.12039882989E+03  0.13388778510E+03  0.00000000000E+00 0. -1.
<mgrwt>
<rscale>  0 0.11758420E+03</rscale>
<asrwt>0</asrwt>
<pdfrwt beam="2">  1        2 0.11254777E+00 0.12313307E+03</pdfrwt>
<pdfrwt beam="1">  1       -2 0.39673491E-02 0.12313307E+03</pdfrwt>
<totfact> 0.10515400E+04</totfact>
</mgrwt>
</event>
<event>
 7    1  0.5928109E-006  0.1708063E+03  0.7546771E-02  0.1183253E+00
         -1   -1    0    0    0  501 -0.00000000000E+00  0.00000000000E+00  0.35019587395E+03  0.35019587395E+03  0.00000000000E+00 0.  1.
          1   -1    0    0  501    0  0.00000000000E+00 -0.00000000000E+00 -0.76660739626E+02  0.76660739626E+02  0.00000000000E+00 0. -1.
         23    2    1    2    0    0  0.11554111520E+03 -0.14146202209E+02  0.97831458668E+02  0.19683948610E+03  0.12499969858E+03 0.  0.
          5    1    3    3  502    0  0.13524803702E+03 -0.23658321699E+02  0.10546116066E+03  0.17319322767E+03  0.47000000000E+01 0.  1.
         -5    1    3    3    0  502 -0.19706921823E+02  0.95121194901E+01 -0.76297019958E+01  0.23646258425E+02  0.47000000000E+01 0.  1.
        -11    1    1    2    0    0 -0.34156427637E+02  0.44953009495E+02  0.41497405022E+02  0.70067604748E+02  0.00000000000E+00 0.  1.
         11    1    1    2    0    0 -0.81384687560E+02 -0.30806807287E+02  0.13420627064E+03  0.15994952273E+03  0.00000000000E+00 0. -1.
<mgrwt>
<rscale>  0 0.16491863E+03</rscale>
<asrwt>0</asrwt>
<pdfrwt beam="2">  1        1 0.11793960E-01 0.17080629E+03</pdfrwt>
<pdfrwt beam="1">  1       -1 0.53876287E-01 0.17080629E+03</pdfrwt>
<totfact> 0.18032457E+03</totfact>
</mgrwt>
</event>
<event>
 7    1  0.5928109E-006  0.1344371E+03  0.7546771E-02  0.1233034E+00
          1   -1    0    0  501    0  0.00000000000E+00  0.00000000000E+00  0.12196955259E+04  0.12196955259E+04  0.00000000000E+00 0. -1.
         -1   -1    0    0    0  501 -0.00000000000E+00 -0.00000000000E+00 -0.12878153134E+02  0.12878153134E+02  0.00000000000E+00 0.  1.
         23    2    1    2    0    0 -0.31335754584E+01 -0.49442368481E+02  0.85447825363E+03  0.86498925943E+03  0.12497586131E+03 0.  0.
          5    1    3    3  502    0 -0.52053606206E+02  0.12501772935E+02  0.41356144720E+03  0.41703840693E+03  0.47000000000E+01 0. -1.
         -5    1    3    3    0  502  0.48920030748E+02 -0.61944141416E+02  0.44091680643E+03  0.44795085250E+03  0.47000000000E+01 0. -1.
        -11    1    1    2    0    0  0.33020098887E+02 -0.11776049337E+02  0.91206578730E+02  0.97712037498E+02  0.00000000000E+00 0.  1.
         11    1    1    2    0    0 -0.29886523429E+02  0.61218417818E+02  0.26113254042E+03  0.26987238211E+03  0.00000000000E+00 0. -1.
<mgrwt>
<rscale>  0 0.12631128E+03</rscale>
<asrwt>0</asrwt>
<pdfrwt beam="1">  1        1 0.18764537E+00 0.13443710E+03</pdfrwt>
<pdfrwt beam="2">  1       -1 0.19812553E-02 0.13443710E+03</pdfrwt>
<totfact> 0.74997767E+03</totfact>
</mgrwt>
</event>
<event>
 7    1  0.5928109E-006  0.1319136E+03  0.7546771E-02  0.1238409E+00
          1   -1    0    0  501    0  0.00000000000E+00  0.00000000000E+00  0.41979690003E+03  0.41979690003E+03  0.00000000000E+00 0. -1.
         -1   -1    0    0    0  501 -0.00000000000E+00 -0.00000000000E+00 -0.38669858652E+02  0.38669858652E+02  0.00000000000E+00 0.  1.
         23    2    1    2    0    0 -0.35696396938E+02  0.22405364875E+02  0.30814691598E+03  0.33519504132E+03  0.12499984307E+03 0.  0.
          5    1    3    3  502    0 -0.12190818730E+02 -0.51368067560E+02  0.14908123755E+03  0.15822325940E+03  0.47000000000E+01 0.  1.
         -5    1    3    3    0  502 -0.23505578208E+02  0.73773432436E+02  0.15906567843E+03  0.17697178192E+03  0.47000000000E+01 0.  1.
        -11    1    1    2    0    0  0.40963139909E+02 -0.48041936160E+02  0.73757127777E+02  0.97088209166E+02  0.00000000000E+00 0.  1.
         11    1    1    2    0    0 -0.52667429708E+01  0.25636571285E+02 -0.77700238187E+00  0.26183508196E+02  0.00000000000E+00 0. -1.
<mgrwt>
<rscale>  0 0.12288696E+03</rscale>
<asrwt>0</asrwt>
<pdfrwt beam="1">  1        1 0.64584135E-01 0.13191358E+03</pdfrwt>
<pdfrwt beam="2">  1       -1 0.59492093E-02 0.13191358E+03</pdfrwt>
<totfact> 0.73419661E+03</totfact>
</mgrwt>
</event>
<event>
 7    1  0.5928109E-006  0.1440204E+03  0.7546771E-02  0.1217852E+00
         -2   -1    0    0    0  501 -0.00000000000E+00  0.00000000000E+00  0.25207578387E+02  0.25207578387E+02  0.00000000000E+00 0. -1.
          2   -1    0    0  501    0  0.00000000000E+00 -0.00000000000E+00 -0.68476196047E+03  0.68476196047E+03  0.00000000000E+00 0.  1.
         23    2    1    2    0    0  0.70307979535E+02 -0.13420299292E+02 -0.40573696062E+03  0.43053959547E+03  0.12497417989E+03 0.  0.
          5    1    3    3  502    0  0.48762043714E+02 -0.63796996911E+02 -0.30866241898E+03  0.31897080213E+03  0.47000000000E+01 0.  1.
         -5    1    3    3    0  502  0.21545935822E+02  0.50376697618E+02 -0.97074541640E+02  0.11156879334E+03  0.47000000000E+01 0.  1.
        -11    1    1    2    0    0 -0.36320448804E+02 -0.34990188437E+02 -0.16644976028E+03  0.17392242807E+03  0.00000000000E+00 0.  1.
         11    1    1    2    0    0 -0.33987530731E+02  0.48410487729E+02 -0.87367661189E+02  0.10550751532E+03  0.00000000000E+00 0. -1.
<mgrwt>
<rscale>  0 0.13669119E+03</rscale>
<asrwt>0</asrwt>
<pdfrwt beam="2">  1        2 0.10534799E+00 0.14402035E+03</pdfrwt>
<pdfrwt beam="1">  1       -2 0.38780891E-02 0.14402035E+03</pdfrwt>
<totfact> 0.11890042E+04</totfact>
</mgrwt>
</event>
<event>
 7    1  0.5928109E-006  0.1251936E+03  0.7546771E-02  0.1249410E+00
         -3   -1    0    0    0  501 -0.00000000000E+00  0.00000000000E+00  0.37403679992E+02  0.37403679992E+02  0.00000000000E+00 0.  1.
          3   -1    0    0  501    0  0.00000000000E+00 -0.00000000000E+00 -0.44835666717E+03  0.44835666717E+03  0.00000000000E+00 0. -1.
         23    2    1    2    0    0  0.69035689263E+01 -0.69861247848E+00 -0.35667367724E+03  0.37800733273E+03  0.12500113694E+03 0.  0.
          5    1    3    3  502    0  0.24873351072E+02  0.57492981184E+02 -0.20784854157E+03  0.21713413530E+03  0.47000000000E+01 0.  1.
         -5    1    3    3    0  502 -0.17969782146E+02 -0.58191593662E+02 -0.14882513568E+03  0.16087319743E+03  0.47000000000E+01 0.  1.
        -11    1    1    2    0    0  0.20238742374E+02 -0.19241875521E+02 -0.66340594619E+02  0.71978684073E+02  0.00000000000E+00 0. -1.
         11    1    1    2    0    0 -0.27142311300E+02  0.19940487999E+02  0.12061284685E+02  0.35774330359E+02  0.00000000000E+00 0.  1.
<mgrwt>
<rscale>  0 0.11625303E+03</rscale>
<asrwt>0</asrwt>
<pdfrwt beam="2">  1        3 0.68977953E-01 0.12519358E+03</pdfrwt>
<pdfrwt beam="1">  1       -3 0.57544119E-02 0.12519358E+03</pdfrwt>
<totfact> 0.85320973E+02</totfact>
</mgrwt>
</event>
<event>
 7    1  0.5928109E-006  0.1255456E+03  0.7546771E-02  0.1249618E+00
          2   -1    0    0  501    0  0.00000000000E+00  0.00000000000E+00  0.20189657138E+03  0.20189657138E+03  0.00000000000E+00 0. -1.
         -2   -1    0    0    0  501 -0.00000000000E+00 -0.00000000000E+00 -0.58557602530E+02  0.58557602530E+02  0.00000000000E+00 0.  1.
         23    2    1    2    0    0 -0.10556268616E+02  0.50574210544E+01  0.82904003850E+02  0.15044853892E+03  0.12499870677E+03 0.  0.
          5    1    3    3  502    0 -0.37456416988E+02  0.24299743480E+01  0.10727734922E+03  0.11375151693E+03  0.47000000000E+01 0. -1.
         -5    1    3    3    0  502  0.26900148373E+02  0.26274467064E+01 -0.24373345366E+02  0.36697021991E+02  0.47000000000E+01 0. -1.
        -11    1    1    2    0    0  0.20526407989E+02 -0.29032982380E+02 -0.83150059643E+01  0.36515569488E+02  0.00000000000E+00 0.  1.
         11    1    1    2    0    0 -0.99701393728E+01  0.23975561326E+02  0.68749970965E+02  0.73490065503E+02  0.00000000000E+00 0. -1.
<mgrwt>
<rscale>  0 0.11613169E+03</rscale>
<asrwt>0</asrwt>
<pdfrwt beam="1">  1        2 0.31061011E-01 0.12554557E+03</pdfrwt>
<pdfrwt beam="2">  1       -2 0.90088620E-02 0.12554557E+03</pdfrwt>
<totfact> 0.12339200E+04</totfact>
</mgrwt>
</event>
<event>
 7    1  0.5928109E-006  0.1491640E+03  0.7546771E-02  0.1211147E+00
         -2   -1    0    0    0  501 -0.00000000000E+00  0.00000000000E+00  0.56645606065E+02  0.56645606065E+02  0.00000000000E+00 0.  1.
          2   -1    0    0  501    0  0.00000000000E+00 -0.00000000000E+00 -0.33293386855E+03  0.33293386855E+03  0.00000000000E+00 0. -1.
         23    2    1    2    0    0 -0.64685138568E+02 -0.49418777360E+02 -0.18590927776E+03  0.23835301605E+03  0.12499407184E+03 0.  0.
          5    1    3    3  502    0 -0.77539027472E+02 -0.46593842795E+01 -0.45047640706E+02  0.89918799905E+02  0.47000000000E+01 0.  1.
         -5    1    3    3    0  502  0.12853888903E+02 -0.44759393081E+02 -0.14086163705E+03  0.14843421614E+03  0.47000000000E+01 0.  1.
        -11    1    1    2    0    0  0.35186239857E+02  0.52284977087E+02 -0.78158993974E+01  0.63504949317E+02  0.00000000000E+00 0.  1.
         11    1    1    2    0    0  0.29498898711E+02 -0.28661997272E+01 -0.82563085326E+02  0.87721509247E+02  0.00000000000E+00 0. -1.
<mgrwt>
<rscale>  0 0.14163373E+03</rscale>
<asrwt>0</asrwt>
<pdfrwt beam="2">  1        2 0.51220594E-01 0.14916401E+03</pdfrwt>
<pdfrwt beam="1">  1       -2 0.87147088E-02 0.14916401E+03</pdfrwt>
<totfact> 0.77228807E+03</totfact>
</mgrwt>
</event>
<event>
 6    1  0.5928109E-006  0.1415784E+03  0.7546771E-02  0.1222359E+00
          1   -1    0    0  501    0  0.00000000000E+00  0.00000000000E+00  0.33684328199E+03  0.33684328199E+03  0.00000000000E+00 0. -1.
         -1   -1    0    0    0  501 -0.00000000000E+00 -0.00000000000E+00 -0.76908134728E+02  0.76908134728E+02  0.00000000000E+00 0.  1.
          5    1    1    2  502    0  0.21755259001E+02  0.83104443958E+02  0.15555462946E+03  0.17776099866E+03  0.47000000000E+01 0. -1.
         -5    1    1    2    0  502 -0.30598200615E+02 -0.45956947767E+02  0.11081261707E+03  0.12389437853E+03  0.47000000000E+01 0.  1.
        -11    1    1    2    0    0  0.23386281763E+02 -0.70972103997E+02 -0.85680635710E+01  0.75215486662E+02  0.00000000000E+00 0.  1.
         11    1    1    2    0    0 -0.14543340148E+02  0.33824607806E+02  0.21359643018E+01  0.36880552862E+02  0.00000000000E+00 0. -1.
<mgrwt>
<rscale>  0 0.13349543E+03</rscale>
<asrwt>0</asrwt>
<pdfrwt beam="1">  1        1 0.51822043E-01 0.14157845E+03</pdfrwt>
<pdfrwt beam="2">  1       -1 0.11832021E-01 0.14157845E+03</pdfrwt>
<totfact> 0.34320226E+03</totfact>
</mgrwt>
</event>
<event>
 7    1  0.5928109E-006  0.2573640E+03  0.7546771E-02  0.1111064E+00
          2   -1    0    0  501    0  0.00000000000E+00  0.00000000000E+00  0.10387893986E+04  0.10387893986E+04  0.00000000000E+00 0. -1.
         -2   -1    0    0    0  501 -0.00000000000E+00 -0.00000000000E+00 -0.63905338542E+02  0.63905338542E+02  0.00000000000E+00 0.  1.
         23    2    1    2    0    0 -0.22496721426E+03  0.17693517480E+01  0.63470055933E+03  0.68489489753E+03  0.12499136991E+03 0.  0.
          5    1    3    3  502    0 -0.15792689516E+03 -0.50793072113E+02  0.34414189196E+03  0.38206880557E+03  0.47000000000E+01 0.  1.
         -5    1    3    3    0  502 -0.67040319104E+02  0.52562423861E+02  0.29055866738E+03  0.30282609196E+03  0.47000000000E+01 0.  1.
        -11    1    1    2    0    0  0.56112097761E+02  0.21583040054E+02  0.38811184350E+02  0.71559088618E+02  0.00000000000E+00 0.  1.
         11    1    1    2    0    0  0.16885511650E+03 -0.23352391802E+02  0.30137231640E+03  0.34624075102E+03  0.00000000000E+00 0. -1.
<mgrwt>
<rscale>  0 0.25357850E+03</rscale>
<asrwt>0</asrwt>
<pdfrwt beam="1">  1        2 0.15981374E+00 0.25736398E+03</pdfrwt>
<pdfrwt beam="2">  1       -2 0.98315913E-02 0.25736398E+03</pdfrwt>
<totfact> 0.16946866E+03</totfact>
</mgrwt>
</event>
<event>
 6    1  0.5928109E-006  0.1798478E+03  0.7546771E-02  0.1195147E+00
          4   -1    0    0  501    0  0.00000000000E+00  0.00000000000E+00  0.44229440216E+02  0.44229440216E+02  0.00000000000E+00 0. -1.
         -4   -1    0    0    0  501 -0.00000000000E+00 -0.00000000000E+00 -0.51378406444E+03  0.51378406444E+03  0.00000000000E+00 0.  1.
          5    1    1    2  502    0  0.10951280982E+02  0.22229730320E+02  0.31094391766E+02  0.40038015242E+02  0.47000000000E+01 0. -1.
         -5    1    1    2    0  502  0.17160290399E+02 -0.57918374641E+01 -0.21997942293E+03  0.22077376987E+03  0.47000000000E+01 0.  1.
        -11    1    1    2    0    0 -0.61978753268E+02 -0.72851964695E+01 -0.16918149474E+03  0.18032420277E+03  0.00000000000E+00 0. -1.
         11    1    1    2    0    0  0.33867181887E+02 -0.91526963867E+01 -0.11148809832E+03  0.11687751677E+03  0.00000000000E+00 0.  1.
<mgrwt>
<rscale>  0 0.15441832E+03</rscale>
<asrwt>0</asrwt>
<pdfrwt beam="1">  1        4 0.68045291E-02 0.17984780E+03</pdfrwt>
<pdfrwt beam="2">  1       -4 0.79043704E-01 0.17984780E+03</pdfrwt>
<totfact> 0.36877318E+02</totfact>
</mgrwt>
</event>
<event>
 7    1  0.5928109E-006  0.1377434E+03  0.7546771E-02  0.1226847E+00
          2   -1    0    0  501    0  0.00000000000E+00  0.00000000000E+00  0.96664057337E+03  0.96664057337E+03  0.00000000000E+00 0. -1.
         -2   -1    0    0    0  501 -0.00000000000E+00 -0.00000000000E+00 -0.42013615021E+02  0.42013615021E+02  0.00000000000E+00 0.  1.
         23    2    1    2    0    0  0.51223987992E+02 -0.17743958278E+02  0.87769989192E+03  0.88844265498E+03  0.12662742954E+03 0.  0.
          5    1    3    3  502    0  0.89346153636E+02 -0.13191863205E+02  0.73681971775E+03  0.74234907347E+03  0.47000000000E+01 0. -1.
         -5    1    3    3    0  502 -0.38122165644E+02 -0.45520950734E+01  0.14088017417E+03  0.14609358151E+03  0.47000000000E+01 0.  1.
        -11    1    1    2    0    0 -0.73723427127E+02  0.28075333310E+02  0.15827358315E+02  0.80460383538E+02  0.00000000000E+00 0.  1.
         11    1    1    2    0    0  0.22499439135E+02 -0.10331375032E+02  0.31099708113E+02  0.39751149873E+02  0.00000000000E+00 0. -1.
<mgrwt>
<rscale>  0 0.13041101E+03</rscale>
<asrwt>0</asrwt>
<pdfrwt beam="1">  1        2 0.14871392E+00 0.13774342E+03</pdfrwt>
<pdfrwt beam="2">  1       -2 0.64636338E-02 0.13774342E+03</pdfrwt>
<totfact> 0.35666648E+03</totfact>
</mgrwt>
</event>
<event>
 6    1  0.5928109E-006  0.3123475E+03  0.7546771E-02  0.1113562E+00
          2   -1    0    0  501    0  0.00000000000E+00  0.00000000000E+00  0.34762796775E+03  0.34762796775E+03  0.00000000000E+00 0. -1.
         -2   -1    0    0    0  501 -0.00000000000E+00 -0.00000000000E+00 -0.23196673676E+03  0.23196673676E+03  0.00000000000E+00 0.  1.
          5    1    1    2  502    0  0.82211127247E+02  0.11509346231E+03  0.21192250046E+03  0.25483016052E+03  0.47000000000E+01 0. -1.
         -5    1    1    2    0  502  0.41932525201E+01 -0.13842261899E+03  0.33908950173E+02  0.14265451874E+03  0.47000000000E+01 0.  1.
        -11    1    1    2    0    0 -0.45553866591E+02 -0.23843186896E+02 -0.19366204688E+02  0.54942717504E+02  0.00000000000E+00 0. -1.
         11    1    1    2    0    0 -0.40850513177E+02  0.47172343582E+02 -0.11080401496E+03  0.12716730774E+03  0.00000000000E+00 0.  1.
<mgrwt>
<rscale>  0 0.24959400E+03</rscale>
<asrwt>0</asrwt>
<pdfrwt beam="1">  1        2 0.53481225E-01 0.31234751E+03</pdfrwt>
<pdfrwt beam="2">  1       -2 0.35687191E-01 0.31234751E+03</pdfrwt>
<totfact> 0.69186397E+02</totfact>
</mgrwt>
</event>
<event>
 6    1  0.5928109E-006  0.3084692E+03  0.7546771E-02  0.1117422E+00
         -2   -1    0    0    0  501 -0.00000000000E+00  0.00000000000E+00  0.21526483119E+03  0.21526483119E+03  0.00000000000E+00 0.  1.
          2   -1    0    0  501    0  0.00000000000E+00 -0.00000000000E+00 -0.22309869095E+03  0.22309869095E+03  0.00000000000E+00 0. -1.
          5    1    1    2  502    0 -0.13965594610E+03  0.54658515871E+02 -0.65367150145E+02  0.16366517943E+03  0.47000000000E+01 0. -1.
         -5    1    1    2    0  502  0.14545400536E+03  0.22832007619E+02  0.18050898379E+02  0.14841190376E+03  0.47000000000E+01 0.  1.
        -11    1    1    2    0    0 -0.27582509694E+02  0.10237868102E+02  0.12363698339E+02  0.31913473971E+02  0.00000000000E+00 0. -1.
         11    1    1    2    0    0  0.21784450439E+02 -0.87728391593E+02  0.27118693662E+02  0.94372964976E+02  0.00000000000E+00 0.  1.
<mgrwt>
<rscale>  0 0.24359270E+03</rscale>
<asrwt>0</asrwt>
<pdfrwt beam="2">  1        2 0.34322875E-01 0.30846925E+03</pdfrwt>
<pdfrwt beam="1">  1       -2 0.33117666E-01 0.30846925E+03</pdfrwt>
<totfact> 0.12899636E+03</totfact>
</mgrwt>
</event>
<event>
 6    1  0.5928109E-006  0.1988052E+03  0.7546771E-02  0.1175481E+00
          1   -1    0    0  501    0  0.00000000000E+00  0.00000000000E+00  0.60011746208E+03  0.60011746208E+03  0.00000000000E+00 0. -1.
         -1   -1    0    0    0  501 -0.00000000000E+00 -0.00000000000E+00 -0.42826168273E+02  0.42826168273E+02  0.00000000000E+00 0.  1.
          5    1    1    2  502    0 -0.44639857030E+02 -0.10631223895E+03  0.21955638741E+03  0.24803650183E+03  0.47000000000E+01 0. -1.
         -5    1    1    2    0  502  0.66306027780E+02  0.47589713855E+02  0.20762727369E+03  0.22314220794E+03  0.47000000000E+01 0.  1.
        -11    1    1    2    0    0  0.36719432552E+02  0.22230323075E+02  0.56779611981E+02  0.71178847474E+02  0.00000000000E+00 0. -1.
         11    1    1    2    0    0 -0.58385603302E+02  0.36492202015E+02  0.73328020727E+02  0.10058607311E+03  0.00000000000E+00 0.  1.
<mgrwt>
<rscale>  0 0.17229001E+03</rscale>
<asrwt>0</asrwt>
<pdfrwt beam="1">  1        1 0.92325758E-01 0.19880517E+03</pdfrwt>
<pdfrwt beam="2">  1       -1 0.65886417E-02 0.19880517E+03</pdfrwt>
<totfact> 0.40178720E+03</totfact>
</mgrwt>
</event>
<event>
 7    1  0.5928109E-006  0.1392959E+03  0.7546771E-02  0.1224498E+00
         -1   -1    0    0    0  501 -0.00000000000E+00  0.00000000000E+00  0.23967909192E+02  0.23967909192E+02  0.00000000000E+00 0.  1.
          1   -1    0    0  501    0  0.00000000000E+00 -0.00000000000E+00 -0.10646095144E+04  0.10646095144E+04  0.00000000000E+00 0. -1.
         23    2    1    2    0    0  0.18889632931E+02  0.58492449367E+02 -0.88894944427E+03  0.89979689639E+03  0.12500062164E+03 0.  0.
          5    1    3    3  502    0  0.34148178801E+01  0.84309449148E+02 -0.82091181931E+03  0.82525029493E+03  0.47000000000E+01 0.  1.
         -5    1    3    3    0  502  0.15474815051E+02 -0.25816999782E+02 -0.68037624963E+02  0.74546601460E+02  0.47000000000E+01 0.  1.
        -11    1    1    2    0    0 -0.56280357904E+02 -0.25143052399E+02 -0.73672029310E+02  0.96058418019E+02  0.00000000000E+00 0. -1.
         11    1    1    2    0    0  0.37390724972E+02 -0.33349396968E+02 -0.78020131594E+02  0.92722109154E+02  0.00000000000E+00 0.  1.
<mgrwt>
<rscale>  0 0.13201360E+03</rscale>
<asrwt>0</asrwt>
<pdfrwt beam="2">  1        1 0.16378608E+00 0.13929587E+03</pdfrwt>
<pdfrwt beam="1">  1       -1 0.36873705E-02 0.13929587E+03</pdfrwt>
<totfact> 0.39048020E+03</totfact>
</mgrwt>
</event>
<event>
 7    1  0.5928109E-006  0.1265586E+03  0.7546771E-02  0.1249919E+00
         -1   -1    0    0    0  501 -0.00000000000E+00  0.00000000000E+00  0.11625075021E+03  0.11625075021E+03  0.00000000000E+00 0.  1.
          1   -1    0    0  501    0  0.00000000000E+00 -0.00000000000E+00 -0.10436452513E+03  0.10436452513E+03  0.00000000000E+00 0. -1.
         23    2    1    2    0    0 -0.68374440846E+01  0.18641113437E+02 -0.15036983913E+02  0.12744878168E+03  0.12499135696E+03 0.  0.
          5    1    3    3  502    0  0.40457681127E+02  0.51358429415E+02  0.64776640242E+01  0.65867764236E+02  0.47000000000E+01 0.  1.
         -5    1    3    3    0  502 -0.47295125212E+02 -0.32717315978E+02 -0.21514647937E+02  0.61581017444E+02  0.47000000000E+01 0.  1.
        -11    1    1    2    0    0 -0.11967642709E+01  0.31900287128E+02  0.27277084037E+02  0.41989282884E+02  0.00000000000E+00 0.  1.
         11    1    1    2    0    0  0.80342083555E+01 -0.50541400565E+02 -0.35387504764E+00  0.51177210773E+02  0.00000000000E+00 0. -1.
<mgrwt>
<rscale>  0 0.11595773E+03</rscale>
<asrwt>0</asrwt>
<pdfrwt beam="2">  1        1 0.16056081E-01 0.12655861E+03</pdfrwt>
<pdfrwt beam="1">  1       -1 0.17884731E-01 0.12655861E+03</pdfrwt>
<totfact> 0.77482001E+03</totfact>
</mgrwt>
</event>
<event>
 7    1  0.5928109E-006  0.1379326E+03  0.7546771E-02  0.1228631E+00
         -3   -1    0    0    0  501 -0.00000000000E+00  0.00000000000E+00  0.40889348616E+03  0.40889348616E+03  0.00000000000E+00 0.  1.
          3   -1    0    0  501    0  0.00000000000E+00 -0.00000000000E+00 -0.36457474280E+02  0.36457474280E+02  0.00000000000E+00 0. -1.
         23    2    1    2    0    0  0.36019946669E+01  0.58191882179E+02  0.20648125952E+03  0.24831412630E+03  0.12500450099E+03 0.  0.
          5    1    3    3  502    0  0.46488502248E+02  0.32264984274E+01  0.23410654469E+02  0.52361625987E+02  0.47000000000E+01 0. -1.
         -5    1    3    3    0  502 -0.42886507581E+02  0.54965383752E+02  0.18307060506E+03  0.19595250031E+03  0.47000000000E+01 0. -1.
        -11    1    1    2    0    0  0.13647104204E+02 -0.30273094974E+02  0.16033989814E+03  0.16374244004E+03  0.00000000000E+00 0.  1.
         11    1    1    2    0    0 -0.17249098870E+02 -0.27918787205E+02  0.56148542104E+01  0.33294394103E+02  0.00000000000E+00 0. -1.
<mgrwt>
<rscale>  0 0.12921144E+03</rscale>
<asrwt>0</asrwt>
<pdfrwt beam="2">  1        3 0.56088425E-02 0.13793257E+03</pdfrwt>
<pdfrwt beam="1">  1       -3 0.62906687E-01 0.13793257E+03</pdfrwt>
<totfact> 0.10934207E+03</totfact>
</mgrwt>
</event>
<event>
 7    1  0.5928109E-006  0.1450845E+03  0.7546771E-02  0.1219531E+00
         -3   -1    0    0    0  501 -0.00000000000E+00  0.00000000000E+00  0.72913468277E+02  0.72913468277E+02  0.00000000000E+00 0.  1.
          3   -1    0    0  501    0  0.00000000000E+00 -0.00000000000E+00 -0.22625718166E+03  0.22625718166E+03  0.00000000000E+00 0. -1.
         23    2    1    2    0    0 -0.55128258327E+02 -0.48834084736E+02 -0.10272222280E+03  0.17776776681E+03  0.12500252461E+03 0.  0.
          5    1    3    3  502    0 -0.40409560330E+02 -0.79045305613E+02 -0.11161168687E+03  0.14268970373E+03  0.47000000000E+01 0.  1.
         -5    1    3    3    0  502 -0.14718697997E+02  0.30211220877E+02  0.88894640669E+01  0.35078063073E+02  0.47000000000E+01 0.  1.
        -11    1    1    2    0    0  0.41417214535E+02  0.43052527941E+02  0.85859995489E+01  0.60354164813E+02  0.00000000000E+00 0. -1.
         11    1    1    2    0    0  0.13711043792E+02  0.57815567949E+01 -0.59207490125E+02  0.61048718314E+02  0.00000000000E+00 0.  1.
<mgrwt>
<rscale>  0 0.13548914E+03</rscale>
<asrwt>0</asrwt>
<pdfrwt beam="2">  1        3 0.34808797E-01 0.14508454E+03</pdfrwt>
<pdfrwt beam="1">  1       -3 0.11217457E-01 0.14508454E+03</pdfrwt>
<totfact> 0.11498921E+03</totfact>
</mgrwt>
</event>
<event>
 7    1  0.5928109E-006  0.1289592E+03  0.7546771E-02  0.1244511E+00
         -1   -1    0    0    0  501 -0.00000000000E+00  0.00000000000E+00  0.59523605773E+02  0.59523605773E+02  0.00000000000E+00 0. -1.
          1   -1    0    0  501    0  0.00000000000E+00 -0.00000000000E+00 -0.37673675216E+03  0.37673675216E+03  0.00000000000E+00 0.  1.
         23    2    1    2    0    0  0.57492340977E+01  0.31192555417E+02 -0.31707200793E+03  0.34229394146E+03  0.12499781974E+03 0.  0.
          5    1    3    3  502    0 -0.11431459169E+02 -0.18284567632E+02 -0.27240711021E+03  0.27329970246E+03  0.47000000000E+01 0.  1.
         -5    1    3    3    0  502  0.17180693266E+02  0.49477123049E+02 -0.44664897718E+02  0.68994238995E+02  0.47000000000E+01 0.  1.
        -11    1    1    2    0    0  0.25857122761E+02 -0.14590352955E+02  0.33603972876E+02  0.44840787123E+02  0.00000000000E+00 0. -1.
         11    1    1    2    0    0 -0.31606356858E+02 -0.16602202462E+02 -0.33745111336E+02  0.49125629355E+02  0.00000000000E+00 0.  1.
<mgrwt>
<rscale>  0 0.11914680E+03</rscale>
<asrwt>0</asrwt>
<pdfrwt beam="2">  1        1 0.57959500E-01 0.12895923E+03</pdfrwt>
<pdfrwt beam="1">  1       -1 0.91574779E-02 0.12895923E+03</pdfrwt>
<totfact> 0.43962079E+03</totfact>
</mgrwt>
</event>
<event>
 7    1  0.5928109E-006  0.1631885E+03  0.7546771E-02  0.1192596E+00
          2   -1    0    0  501    0  0.00000000000E+00  0.00000000000E+00  0.34458043316E+03  0.34458043316E+03  0.00000000000E+00 0. -1.
         -2   -1    0    0    0  501 -0.00000000000E+00 -0.00000000000E+00 -0.67284350907E+02  0.67284350907E+02  0.00000000000E+00 0.  1.
         23    2    1    2    0    0 -0.33570636604E+02  0.99409488794E+02  0.17845234315E+03  0.24181752651E+03  0.12498497208E+03 0.  0.
          5    1    3    3  502    0  0.61327523092E+01  0.21101612365E+02 -0.16550946910E+02  0.27909004620E+02  0.47000000000E+01 0.  1.
         -5    1    3    3    0  502 -0.39703388913E+02  0.78307876430E+02  0.19500329006E+03  0.21390852189E+03  0.47000000000E+01 0.  1.
        -11    1    1    2    0    0 -0.76873986147E+01 -0.15162547091E+02  0.69809650485E+02  0.71849747617E+02  0.00000000000E+00 0. -1.
         11    1    1    2    0    0  0.41258035219E+02 -0.84246941703E+02  0.29034088615E+02  0.98197509939E+02  0.00000000000E+00 0.  1.
<mgrwt>
<rscale>  0 0.15659461E+03</rscale>
<asrwt>0</asrwt>
<pdfrwt beam="1">  1        2 0.53012373E-01 0.16318847E+03</pdfrwt>
<pdfrwt beam="2">  1       -2 0.10351439E-01 0.16318847E+03</pdfrwt>
<totfact> 0.57129630E+03</totfact>
</mgrwt>
</event>
<event>
 7    1  0.5928109E-006  0.2079533E+03  0.7546771E-02  0.1146904E+00
          2   -1    0    0  501    0  0.00000000000E+00  0.00000000000E+00  0.10994068592E+03  0.10994068592E+03  0.00000000000E+00 0.  1.
         -2   -1    0    0    0  501 -0.00000000000E+00 -0.00000000000E+00 -0.38242455292E+03  0.38242455292E+03  0.00000000000E+00 0. -1.
         23    2    1    2    0    0 -0.16258373753E+03 -0.34453628120E+02 -0.83304209890E+02  0.22401822506E+03  0.12499619823E+03 0.  0.
          5    1    3    3  502    0 -0.29731998103E+01 -0.33726541377E+02 -0.50533938945E+02  0.61008921444E+02  0.47000000000E+01 0.  1.
         -5    1    3    3    0  502 -0.15961053772E+03 -0.72708674250E+00 -0.32770270945E+02  0.16300930361E+03  0.47000000000E+01 0.  1.
        -11    1    1    2    0    0  0.10848179104E+03  0.27334832187E+01 -0.58226095303E+02  0.12315051397E+03  0.00000000000E+00 0.  1.
         11    1    1    2    0    0  0.54101946489E+02  0.31720144901E+02 -0.13095356181E+03  0.14519649981E+03  0.00000000000E+00 0. -1.
<mgrwt>
<rscale>  0 0.20339706E+03</rscale>
<asrwt>0</asrwt>
<pdfrwt beam="1">  1        2 0.16913951E-01 0.20795330E+03</pdfrwt>
<pdfrwt beam="2">  1       -2 0.58834548E-01 0.20795330E+03</pdfrwt>
<totfact> 0.92515209E+02</totfact>
</mgrwt>
</event>
<event>
 7    1  0.5928109E-006  0.1288339E+03  0.7546771E-02  0.1265012E+00
         -3   -1    0    0    0  501 -0.00000000000E+00  0.00000000000E+00  0.23221965021E+02  0.23221965021E+02  0.00000000000E+00 0.  1.
          3   -1    0    0  501    0  0.00000000000E+00 -0.00000000000E+00 -0.41028977072E+03  0.41028977072E+03  0.00000000000E+00 0. -1.
         23    2    1    2    0    0  0.31166519783E+02 -0.80289226101E+00 -0.29690588053E+03  0.32365300879E+03  0.12500468635E+03 0.  0.
          5    1    3    3  502    0  0.59988707347E+02  0.36730183413E+02 -0.10890773486E+03  0.12973332685E+03  0.47000000000E+01 0. -1.
         -5    1    3    3    0  502 -0.28822187565E+02 -0.37533075674E+02 -0.18799814568E+03  0.19391968194E+03  0.47000000000E+01 0. -1.
        -11    1    1    2    0    0  0.56333564933E+00  0.13311398115E+02 -0.67750170359E+02  0.69047782372E+02  0.00000000000E+00 0. -1.
         11    1    1    2    0    0 -0.31729855432E+02 -0.12508505854E+02 -0.22411754809E+02  0.40810944587E+02  0.00000000000E+00 0.  1.
<mgrwt>
<rscale>  0 0.10763571E+03</rscale>
<asrwt>0</asrwt>
<pdfrwt beam="2">  1        3 0.63121503E-01 0.12883388E+03</pdfrwt>
<pdfrwt beam="1">  1       -3 0.35726100E-02 0.12883388E+03</pdfrwt>
<totfact> 0.21835874E+03</totfact>
</mgrwt>
</event>
<event>
 7    1  0.5928109E-006  0.1402519E+03  0.7546771E-02  0.1223630E+00
          2   -1    0    0  501    0  0.00000000000E+00  0.00000000000E+00  0.44711543688E+03  0.44711543688E+03  0.00000000000E+00 0.  1.
         -2   -1    0    0    0  501 -0.00000000000E+00 -0.00000000000E+00 -0.56380354674E+02  0.56380354674E+02  0.00000000000E+00 0. -1.
         23    2    1    2    0    0 -0.30583444296E+02 -0.55776365648E+02  0.36134081715E+03  0.38760518331E+03  0.12499696781E+03 0.  0.
          5    1    3    3  502    0 -0.33277014567E+02  0.34959991419E+02  0.14680896128E+03  0.15461087222E+03  0.47000000000E+01 0.  1.
         -5    1    3    3    0  502  0.26935702712E+01 -0.90736357068E+02  0.21453185587E+03  0.23299431109E+03  0.47000000000E+01 0.  1.
        -11    1    1    2    0    0  0.20901416947E+02  0.48067220198E+01 -0.30095760604E+02  0.36955765630E+02  0.00000000000E+00 0. -1.
         11    1    1    2    0    0  0.96820273494E+01  0.50969643629E+02  0.59490025660E+02  0.78934842613E+02  0.00000000000E+00 0.  1.
<mgrwt>
<rscale>  0 0.13261230E+03</rscale>
<asrwt>0</asrwt>
<pdfrwt beam="1">  1        2 0.68786988E-01 0.14025189E+03</pdfrwt>
<pdfrwt beam="2">  1       -2 0.86739010E-02 0.14025189E+03</pdfrwt>
<totfact> 0.56529331E+03</totfact>
</mgrwt>
</event>
<event>
 7    1  0.5928109E-006  0.1299929E+03  0.7546771E-02  0.1239956E+00
          1   -1    0    0  501    0  0.00000000000E+00  0.00000000000E+00  0.54723670941E+03  0.54723670941E+03  0.00000000000E+00 0. -1.
         -1   -1    0    0    0  501 -0.00000000000E+00 -0.00000000000E+00 -0.24638086781E+02  0.24638086781E+02  0.00000000000E+00 0.  1.
         23    2    1    2    0    0  0.25582651831E+02  0.24729143219E+02  0.32777352547E+03  0.35260975385E+03  0.12502860436E+03 0.  0.
          5    1    3    3  502    0  0.67995597288E+02 -0.12466922844E+02  0.22306900886E+03  0.23358231553E+03  0.47000000000E+01 0. -1.
         -5    1    3    3    0  502 -0.42412945457E+02  0.37196066063E+02  0.10470451662E+03  0.11902743832E+03  0.47000000000E+01 0. -1.
        -11    1    1    2    0    0  0.17024769450E+02 -0.30260963764E+02  0.21828271728E+02  0.41012707170E+02  0.00000000000E+00 0.  1.
         11    1    1    2    0    0 -0.42607421281E+02  0.55318205452E+01  0.17299682543E+03  0.17825233518E+03  0.00000000000E+00 0. -1.
<mgrwt>
<rscale>  0 0.12192398E+03</rscale>
<asrwt>0</asrwt>
<pdfrwt beam="1">  1        1 0.84190254E-01 0.12999290E+03</pdfrwt>
<pdfrwt beam="2">  1       -1 0.37904753E-02 0.12999290E+03</pdfrwt>
<totfact> 0.10121870E+04</totfact>
</mgrwt>
</event>
<event>
 7    1  0.5928109E-006  0.1405388E+03  0.7546771E-02  0.1224516E+00
         -2   -1    0    0    0  501 -0.00000000000E+00  0.00000000000E+00  0.40080970162E+02  0.40080970162E+02  0.00000000000E+00 0.  1.
          2   -1    0    0  501    0  0.00000000000E+00 -0.00000000000E+00 -0.69756663522E+03  0.69756663522E+03  0.00000000000E+00 0. -1.
         23    2    1    2    0    0 -0.89106709878E+01  0.63626039296E+02 -0.59564449100E+03  0.61199959391E+03  0.12499388129E+03 0.  0.
          5    1    3    3  502    0  0.18204872913E+02  0.96065221254E+02 -0.42619653259E+03  0.43729340096E+03  0.47000000000E+01 0.  1.
         -5    1    3    3    0  502 -0.27115543901E+02 -0.32439181959E+02 -0.16944795841E+03  0.17470619296E+03  0.47000000000E+01 0.  1.
        -11    1    1    2    0    0  0.44846447281E+02 -0.57316759426E+02 -0.43874684466E+02  0.84978836670E+02  0.00000000000E+00 0.  1.
         11    1    1    2    0    0 -0.35935776294E+02 -0.63092798699E+01 -0.17966489592E+02  0.40669174796E+02  0.00000000000E+00 0. -1.
<mgrwt>
<rscale>  0 0.13200109E+03</rscale>
<asrwt>0</asrwt>
<pdfrwt beam="2">  1        2 0.10731794E+00 0.14053876E+03</pdfrwt>
<pdfrwt beam="1">  1       -2 0.61663032E-02 0.14053876E+03</pdfrwt>
<totfact> 0.57877788E+03</totfact>
</mgrwt>
</event>
<event>
 7    1  0.5928109E-006  0.1551692E+03  0.7546771E-02  0.1203079E+00
          2   -1    0    0  501    0  0.00000000000E+00  0.00000000000E+00  0.78452460330E+03  0.78452460330E+03  0.00000000000E+00 0. -1.
         -2   -1    0    0    0  501 -0.00000000000E+00 -0.00000000000E+00 -0.48695569500E+02  0.48695569500E+02  0.00000000000E+00 0.  1.
         23    2    1    2    0    0  0.79127012852E+02  0.46814400496E+02  0.67283761540E+03  0.69049833510E+03  0.12499928730E+03 0.  0.
          5    1    3    3  502    0 -0.28654304043E+02  0.17229645702E+02  0.74513429074E+02  0.81806301368E+02  0.47000000000E+01 0. -1.
         -5    1    3    3    0  502  0.10778131690E+03  0.29584754793E+02  0.59832418633E+03  0.60869203373E+03  0.47000000000E+01 0. -1.
        -11    1    1    2    0    0 -0.76908940625E+02  0.26344801468E+01  0.27124414413E+02  0.81594481988E+02  0.00000000000E+00 0.  1.
         11    1    1    2    0    0 -0.22180722270E+01 -0.49448880642E+02  0.35867003990E+02  0.61127355712E+02  0.00000000000E+00 0. -1.
<mgrwt>
<rscale>  0 0.14789893E+03</rscale>
<asrwt>0</asrwt>
<pdfrwt beam="1">  1        2 0.12069608E+00 0.15516924E+03</pdfrwt>
<pdfrwt beam="2">  1       -2 0.74916266E-02 0.15516924E+03</pdfrwt>
<totfact> 0.37404279E+03</totfact>
</mgrwt>
</event>
<event>
 7    1  0.5928109E-006  0.1670399E+03  0.7546771E-02  0.1187848E+00
         -1   -1    0    0    0  501 -0.00000000000E+00  0.00000000000E+00  0.36100253226E+03  0.36100253226E+03  0.00000000000E+00 0.  1.
          1   -1    0    0  501    0  0.00000000000E+00 -0.00000000000E+00 -0.11222330130E+03  0.11222330130E+03  0.00000000000E+00 0. -1.
         23    2    1    2    0    0  0.39526582984E+02  0.10351230131E+03 -0.20406991823E+02  0.16828181876E+03  0.12500071169E+03 0.  0.
          5    1    3    3  502    0 -0.39581226900E+02  0.66860614562E+02 -0.22222948365E+02  0.80950384413E+02  0.47000000000E+01 0. -1.
         -5    1    3    3    0  502  0.79107809884E+02  0.36651686750E+02  0.18159565421E+01  0.87331434343E+02  0.47000000000E+01 0. -1.
        -11    1    1    2    0    0 -0.63440267845E+02 -0.81142543403E+02  0.23964685587E+03  0.26084362263E+03  0.00000000000E+00 0.  1.
         11    1    1    2    0    0  0.23913684861E+02 -0.22369757908E+02  0.29539366912E+02  0.44100392176E+02  0.00000000000E+00 0. -1.
<mgrwt>
<rscale>  0 0.16075437E+03</rscale>
<asrwt>0</asrwt>
<pdfrwt beam="2">  1        1 0.17265123E-01 0.16703989E+03</pdfrwt>
<pdfrwt beam="1">  1       -1 0.55538851E-01 0.16703989E+03</pdfrwt>
<totfact> 0.10348942E+03</totfact>
</mgrwt>
</event>
<event>
 7    1  0.5928109E-006  0.1314358E+03  0.7546771E-02  0.1236015E+00
          1   -1    0    0  501    0  0.00000000000E+00  0.00000000000E+00  0.93639172031E+03  0.93639172031E+03  0.00000000000E+00 0. -1.
         -1   -1    0    0    0  501 -0.00000000000E+00 -0.00000000000E+00 -0.16797469310E+02  0.16797469310E+02  0.00000000000E+00 0.  1.
         23    2    1    2    0    0 -0.26454181650E+02  0.30849489237E+02  0.66056145892E+03  0.67351081575E+03  0.12499545275E+03 0.  0.
          5    1    3    3  502    0 -0.73414381085E+01  0.15548270792E+02  0.64244753606E+03  0.64269477361E+03  0.47000000000E+01 0. -1.
         -5    1    3    3    0  502 -0.19112743541E+02  0.15301218445E+02  0.18113922856E+02  0.30816042134E+02  0.47000000000E+01 0. -1.
        -11    1    1    2    0    0 -0.13568890241E+02  0.45987251841E+01 -0.85089327208E+00  0.14352249825E+02  0.00000000000E+00 0.  1.
         11    1    1    2    0    0  0.40023071890E+02 -0.35448214421E+02  0.25988368535E+03  0.26532612405E+03  0.00000000000E+00 0. -1.
<mgrwt>
<rscale>  0 0.12439652E+03</rscale>
<asrwt>0</asrwt>
<pdfrwt beam="1">  1        1 0.14406022E+00 0.13143583E+03</pdfrwt>
<pdfrwt beam="2">  1       -1 0.25842268E-02 0.13143583E+03</pdfrwt>
<totfact> 0.81169619E+03</totfact>
</mgrwt>
</event>
<event>
 7    1  0.5928109E-006  0.1761037E+03  0.7546771E-02  0.1177660E+00
         -2   -1    0    0    0  501 -0.00000000000E+00  0.00000000000E+00  0.26369833402E+03  0.26369833402E+03  0.00000000000E+00 0.  1.
          2   -1    0    0  501    0  0.00000000000E+00 -0.00000000000E+00 -0.37085477581E+03  0.37085477581E+03  0.00000000000E+00 0. -1.
         23    2    1    2    0    0  0.44646979105E+02  0.11571894565E+03 -0.32403848608E+03  0.36880004106E+03  0.12501321008E+03 0.  0.
          5    1    3    3  502    0 -0.30305128774E+02  0.27750363122E+02 -0.17674798256E+03  0.18152251326E+03  0.47000000000E+01 0.  1.
         -5    1    3    3    0  502  0.74952107879E+02  0.87968582533E+02 -0.14729050353E+03  0.18727752780E+03  0.47000000000E+01 0.  1.
        -11    1    1    2    0    0 -0.32711976299E+02 -0.39540888673E+02  0.21378388692E+02  0.55593082065E+02  0.00000000000E+00 0. -1.
         11    1    1    2    0    0 -0.11935002806E+02 -0.76178056982E+02  0.19550365560E+03  0.21015998670E+03  0.00000000000E+00 0.  1.
<mgrwt>
<rscale>  0 0.17018068E+03</rscale>
<asrwt>0</asrwt>
<pdfrwt beam="2">  1        2 0.57054580E-01 0.17610375E+03</pdfrwt>
<pdfrwt beam="1">  1       -2 0.40568975E-01 0.17610375E+03</pdfrwt>
<totfact> 0.50567353E+02</totfact>
</mgrwt>
</event>
<event>
 7    1  0.5928109E-006  0.1266394E+03  0.7546771E-02  0.1246475E+00
          4   -1    0    0  501    0  0.00000000000E+00  0.00000000000E+00  0.47842909802E+02  0.47842909802E+02  0.00000000000E+00 0. -1.
         -4   -1    0    0    0  501 -0.00000000000E+00 -0.00000000000E+00 -0.25760934982E+03  0.25760934982E+03  0.00000000000E+00 0.  1.
         23    2    1    2    0    0  0.11867019682E+02 -0.16526393778E+02 -0.11787212403E+03  0.17300684074E+03  0.12499432576E+03 0.  0.
          5    1    3    3  502    0 -0.12619888556E+02  0.15046585919E+02  0.20577565401E+02  0.28830323148E+02  0.47000000000E+01 0.  1.
         -5    1    3    3    0  502  0.24486908238E+02 -0.31572979697E+02 -0.13844968943E+03  0.14417651759E+03  0.47000000000E+01 0.  1.
        -11    1    1    2    0    0  0.26620335138E+02  0.39823380373E+02 -0.62335700938E+02  0.78614779009E+02  0.00000000000E+00 0.  1.
         11    1    1    2    0    0 -0.38487354820E+02 -0.23296986595E+02 -0.29558615057E+02  0.53830639877E+02  0.00000000000E+00 0. -1.
<mgrwt>
<rscale>  0 0.11797505E+03</rscale>
<asrwt>0</asrwt>
<pdfrwt beam="1">  1        4 0.73604477E-02 0.12663937E+03</pdfrwt>
<pdfrwt beam="2">  1       -4 0.39632208E-01 0.12663937E+03</pdfrwt>
<totfact> 0.12759101E+03</totfact>
</mgrwt>
</event>
<event>
 7    1  0.5928109E-006  0.2778797E+03  0.7546771E-02  0.1098587E+00
         -2   -1    0    0    0  501 -0.00000000000E+00  0.00000000000E+00  0.40599911226E+03  0.40599911226E+03  0.00000000000E+00 0.  1.
          2   -1    0    0  501    0  0.00000000000E+00 -0.00000000000E+00 -0.22258321348E+03  0.22258321348E+03  0.00000000000E+00 0. -1.
         23    2    1    2    0    0  0.24816171140E+03  0.31931289430E+01 -0.40972895609E+02  0.28088419165E+03  0.12499087913E+03 0.  0.
          5    1    3    3  502    0 -0.13995276509E+02 -0.48068158640E+01 -0.32794363318E+01  0.15868772667E+02  0.47000000000E+01 0. -1.
         -5    1    3    3    0  502  0.26215698791E+03  0.79999448070E+01 -0.37693459277E+02  0.26501541898E+03  0.47000000000E+01 0. -1.
        -11    1    1    2    0    0 -0.15468670042E+03 -0.29878903813E+02  0.18452625013E+03  0.24263277018E+03  0.00000000000E+00 0.  1.
         11    1    1    2    0    0 -0.93475010977E+02  0.26685774870E+02  0.39862544256E+02  0.10506536390E+03  0.00000000000E+00 0. -1.
<mgrwt>
<rscale>  0 0.27475773E+03</rscale>
<asrwt>0</asrwt>
<pdfrwt beam="2">  1        2 0.34243571E-01 0.27787974E+03</pdfrwt>
<pdfrwt beam="1">  1       -2 0.62461402E-01 0.27787974E+03</pdfrwt>
<totfact> 0.37000401E+02</totfact>
</mgrwt>
</event>
<event>
 7    1  0.5928109E-006  0.1290293E+03  0.7546771E-02  0.1243074E+00
         -1   -1    0    0    0  501 -0.00000000000E+00  0.00000000000E+00  0.11500219928E+03  0.11500219928E+03  0.00000000000E+00 0.  1.
          1   -1    0    0  501    0  0.00000000000E+00 -0.00000000000E+00 -0.11201479348E+03  0.11201479348E+03  0.00000000000E+00 0. -1.
         23    2    1    2    0    0 -0.31349849335E+02 -0.64668518509E+01 -0.10727409597E+02  0.12947450937E+03  0.12499575206E+03 0.  0.
          5    1    3    3  502    0 -0.44218948969E+02  0.46518114834E+01  0.49507437309E+02  0.66708553777E+02  0.47000000000E+01 0.  1.
         -5    1    3    3    0  502  0.12869099634E+02 -0.11118663334E+02 -0.60234846906E+02  0.62765955593E+02  0.47000000000E+01 0.  1.
        -11    1    1    2    0    0 -0.26012707487E+02  0.21784432894E+02 -0.70298210984E+01  0.34650264819E+02  0.00000000000E+00 0. -1.
         11    1    1    2    0    0  0.57362556823E+02 -0.15317581043E+02  0.20744636497E+02  0.62892218578E+02  0.00000000000E+00 0.  1.
<mgrwt>
<rscale>  0 0.12001371E+03</rscale>
<asrwt>0</asrwt>
<pdfrwt beam="2">  1        1 0.17233045E-01 0.12902934E+03</pdfrwt>
<pdfrwt beam="1">  1       -1 0.17692646E-01 0.12902934E+03</pdfrwt>
<totfact> 0.72084334E+03</totfact>
</mgrwt>
</event>
<event>
 7    1  0.5928109E-006  0.1577532E+03  0.7546771E-02  0.1199432E+00
          2   -1    0    0  501    0  0.00000000000E+00  0.00000000000E+00  0.19914800676E+03  0.19914800676E+03  0.00000000000E+00 0. -1.
         -2   -1    0    0    0  501 -0.00000000000E+00 -0.00000000000E+00 -0.14212085921E+03  0.14212085921E+03  0.00000000000E+00 0.  1.
         23    2    1    2    0    0 -0.91702150197E+02 -0.29192487785E+02  0.11696749917E+03  0.19638601374E+03  0.12499833934E+03 0.  0.
          5    1    3    3  502    0 -0.87145616578E+01  0.59681971846E+01  0.10466324563E+03  0.10529980033E+03  0.47000000000E+01 0. -1.
         -5    1    3    3    0  502 -0.82987588539E+02 -0.35160684969E+02  0.12304253532E+02  0.91086213413E+02  0.47000000000E+01 0. -1.
        -11    1    1    2    0    0  0.24257151675E+01 -0.21313038432E+02 -0.32085734624E+02  0.38595648299E+02  0.00000000000E+00 0.  1.
         11    1    1    2    0    0  0.89276435029E+02  0.50505526217E+02 -0.27854616998E+02  0.10628720392E+03  0.00000000000E+00 0. -1.
<mgrwt>
<rscale>  0 0.15085046E+03</rscale>
<asrwt>0</asrwt>
<pdfrwt beam="1">  1        2 0.30638155E-01 0.15775319E+03</pdfrwt>
<pdfrwt beam="2">  1       -2 0.21864747E-01 0.15775319E+03</pdfrwt>
<totfact> 0.30016179E+03</totfact>
</mgrwt>
</event>
<event>
 7    1  0.5928109E-006  0.2027454E+03  0.7546771E-02  0.1151610E+00
          3   -1    0    0  501    0  0.00000000000E+00  0.00000000000E+00  0.25572886099E+03  0.25572886099E+03  0.00000000000E+00 0. -1.
         -3   -1    0    0    0  501 -0.00000000000E+00 -0.00000000000E+00 -0.17549916646E+03  0.17549916646E+03  0.00000000000E+00 0.  1.
         23    2    1    2    0    0  0.39513887615E+02 -0.15466034470E+03  0.13011560948E+03  0.24090617619E+03  0.12499817742E+03 0.  0.
          5    1    3    3  502    0  0.78860971787E+02 -0.12363967058E+03  0.70178266687E+02  0.16264347552E+03  0.47000000000E+01 0. -1.
         -5    1    3    3    0  502 -0.39347084172E+02 -0.31020674120E+02  0.59937342792E+02  0.78262700673E+02  0.47000000000E+01 0. -1.
        -11    1    1    2    0    0 -0.30717442556E+02  0.10367223295E+02 -0.30418608585E+02  0.44455959603E+02  0.00000000000E+00 0. -1.
         11    1    1    2    0    0 -0.87964450594E+01  0.14429312141E+03 -0.19467306359E+02  0.14586589165E+03  0.00000000000E+00 0.  1.
<mgrwt>
<rscale>  0 0.19779781E+03</rscale>
<asrwt>0</asrwt>
<pdfrwt beam="1">  1        3 0.39342902E-01 0.20274544E+03</pdfrwt>
<pdfrwt beam="2">  1       -3 0.26999872E-01 0.20274544E+03</pdfrwt>
<totfact> 0.20470819E+02</totfact>
</mgrwt>
</event>
<event>
 7    1  0.5928109E-006  0.1318829E+03  0.7546771E-02  0.1239400E+00
         -1   -1    0    0    0  501 -0.00000000000E+00  0.00000000000E+00  0.19292380341E+02  0.19292380341E+02  0.00000000000E+00 0.  1.
          1   -1    0    0  501    0  0.00000000000E+00 -0.00000000000E+00 -0.68158972731E+03  0.68158972731E+03  0.00000000000E+00 0. -1.
         23    2    1    2    0    0 -0.41764459808E+02  0.53151805928E+01 -0.38623523047E+03  0.40813081248E+03  0.12498234112E+03 0.  0.
          5    1    3    3  502    0 -0.74201470595E+02  0.76625773805E+01 -0.13127830620E+03  0.15106507541E+03  0.47000000000E+01 0. -1.
         -5    1    3    3    0  502  0.32437010788E+02 -0.23473967877E+01 -0.25495692427E+03  0.25706573707E+03  0.47000000000E+01 0. -1.
        -11    1    1    2    0    0 -0.76387278603E+01 -0.37481058648E+02 -0.98977304555E+02  0.10611167107E+03  0.00000000000E+00 0.  1.
         11    1    1    2    0    0  0.49403187668E+02  0.32165878055E+02 -0.17708481194E+03  0.18663962410E+03  0.00000000000E+00 0. -1.
<mgrwt>
<rscale>  0 0.12226919E+03</rscale>
<asrwt>0</asrwt>
<pdfrwt beam="2">  1        1 0.10485994E+00 0.13188293E+03</pdfrwt>
<pdfrwt beam="1">  1       -1 0.29680589E-02 0.13188293E+03</pdfrwt>
<totfact> 0.10722305E+04</totfact>
</mgrwt>
</event>
<event>
 7    1  0.5928109E-006  0.2322944E+03  0.7546771E-02  0.1127951E+00
         -2   -1    0    0    0  501 -0.00000000000E+00  0.00000000000E+00  0.41866885235E+02  0.41866885235E+02  0.00000000000E+00 0.  1.
          2   -1    0    0  501    0  0.00000000000E+00 -0.00000000000E+00 -0.12135598223E+04  0.12135598223E+04  0.00000000000E+00 0. -1.
         23    2    1    2    0    0  0.17661137280E+03 -0.84522965000E+02 -0.67099498213E+03  0.71006685818E+03  0.12499987370E+03 0.  0.
          5    1    3    3  502    0  0.96923763959E+02 -0.79765467590E+02 -0.23176734171E+03  0.26361892293E+03  0.47000000000E+01 0. -1.
         -5    1    3    3    0  502  0.79687608837E+02 -0.47574974103E+01 -0.43922764042E+03  0.44644793525E+03  0.47000000000E+01 0. -1.
        -11    1    1    2    0    0  0.55079005984E+01  0.99979127872E+01 -0.58581135809E+01  0.12830149018E+02  0.00000000000E+00 0.  1.
         11    1    1    2    0    0 -0.18211927339E+03  0.74525052213E+02 -0.49483984130E+03  0.53252970029E+03  0.00000000000E+00 0. -1.
<mgrwt>
<rscale>  0 0.22814745E+03</rscale>
<asrwt>0</asrwt>
<pdfrwt beam="2">  1        2 0.18670148E+00 0.23229438E+03</pdfrwt>
<pdfrwt beam="1">  1       -2 0.64410604E-02 0.23229438E+03</pdfrwt>
<totfact> 0.25988538E+03</totfact>
</mgrwt>
</event>
<event>
 7    1  0.5928109E-006  0.1260889E+03  0.7546771E-02  0.1250838E+00
         -1   -1    0    0    0  501 -0.00000000000E+00  0.00000000000E+00  0.11406703897E+03  0.11406703897E+03  0.00000000000E+00 0.  1.
          1   -1    0    0  501    0  0.00000000000E+00 -0.00000000000E+00 -0.15174957862E+03  0.15174957862E+03  0.00000000000E+00 0. -1.
         23    2    1    2    0    0  0.16032190937E+02 -0.39102971657E+01 -0.97128722662E+02  0.15916156431E+03  0.12500437280E+03 0.  0.
          5    1    3    3  502    0 -0.24174572972E+02 -0.51970574183E+02 -0.70326432805E+02  0.90847386921E+02  0.47000000000E+01 0. -1.
         -5    1    3    3    0  502  0.40206763909E+02  0.48060277018E+02 -0.26802289857E+02  0.68314177391E+02  0.47000000000E+01 0. -1.
        -11    1    1    2    0    0 -0.24438907501E+01 -0.26926390530E+02  0.66887605989E+02  0.72145373684E+02  0.00000000000E+00 0.  1.
         11    1    1    2    0    0 -0.13588300187E+02  0.30836687696E+02 -0.74414229754E+01  0.34509679598E+02  0.00000000000E+00 0. -1.
<mgrwt>
<rscale>  0 0.11542696E+03</rscale>
<asrwt>0</asrwt>
<pdfrwt beam="2">  1        1 0.23346089E-01 0.12608892E+03</pdfrwt>
<pdfrwt beam="1">  1       -1 0.17548775E-01 0.12608892E+03</pdfrwt>
<totfact> 0.49599364E+03</totfact>
</mgrwt>
</event>
<event>
 7    1  0.5928109E-006  0.1768836E+03  0.7546771E-02  0.1177120E+00
          2   -1    0    0  501    0  0.00000000000E+00  0.00000000000E+00  0.81081759243E+03  0.81081759243E+03  0.00000000000E+00 0.  1.
         -2   -1    0    0    0  501 -0.00000000000E+00 -0.00000000000E+00 -0.34248479924E+02  0.34248479924E+02  0.00000000000E+00 0. -1.
         23    2    1    2    0    0  0.15835508925E+02 -0.12413918097E+03  0.47165500164E+03  0.50373231545E+03  0.12500602169E+03 0.  0.
          5    1    3    3  502    0  0.22777630312E+02  0.82628264139E+01  0.19888474034E+03  0.20041039065E+03  0.47000000000E+01 0.  1.
         -5    1    3    3    0  502 -0.69421213871E+01 -0.13240200739E+03  0.27277026131E+03  0.30332192480E+03  0.47000000000E+01 0.  1.
        -11    1    1    2    0    0 -0.15542082103E+00  0.80113516190E+02  0.86191733358E+02  0.11767418804E+03  0.00000000000E+00 0. -1.
         11    1    1    2    0    0 -0.15680088103E+02  0.44025664781E+02  0.21872237750E+03  0.22365956886E+03  0.00000000000E+00 0.  1.
<mgrwt>
<rscale>  0 0.17069961E+03</rscale>
<asrwt>0</asrwt>
<pdfrwt beam="1">  1        2 0.12474115E+00 0.17688359E+03</pdfrwt>
<pdfrwt beam="2">  1       -2 0.52689975E-02 0.17688359E+03</pdfrwt>
<totfact> 0.61761580E+03</totfact>
</mgrwt>
</event>
<event>
 7    1  0.5928109E-006  0.2762614E+03  0.7546771E-02  0.1099776E+00
         -2   -1    0    0    0  501 -0.00000000000E+00  0.00000000000E+00  0.22334123457E+03  0.22334123457E+03  0.00000000000E+00 0.  1.
          2   -1    0    0  501    0  0.00000000000E+00 -0.00000000000E+00 -0.33464526759E+03  0.33464526759E+03  0.00000000000E+00 0. -1.
         23    2    1    2    0    0 -0.23805627422E+03 -0.63433283843E+02 -0.10589326735E+03  0.29586106565E+03  0.12500325957E+03 0.  0.
          5    1    3    3  502    0 -0.21650105390E+03 -0.75973209634E+02 -0.12750023973E+03  0.26253197149E+03  0.47000000000E+01 0. -1.
         -5    1    3    3    0  502 -0.21555220320E+02  0.12539925791E+02  0.21606972385E+02  0.33329094160E+02  0.47000000000E+01 0. -1.
        -11    1    1    2    0    0  0.10344013237E+03 -0.17283048358E+02  0.32695062070E+01  0.10492499424E+03  0.00000000000E+00 0.  1.
         11    1    1    2    0    0  0.13461614185E+03  0.80716332201E+02 -0.86802718766E+01  0.15720044227E+03  0.00000000000E+00 0. -1.
<mgrwt>
<rscale>  0 0.27264301E+03</rscale>
<asrwt>0</asrwt>
<pdfrwt beam="2">  1        2 0.51483887E-01 0.27626145E+03</pdfrwt>
<pdfrwt beam="1">  1       -2 0.34360190E-01 0.27626145E+03</pdfrwt>
<totfact> 0.77392814E+02</totfact>
</mgrwt>
</event>
<event>
 7    1  0.5928109E-006  0.1419150E+03  0.7546771E-02  0.1221504E+00
         -2   -1    0    0    0  501 -0.00000000000E+00  0.00000000000E+00  0.46566343649E+02  0.46566343649E+02  0.00000000000E+00 0.  1.
          2   -1    0    0  501    0  0.00000000000E+00 -0.00000000000E+00 -0.12764204503E+04  0.12764204503E+04  0.00000000000E+00 0. -1.
         23    2    1    2    0    0 -0.29227475347E+01  0.67126946990E+02 -0.11967267729E+04  0.12051119636E+04  0.12500122562E+03 0.  0.
          5    1    3    3  502    0 -0.39897870452E+02 -0.15195120248E+02 -0.21589047592E+03  0.22012160125E+03  0.47000000000E+01 0.  1.
         -5    1    3    3    0  502  0.36975122918E+02  0.82322067237E+02 -0.98083629700E+03  0.98499036238E+03  0.47000000000E+01 0.  1.
        -11    1    1    2    0    0  0.38502110714E+02 -0.64905886804E+02 -0.11939820586E+02  0.76405143720E+02  0.00000000000E+00 0. -1.
         11    1    1    2    0    0 -0.35579363179E+02 -0.22210601861E+01 -0.21187513134E+02  0.41469686584E+02  0.00000000000E+00 0.  1.
<mgrwt>
<rscale>  0 0.13409422E+03</rscale>
<asrwt>0</asrwt>
<pdfrwt beam="2">  1        2 0.19637238E+00 0.14191503E+03</pdfrwt>
<pdfrwt beam="1">  1       -2 0.71640526E-02 0.14191503E+03</pdfrwt>
<totfact> 0.20292475E+03</totfact>
</mgrwt>
</event>
<event>
 7    1  0.5928109E-006  0.1252471E+03  0.7546771E-02  0.1249783E+00
          2   -1    0    0  501    0  0.00000000000E+00  0.00000000000E+00  0.57485848577E+03  0.57485848577E+03  0.00000000000E+00 0. -1.
         -2   -1    0    0    0  501 -0.00000000000E+00 -0.00000000000E+00 -0.21749765210E+02  0.21749765210E+02  0.00000000000E+00 0.  1.
         23    2    1    2    0    0  0.64667100740E+01  0.44466629642E+01  0.38474099927E+03  0.40461396424E+03  0.12500092954E+03 0.  0.
          5    1    3    3  502    0  0.44491721733E+02  0.18062222868E+01  0.34992024108E+03  0.35277335622E+03  0.47000000000E+01 0. -1.
         -5    1    3    3    0  502 -0.38025011659E+02  0.26404406774E+01  0.34820758195E+02  0.51840608020E+02  0.47000000000E+01 0. -1.
        -11    1    1    2    0    0  0.38703969836E+02  0.14495049249E+02  0.57730914472E+02  0.70999733940E+02  0.00000000000E+00 0.  1.
         11    1    1    2    0    0 -0.45170679910E+02 -0.18941712213E+02  0.11063680682E+03  0.12099455280E+03  0.00000000000E+00 0. -1.
<mgrwt>
<rscale>  0 0.11603609E+03</rscale>
<asrwt>0</asrwt>
<pdfrwt beam="1">  1        2 0.88439755E-01 0.12524705E+03</pdfrwt>
<pdfrwt beam="2">  1       -2 0.33461182E-02 0.12524705E+03</pdfrwt>
<totfact> 0.17900426E+04</totfact>
</mgrwt>
</event>
<event>
 6    1  0.5928109E-006  0.2101191E+03  0.7546771E-02  0.1147285E+00
         -2   -1    0    0    0  501 -0.00000000000E+00  0.00000000000E+00  0.15808780750E+03  0.15808780750E+03  0.00000000000E+00 0.  1.
          2   -1    0    0  501    0  0.00000000000E+00 -0.00000000000E+00 -0.53623619796E+03  0.53623619796E+03  0.00000000000E+00 0. -1.
          5    1    1    2  502    0  0.61480561476E+02  0.11577796995E+03 -0.26443717023E+03  0.29518384909E+03  0.47000000000E+01 0. -1.
         -5    1    1    2    0  502  0.72071558180E+02 -0.30464417026E+02 -0.18654143193E+03  0.20234175553E+03  0.47000000000E+01 0.  1.
        -11    1    1    2    0    0 -0.73661367918E+02 -0.94606378821E+02  0.33303064467E+02  0.12444058076E+03  0.00000000000E+00 0. -1.
         11    1    1    2    0    0 -0.59890751737E+02  0.92928259022E+01  0.39527147239E+02  0.72357820073E+02  0.00000000000E+00 0.  1.
<mgrwt>
<rscale>  0 0.20293579E+03</rscale>
<asrwt>0</asrwt>
<pdfrwt beam="2">  1        2 0.82497875E-01 0.21011908E+03</pdfrwt>
<pdfrwt beam="1">  1       -2 0.24321202E-01 0.21011908E+03</pdfrwt>
<totfact> 0.85985579E+02</totfact>
</mgrwt>
</event>
<event>
 7    1  0.5928109E-006  0.1468850E+03  0.7546771E-02  0.1214220E+00
          2   -1    0    0  501    0  0.00000000000E+00  0.00000000000E+00  0.14729841574E+04  0.14729841574E+04  0.00000000000E+00 0. -1.
         -2   -1    0    0    0  501 -0.00000000000E+00 -0.00000000000E+00 -0.12126543722E+02  0.12126543722E+02  0.00000000000E+00 0.  1.
         23    2    1    2    0    0  0.64788991583E+02 -0.41859257937E+02  0.88351588122E+03  0.89564250953E+03  0.12500152640E+03 0.  0.
          5    1    3    3  502    0 -0.78040234169E+01 -0.38223070146E+02  0.64637422390E+03  0.64756747385E+03  0.47000000000E+01 0. -1.
         -5    1    3    3    0  502  0.72593015000E+02 -0.36361877902E+01  0.23714165732E+03  0.24807503568E+03  0.47000000000E+01 0. -1.
        -11    1    1    2    0    0 -0.72994618959E+02 -0.29352544868E+01  0.37744676147E+03  0.38445141157E+03  0.00000000000E+00 0.  1.
         11    1    1    2    0    0  0.82056273756E+01  0.44794512423E+02  0.19989497101E+03  0.20501678004E+03  0.00000000000E+00 0. -1.
<mgrwt>
<rscale>  0 0.13933967E+03</rscale>
<asrwt>0</asrwt>
<pdfrwt beam="1">  1        2 0.22661281E+00 0.14688496E+03</pdfrwt>
<pdfrwt beam="2">  1       -2 0.18656233E-02 0.14688496E+03</pdfrwt>
<totfact> 0.11789513E+04</totfact>
</mgrwt>
</event>
<event>
 7    1  0.5928109E-006  0.1407258E+03  0.7546771E-02  0.1223627E+00
         -2   -1    0    0    0  501 -0.00000000000E+00  0.00000000000E+00  0.19686132291E+02  0.19686132291E+02  0.00000000000E+00 0.  1.
          2   -1    0    0  501    0  0.00000000000E+00 -0.00000000000E+00 -0.80518776174E+03  0.80518776174E+03  0.00000000000E+00 0. -1.
         23    2    1    2    0    0 -0.63889795480E+02 -0.98513093260E+01 -0.42776840552E+03  0.45032162868E+03  0.12499922492E+03 0.  0.
          5    1    3    3  502    0  0.82000837817E+01 -0.22910732802E+01  0.53873173354E+01  0.11117714643E+02  0.47000000000E+01 0.  1.
         -5    1    3    3    0  502 -0.72089879261E+02 -0.75602360459E+01 -0.43315572286E+03  0.43920391404E+03  0.47000000000E+01 0.  1.
        -11    1    1    2    0    0  0.60038252659E+02 -0.28751016768E+02 -0.16440695974E+03  0.17737209803E+03  0.00000000000E+00 0. -1.
         11    1    1    2    0    0  0.38515428212E+01  0.38602326094E+02 -0.19332626418E+03  0.19718016732E+03  0.00000000000E+00 0.  1.
<mgrwt>
<rscale>  0 0.13261437E+03</rscale>
<asrwt>0</asrwt>
<pdfrwt beam="2">  1        2 0.12387506E+00 0.14072583E+03</pdfrwt>
<pdfrwt beam="1">  1       -2 0.30286353E-02 0.14072583E+03</pdfrwt>
<totfact> 0.14057086E+04</totfact>
</mgrwt>
</event>
<event>
 7    1  0.5928109E-006  0.1337504E+03  0.7546771E-02  0.1234842E+00
          2   -1    0    0  501    0  0.00000000000E+00  0.00000000000E+00  0.12974861964E+04  0.12974861964E+04  0.00000000000E+00 0. -1.
         -2   -1    0    0    0  501 -0.00000000000E+00 -0.00000000000E+00 -0.11652697266E+02  0.11652697266E+02  0.00000000000E+00 0.  1.
         23    2    1    2    0    0  0.34806778717E+02  0.32436556890E+02  0.90153336946E+03  0.91140089811E+03  0.12500215500E+03 0.  0.
          5    1    3    3  502    0 -0.44954627416E+02  0.26756735627E+02  0.30093548244E+03  0.30548501767E+03  0.47000000000E+01 0.  1.
         -5    1    3    3    0  502  0.79761406133E+02  0.56798212631E+01  0.60059788702E+03  0.60591588044E+03  0.47000000000E+01 0.  1.
        -11    1    1    2    0    0 -0.24074349822E+02  0.24498087418E+02  0.68075132187E+02  0.76249290022E+02  0.00000000000E+00 0.  1.
         11    1    1    2    0    0 -0.10732428895E+02 -0.56934644308E+02  0.31622499748E+03  0.32148870553E+03  0.00000000000E+00 0. -1.
<mgrwt>
<rscale>  0 0.12514578E+03</rscale>
<asrwt>0</asrwt>
<pdfrwt beam="1">  1        2 0.19961315E+00 0.13375044E+03</pdfrwt>
<pdfrwt beam="2">  1       -2 0.17927237E-02 0.13375044E+03</pdfrwt>
<totfact> 0.15405003E+04</totfact>
</mgrwt>
</event>
<event>
 7    1  0.5928109E-006  0.1220840E+03  0.7546771E-02  0.1247477E+00
         -2   -1    0    0    0  501 -0.00000000000E+00  0.00000000000E+00  0.34365348502E+02  0.34365348502E+02  0.00000000000E+00 0.  1.
          2   -1    0    0  501    0  0.00000000000E+00 -0.00000000000E+00 -0.13732112989E+04  0.13732112989E+04  0.00000000000E+00 0. -1.
         23    2    1    2    0    0  0.36292937840E+02 -0.34617645473E+02 -0.12838290593E+04  0.12896207044E+04  0.11130565551E+03 0.  0.
          5    1    3    3  502    0 -0.12730898040E+02 -0.47776159908E+02 -0.10012112166E+04  0.10024423312E+04  0.47000000000E+01 0. -1.
         -5    1    3    3    0  502  0.49023835880E+02  0.13158514436E+02 -0.28261784276E+03  0.28717837319E+03  0.47000000000E+01 0.  1.
        -11    1    1    2    0    0  0.27603245631E+02  0.28472833606E+02 -0.15509980182E+02  0.42581696868E+02  0.00000000000E+00 0.  1.
         11    1    1    2    0    0 -0.63896183470E+02  0.61448118666E+01 -0.39506910940E+02  0.75374246179E+02  0.00000000000E+00 0. -1.
<mgrwt>
<rscale>  0 0.11738332E+03</rscale>
<asrwt>0</asrwt>
<pdfrwt beam="2">  1        2 0.21126324E+00 0.12208402E+03</pdfrwt>
<pdfrwt beam="1">  1       -2 0.52869775E-02 0.12208402E+03</pdfrwt>
<totfact> 0.28511381E+03</totfact>
</mgrwt>
</event>
<event>
 7    1  0.5928109E-006  0.1380670E+03  0.7546771E-02  0.1228244E+00
          2   -1    0    0  501    0  0.00000000000E+00  0.00000000000E+00  0.15817733778E+03  0.15817733778E+03  0.00000000000E+00 0. -1.
         -2   -1    0    0    0  501 -0.00000000000E+00 -0.00000000000E+00 -0.10163136904E+03  0.10163136904E+03  0.00000000000E+00 0.  1.
         23    2    1    2    0    0  0.49719649542E+02 -0.31070401443E+02  0.65219977787E+02  0.15269625291E+03  0.12500034702E+03 0.  0.
          5    1    3    3  502    0 -0.42184331064E+02 -0.11590537467E+02  0.20221585710E+02  0.48423763534E+02  0.47000000000E+01 0. -1.
         -5    1    3    3    0  502  0.91903980607E+02 -0.19479863976E+02  0.44998392076E+02  0.10427248938E+03  0.47000000000E+01 0. -1.
        -11    1    1    2    0    0 -0.19242250197E+02  0.28888668520E+02 -0.46791221567E+02  0.58260087343E+02  0.00000000000E+00 0.  1.
         11    1    1    2    0    0 -0.30477399345E+02  0.21817329232E+01  0.38117212513E+02  0.48852366567E+02  0.00000000000E+00 0. -1.
<mgrwt>
<rscale>  0 0.12947033E+03</rscale>
<asrwt>0</asrwt>
<pdfrwt beam="1">  1        2 0.24334975E-01 0.13806701E+03</pdfrwt>
<pdfrwt beam="2">  1       -2 0.15635595E-01 0.13806701E+03</pdfrwt>
<totfact> 0.67313742E+03</totfact>
</mgrwt>
</event>
<event>
 7    1  0.5928109E-006  0.1474602E+03  0.7546771E-02  0.1212890E+00
          2   -1    0    0  501    0  0.00000000000E+00  0.00000000000E+00  0.94839596768E+02  0.94839596768E+02  0.00000000000E+00 0. -1.
         -2   -1    0    0    0  501 -0.00000000000E+00 -0.00000000000E+00 -0.19454233631E+03  0.19454233631E+03  0.00000000000E+00 0.  1.
         23    2    1    2    0    0 -0.68095596054E+02  0.38492411875E+02 -0.32374646541E+02  0.15097229594E+03  0.12500336166E+03 0.  0.
          5    1    3    3  502    0 -0.10339297020E+03  0.16949147473E+02 -0.15305084734E+02  0.10598922353E+03  0.47000000000E+01 0.  1.
         -5    1    3    3    0  502  0.35297374143E+02  0.21543264403E+02 -0.17069561808E+02  0.44983072403E+02  0.47000000000E+01 0.  1.
        -11    1    1    2    0    0  0.25759594256E+02 -0.18473755269E+02  0.21285541417E+02  0.38182595556E+02  0.00000000000E+00 0. -1.
         11    1    1    2    0    0  0.42336001798E+02 -0.20018656607E+02 -0.88613634415E+02  0.10022704158E+03  0.00000000000E+00 0.  1.
<mgrwt>
<rscale>  0 0.14032660E+03</rscale>
<asrwt>0</asrwt>
<pdfrwt beam="1">  1        2 0.14590707E-01 0.14746022E+03</pdfrwt>
<pdfrwt beam="2">  1       -2 0.29929590E-01 0.14746022E+03</pdfrwt>
<totfact> 0.39790643E+03</totfact>
</mgrwt>
</event>
<event>
 7    1  0.5928109E-006  0.1395861E+03  0.7546771E-02  0.1225014E+00
         -2   -1    0    0    0  501 -0.00000000000E+00  0.00000000000E+00  0.15413757992E+02  0.15413757992E+02  0.00000000000E+00 0.  1.
          2   -1    0    0  501    0  0.00000000000E+00 -0.00000000000E+00 -0.13090379531E+04  0.13090379531E+04  0.00000000000E+00 0. -1.
         23    2    1    2    0    0  0.58194566108E+02 -0.21763686220E+02 -0.10177603716E+04  0.10272879111E+04  0.12499605038E+03 0.  0.
          5    1    3    3  502    0  0.10870935072E+02 -0.68488851493E+02 -0.63179861581E+03  0.63561032162E+03  0.47000000000E+01 0. -1.
         -5    1    3    3    0  502  0.47323631036E+02  0.46725165273E+02 -0.38596175583E+03  0.39167758946E+03  0.47000000000E+01 0. -1.
        -11    1    1    2    0    0 -0.58174056624E+01  0.11636757561E+02  0.29101513673E+01  0.13331365877E+02  0.00000000000E+00 0.  1.
         11    1    1    2    0    0 -0.52377160445E+02  0.10126928659E+02 -0.27877397483E+03  0.28383243413E+03  0.00000000000E+00 0. -1.
<mgrwt>
<rscale>  0 0.13165912E+03</rscale>
<asrwt>0</asrwt>
<pdfrwt beam="2">  1        2 0.20139056E+00 0.13958610E+03</pdfrwt>
<pdfrwt beam="1">  1       -2 0.23713462E-02 0.13958610E+03</pdfrwt>
<totfact> 0.10135851E+04</totfact>
</mgrwt>
</event>
<event>
 7    1  0.5928109E-006  0.1696746E+03  0.7546771E-02  0.1184382E+00
          2   -1    0    0  501    0  0.00000000000E+00  0.00000000000E+00  0.18879133827E+04  0.18879133827E+04  0.00000000000E+00 0. -1.
         -2   -1    0    0    0  501 -0.00000000000E+00 -0.00000000000E+00 -0.17121565613E+02  0.17121565613E+02  0.00000000000E+00 0.  1.
         23    2    1    2    0    0 -0.71081457898E+02  0.91273900683E+02  0.14330053228E+04  0.14430154958E+04  0.12412077675E+03 0.  0.
          5    1    3    3  502    0 -0.85983455777E+02  0.67058578312E+02  0.62233007667E+03  0.63182815854E+03  0.47000000000E+01 0. -1.
         -5    1    3    3    0  502  0.14901997879E+02  0.24215322371E+02  0.81067524616E+03  0.81118733725E+03  0.47000000000E+01 0. -1.
        -11    1    1    2    0    0  0.33152486195E+02 -0.71227308076E+02  0.38985677724E+03  0.39769425884E+03  0.00000000000E+00 0. -1.
         11    1    1    2    0    0  0.37928971703E+02 -0.20046592607E+02  0.47929717037E+02  0.64325193702E+02  0.00000000000E+00 0.  1.
<mgrwt>
<rscale>  0 0.16388229E+03</rscale>
<asrwt>0</asrwt>
<pdfrwt beam="1">  1        2 0.29044805E+00 0.16967459E+03</pdfrwt>
<pdfrwt beam="2">  1       -2 0.26340885E-02 0.16967459E+03</pdfrwt>
<totfact> 0.43604067E+03</totfact>
</mgrwt>
</event>
<event>
 7    1  0.5928109E-006  0.1252460E+03  0.7546771E-02  0.1251229E+00
         -1   -1    0    0    0  501 -0.00000000000E+00  0.00000000000E+00  0.10089773090E+03  0.10089773090E+03  0.00000000000E+00 0.  1.
          1   -1    0    0  501    0  0.00000000000E+00 -0.00000000000E+00 -0.16346027188E+03  0.16346027188E+03  0.00000000000E+00 0. -1.
         23    2    1    2    0    0 -0.85531099438E+00  0.78341404175E+01 -0.10660669473E+03  0.16447353528E+03  0.12499780452E+03 0.  0.
          5    1    3    3  502    0 -0.28118115962E+02 -0.50619866811E+02 -0.66823553744E+02  0.88546466311E+02  0.47000000000E+01 0. -1.
         -5    1    3    3    0  502  0.27262804968E+02  0.58454007228E+02 -0.39783140987E+02  0.75927068971E+02  0.47000000000E+01 0. -1.
        -11    1    1    2    0    0  0.23205626075E+02 -0.39240649832E+02  0.64548620677E+01  0.46043402623E+02  0.00000000000E+00 0. -1.
         11    1    1    2    0    0 -0.22350315081E+02  0.31406509415E+02  0.37589291681E+02  0.53841064875E+02  0.00000000000E+00 0.  1.
<mgrwt>
<rscale>  0 0.11520192E+03</rscale>
<asrwt>0</asrwt>
<pdfrwt beam="2">  1        1 0.25147734E-01 0.12524598E+03</pdfrwt>
<pdfrwt beam="1">  1       -1 0.15522728E-01 0.12524598E+03</pdfrwt>
<totfact> 0.54794461E+03</totfact>
</mgrwt>
</event>
<event>
 7    1  0.5928109E-006  0.1350481E+03  0.7546771E-02  0.1231891E+00
         -2   -1    0    0    0  501 -0.00000000000E+00  0.00000000000E+00  0.65606878592E+02  0.65606878592E+02  0.00000000000E+00 0.  1.
          2   -1    0    0  501    0  0.00000000000E+00 -0.00000000000E+00 -0.23840168997E+03  0.23840168997E+03  0.00000000000E+00 0. -1.
         23    2    1    2    0    0  0.29683338788E+02  0.41642304114E+02 -0.13684511211E+03  0.19226174202E+03  0.12499124226E+03 0.  0.
          5    1    3    3  502    0 -0.28650584733E+02 -0.16236793207E+02 -0.93489649898E+02  0.99231517661E+02  0.47000000000E+01 0. -1.
         -5    1    3    3    0  502  0.58333923520E+02  0.57879097321E+02 -0.43355462212E+02  0.93030224355E+02  0.47000000000E+01 0. -1.
        -11    1    1    2    0    0 -0.52376181564E+02 -0.56768896625E+02 -0.18679886415E+02  0.79466409103E+02  0.00000000000E+00 0. -1.
         11    1    1    2    0    0  0.22692842776E+02  0.15126592511E+02 -0.17269812850E+02  0.32280417441E+02  0.00000000000E+00 0.  1.
<mgrwt>
<rscale>  0 0.12705573E+03</rscale>
<asrwt>0</asrwt>
<pdfrwt beam="2">  1        2 0.36677183E-01 0.13504811E+03</pdfrwt>
<pdfrwt beam="1">  1       -2 0.10093366E-01 0.13504811E+03</pdfrwt>
<totfact> 0.86939440E+03</totfact>
</mgrwt>
</event>
<event>
 7    1  0.5928109E-006  0.1385001E+03  0.7546771E-02  0.1226402E+00
          2   -1    0    0  501    0  0.00000000000E+00  0.00000000000E+00  0.61566072298E+03  0.61566072298E+03  0.00000000000E+00 0.  1.
         -2   -1    0    0    0  501 -0.00000000000E+00 -0.00000000000E+00 -0.25078377597E+02  0.25078377597E+02  0.00000000000E+00 0. -1.
         23    2    1    2    0    0 -0.50061602462E+02 -0.32407770129E+02  0.33967283161E+03  0.36682409142E+03  0.12500341559E+03 0.  0.
          5    1    3    3  502    0 -0.19742790325E+02 -0.32418586199E+02  0.15606332156E+02  0.41308474970E+02  0.47000000000E+01 0.  1.
         -5    1    3    3    0  502 -0.30318812137E+02  0.10816069759E-01  0.32406649945E+03  0.32551561645E+03  0.47000000000E+01 0.  1.
        -11    1    1    2    0    0  0.17163900715E+02  0.58427432439E+02  0.19322132880E+03  0.20259034096E+03  0.00000000000E+00 0.  1.
         11    1    1    2    0    0  0.32897701747E+02 -0.26019662310E+02  0.57688184976E+02  0.71324668193E+02  0.00000000000E+00 0. -1.
<mgrwt>
<rscale>  0 0.13071286E+03</rscale>
<asrwt>0</asrwt>
<pdfrwt beam="1">  1        2 0.94717023E-01 0.13850011E+03</pdfrwt>
<pdfrwt beam="2">  1       -2 0.38582124E-02 0.13850011E+03</pdfrwt>
<totfact> 0.13523028E+04</totfact>
</mgrwt>
</event>
<event>
 7    1  0.5928109E-006  0.1335983E+03  0.7546771E-02  0.1235376E+00
          1   -1    0    0  501    0  0.00000000000E+00  0.00000000000E+00  0.52399298251E+03  0.52399298251E+03  0.00000000000E+00 0. -1.
         -1   -1    0    0    0  501 -0.00000000000E+00 -0.00000000000E+00 -0.27428033807E+02  0.27428033807E+02  0.00000000000E+00 0.  1.
         23    2    1    2    0    0  0.35784648427E+02 -0.30689496590E+02  0.33291272117E+03  0.35871909769E+03  0.12500449940E+03 0.  0.
          5    1    3    3  502    0  0.67464952095E+02 -0.24243964159E+02  0.31145412490E+03  0.31963268212E+03  0.47000000000E+01 0. -1.
         -5    1    3    3    0  502 -0.31680303668E+02 -0.64455324315E+01  0.21458596268E+02  0.39086415577E+02  0.47000000000E+01 0. -1.
        -11    1    1    2    0    0  0.14150232923E+02 -0.16165332955E+02  0.88336109571E+02  0.90911029779E+02  0.00000000000E+00 0.  1.
         11    1    1    2    0    0 -0.49934881349E+02  0.46854829545E+02  0.75316117965E+02  0.10179088885E+03  0.00000000000E+00 0. -1.
<mgrwt>
<rscale>  0 0.12480405E+03</rscale>
<asrwt>0</asrwt>
<pdfrwt beam="1">  1        1 0.80614298E-01 0.13359832E+03</pdfrwt>
<pdfrwt beam="2">  1       -1 0.42196979E-02 0.13359832E+03</pdfrwt>
<totfact> 0.91759730E+03</totfact>
</mgrwt>
</event>
<event>
 7    1  0.5928109E-006  0.1651912E+03  0.7546771E-02  0.1190150E+00
          2   -1    0    0  501    0  0.00000000000E+00  0.00000000000E+00  0.32996689225E+03  0.32996689225E+03  0.00000000000E+00 0. -1.
         -2   -1    0    0    0  501 -0.00000000000E+00 -0.00000000000E+00 -0.79207393779E+02  0.79207393779E+02  0.00000000000E+00 0.  1.
         23    2    1    2    0    0  0.10673692724E+03 -0.16502159930E+02  0.20026770218E+03  0.25960602296E+03  0.12499216656E+03 0.  0.
          5    1    3    3  502    0  0.11554205957E+03  0.25477294144E+02  0.16884438853E+03  0.20622700498E+03  0.47000000000E+01 0. -1.
         -5    1    3    3    0  502 -0.88051323225E+01 -0.41979454074E+02  0.31423313652E+02  0.53379017979E+02  0.47000000000E+01 0. -1.
        -11    1    1    2    0    0 -0.33852956297E+01  0.30762541421E+02  0.30280391870E+02  0.43297763372E+02  0.00000000000E+00 0.  1.
         11    1    1    2    0    0 -0.10335163161E+03 -0.14260381490E+02  0.20211404423E+02  0.10627049970E+03  0.00000000000E+00 0. -1.
<mgrwt>
<rscale>  0 0.15871996E+03</rscale>
<asrwt>0</asrwt>
<pdfrwt beam="1">  1        2 0.50764137E-01 0.16519121E+03</pdfrwt>
<pdfrwt beam="2">  1       -2 0.12185753E-01 0.16519121E+03</pdfrwt>
<totfact> 0.46160718E+03</totfact>
</mgrwt>
</event>
<event>
 7    1  0.5928109E-006  0.1565726E+03  0.7546771E-02  0.1200512E+00
         -2   -1    0    0    0  501 -0.00000000000E+00  0.00000000000E+00  0.29327385078E+02  0.29327385078E+02  0.00000000000E+00 0.  1.
          2   -1    0    0  501    0  0.00000000000E+00 -0.00000000000E+00 -0.80105827044E+03  0.80105827044E+03  0.00000000000E+00 0. -1.
         23    2    1    2    0    0  0.90766715880E+02 -0.25518229717E+02 -0.55566617468E+03  0.57730397734E+03  0.12500083123E+03 0.  0.
          5    1    3    3  502    0  0.45154303709E+02  0.33858536976E+02 -0.95243863024E+02  0.11080972481E+03  0.47000000000E+01 0. -1.
         -5    1    3    3    0  502  0.45612412170E+02 -0.59376766693E+02 -0.46042231166E+03  0.46649425252E+03  0.47000000000E+01 0. -1.
        -11    1    1    2    0    0 -0.18682015127E+02 -0.23620385117E+02 -0.14452165338E+02  0.33403672930E+02  0.00000000000E+00 0.  1.
         11    1    1    2    0    0 -0.72084700753E+02  0.49138614834E+02 -0.20161254534E+03  0.21967800525E+03  0.00000000000E+00 0. -1.
<mgrwt>
<rscale>  0 0.14996866E+03</rscale>
<asrwt>0</asrwt>
<pdfrwt beam="2">  1        2 0.12323974E+00 0.15657262E+03</pdfrwt>
<pdfrwt beam="1">  1       -2 0.45119053E-02 0.15657262E+03</pdfrwt>
<totfact> 0.78778948E+03</totfact>
</mgrwt>
</event>
<event>
 7    1  0.5928109E-006  0.1256021E+03  0.7546771E-02  0.1249196E+00
         -1   -1    0    0    0  501 -0.00000000000E+00  0.00000000000E+00  0.43163749173E+02  0.43163749173E+02  0.00000000000E+00 0.  1.
          1   -1    0    0  501    0  0.00000000000E+00 -0.00000000000E+00 -0.31216212213E+03  0.31216212213E+03  0.00000000000E+00 0. -1.
         23    2    1    2    0    0  0.11207656978E+02  0.49822346315E+01 -0.21258887790E+03  0.24692086409E+03  0.12500179152E+03 0.  0.
          5    1    3    3  502    0  0.43709407381E+01 -0.59750444262E+02 -0.10964189444E+03  0.12503061917E+03  0.47000000000E+01 0. -1.
         -5    1    3    3    0  502  0.68367162400E+01  0.64732678894E+02 -0.10294698345E+03  0.12189024493E+03  0.47000000000E+01 0. -1.
        -11    1    1    2    0    0  0.28613098184E+02  0.28283412015E+02 -0.19362271711E+02  0.44649281614E+02  0.00000000000E+00 0.  1.
         11    1    1    2    0    0 -0.39820755162E+02 -0.33265646646E+02 -0.37047223348E+02  0.63755725596E+02  0.00000000000E+00 0. -1.
<mgrwt>
<rscale>  0 0.11637717E+03</rscale>
<asrwt>0</asrwt>
<pdfrwt beam="2">  1        1 0.48024943E-01 0.12560208E+03</pdfrwt>
<pdfrwt beam="1">  1       -1 0.66405766E-02 0.12560208E+03</pdfrwt>
<totfact> 0.89916200E+03</totfact>
</mgrwt>
</event>
<event>
 7    1  0.5928109E-006  0.1350526E+03  0.7546771E-02  0.1233513E+00
         -1   -1    0    0    0  501 -0.00000000000E+00  0.00000000000E+00  0.18975544180E+02  0.18975544180E+02  0.00000000000E+00 0.  1.
          1   -1    0    0  501    0  0.00000000000E+00 -0.00000000000E+00 -0.74318926524E+03  0.74318926524E+03  0.00000000000E+00 0. -1.
         23    2    1    2    0    0  0.13902338339E+02  0.49543212914E+02 -0.42437476252E+03  0.44534610678E+03  0.12486557093E+03 0.  0.
          5    1    3    3  502    0  0.28334386455E+02 -0.12882875719E+02 -0.23312894421E+02  0.39171252072E+02  0.47000000000E+01 0.  1.
         -5    1    3    3    0  502 -0.14432048117E+02  0.62426088634E+02 -0.40106186810E+03  0.40617485471E+03  0.47000000000E+01 0.  1.
        -11    1    1    2    0    0  0.30445486950E+02  0.59126088717E+01 -0.80258990124E+02  0.86042966679E+02  0.00000000000E+00 0.  1.
         11    1    1    2    0    0 -0.44347825288E+02 -0.55455821786E+02 -0.21957996842E+03  0.23077573596E+03  0.00000000000E+00 0. -1.
<mgrwt>
<rscale>  0 0.12600107E+03</rscale>
<asrwt>0</asrwt>
<pdfrwt beam="2">  1        1 0.11433681E+00 0.13505264E+03</pdfrwt>
<pdfrwt beam="1">  1       -1 0.29193145E-02 0.13505264E+03</pdfrwt>
<totfact> 0.97145278E+03</totfact>
</mgrwt>
</event>
<event>
 7    1  0.5928109E-006  0.1282427E+03  0.7546771E-02  0.1244256E+00
         -1   -1    0    0    0  501 -0.00000000000E+00  0.00000000000E+00  0.56278701955E+02  0.56278701955E+02  0.00000000000E+00 0.  1.
          1   -1    0    0  501    0  0.00000000000E+00 -0.00000000000E+00 -0.30470030617E+03  0.30470030617E+03  0.00000000000E+00 0. -1.
         23    2    1    2    0    0 -0.26257771132E+02 -0.14872818122E+02 -0.22977809056E+03  0.26314287682E+03  0.12464161206E+03 0.  0.
          5    1    3    3  502    0  0.49213569205E+02 -0.13839276889E+02 -0.11155689300E+03  0.12280281493E+03  0.47000000000E+01 0. -1.
         -5    1    3    3    0  502 -0.75471340337E+02 -0.10335412329E+01 -0.11822119755E+03  0.14034006189E+03  0.47000000000E+01 0. -1.
        -11    1    1    2    0    0 -0.12913677421E+00  0.13946325871E+02 -0.52830433115E+02  0.54640381997E+02  0.00000000000E+00 0. -1.
         11    1    1    2    0    0  0.26386907906E+02  0.92649225099E+00  0.34186919454E+02  0.43195749311E+02  0.00000000000E+00 0.  1.
<mgrwt>
<rscale>  0 0.11930028E+03</rscale>
<asrwt>0</asrwt>
<pdfrwt beam="2">  1        1 0.46876969E-01 0.12824275E+03</pdfrwt>
<pdfrwt beam="1">  1       -1 0.86582621E-02 0.12824275E+03</pdfrwt>
<totfact> 0.62283053E+03</totfact>
</mgrwt>
</event>
<event>
 7    1  0.5928109E-006  0.1931847E+03  0.7546771E-02  0.1160202E+00
          2   -1    0    0  501    0  0.00000000000E+00  0.00000000000E+00  0.31611689584E+04  0.31611689584E+04  0.00000000000E+00 0. -1.
         -2   -1    0    0    0  501 -0.00000000000E+00 -0.00000000000E+00 -0.22641662573E+02  0.22641662573E+02  0.00000000000E+00 0.  1.
         23    2    1    2    0    0 -0.13429151361E+03 -0.60520604412E+02  0.27670286440E+04  0.27737642001E+04  0.12499346590E+03 0.  0.
          5    1    3    3  502    0 -0.60850498735E+02 -0.79081212008E+02  0.21105976454E+04  0.21129602770E+04  0.47000000000E+01 0. -1.
         -5    1    3    3    0  502 -0.73441014871E+02  0.18560607595E+02  0.65643099863E+03  0.66080392310E+03  0.47000000000E+01 0. -1.
        -11    1    1    2    0    0 -0.97236798234E+01  0.17857178164E+02  0.74530089237E+02  0.77253886394E+02  0.00000000000E+00 0.  1.
         11    1    1    2    0    0  0.14401519343E+03  0.42663426248E+02  0.29696856257E+03  0.33279253452E+03  0.00000000000E+00 0. -1.
<mgrwt>
<rscale>  0 0.18808262E+03</rscale>
<asrwt>0</asrwt>
<pdfrwt beam="1">  1        2 0.48633334E+00 0.19318468E+03</pdfrwt>
<pdfrwt beam="2">  1       -2 0.34833352E-02 0.19318468E+03</pdfrwt>
<totfact> 0.57642279E+02</totfact>
</mgrwt>
</event>
<event>
 7    1  0.5928109E-006  0.1310695E+03  0.7546771E-02  0.1239933E+00
          1   -1    0    0  501    0  0.00000000000E+00  0.00000000000E+00  0.21247493082E+03  0.21247493082E+03  0.00000000000E+00 0.  1.
         -1   -1    0    0    0  501 -0.00000000000E+00 -0.00000000000E+00 -0.79583557070E+02  0.79583557070E+02  0.00000000000E+00 0. -1.
         23    2    1    2    0    0  0.32461852503E+02 -0.21895301809E+02  0.14224780910E+03  0.19342608714E+03  0.12508411524E+03 0.  0.
          5    1    3    3  502    0 -0.23690764700E+02 -0.40196060024E+02  0.92068084825E+01  0.47789443353E+02  0.47000000000E+01 0. -1.
         -5    1    3    3    0  502  0.56152617204E+02  0.18300758214E+02  0.13304100061E+03  0.14563664379E+03  0.47000000000E+01 0. -1.
        -11    1    1    2    0    0 -0.42727532935E+02 -0.25424061017E+02 -0.31975788955E+01  0.49822178396E+02  0.00000000000E+00 0.  1.
         11    1    1    2    0    0  0.10265680431E+02  0.47319362826E+02 -0.61588564540E+01  0.48810222350E+02  0.00000000000E+00 0. -1.
<mgrwt>
<rscale>  0 0.12193837E+03</rscale>
<asrwt>0</asrwt>
<pdfrwt beam="1">  1        1 0.32688451E-01 0.13106949E+03</pdfrwt>
<pdfrwt beam="2">  1       -1 0.12243624E-01 0.13106949E+03</pdfrwt>
<totfact> 0.57357374E+03</totfact>
</mgrwt>
</event>
<event>
 6    1  0.5928109E-006  0.1810491E+03  0.7546771E-02  0.1195286E+00
         -1   -1    0    0    0  501 -0.00000000000E+00  0.00000000000E+00  0.29402364372E+02  0.29402364372E+02  0.00000000000E+00 0.  1.
          1   -1    0    0  501    0  0.00000000000E+00 -0.00000000000E+00 -0.17809493655E+04  0.17809493655E+04  0.00000000000E+00 0. -1.
          5    1    1    2  502    0 -0.79550173525E+02 -0.16195955664E+02 -0.92460820547E+03  0.92817722592E+03  0.47000000000E+01 0. -1.
         -5    1    1    2    0  502  0.83184519097E+02  0.49106174368E+02 -0.75857123992E+03  0.76471138124E+03  0.47000000000E+01 0.  1.
        -11    1    1    2    0    0 -0.13532388112E+02  0.20143229139E+02 -0.57499995951E+02  0.62410934479E+02  0.00000000000E+00 0. -1.
         11    1    1    2    0    0  0.98980425396E+01 -0.53053447843E+02 -0.10867559801E+02  0.55052188241E+02  0.00000000000E+00 0.  1.
<mgrwt>
<rscale>  0 0.15430049E+03</rscale>
<asrwt>0</asrwt>
<pdfrwt beam="2">  1        1 0.27399217E+00 0.18104914E+03</pdfrwt>
<pdfrwt beam="1">  1       -1 0.45234413E-02 0.18104914E+03</pdfrwt>
<totfact> 0.96600682E+02</totfact>
</mgrwt>
</event>
<event>
 7    1  0.5928109E-006  0.1262406E+03  0.7546771E-02  0.1247974E+00
         -2   -1    0    0    0  501 -0.00000000000E+00  0.00000000000E+00  0.13621540147E+02  0.13621540147E+02  0.00000000000E+00 0.  1.
          2   -1    0    0  501    0  0.00000000000E+00 -0.00000000000E+00 -0.88575236167E+03  0.88575236167E+03  0.00000000000E+00 0. -1.
         23    2    1    2    0    0  0.17321696277E+02 -0.36680189175E+01 -0.50553331273E+03  0.52105720674E+03  0.12499274736E+03 0.  0.
          5    1    3    3  502    0 -0.22311419006E+02  0.42477121620E+02 -0.10061844955E+03  0.11157180499E+03  0.47000000000E+01 0. -1.
         -5    1    3    3    0  502  0.39633115283E+02 -0.46145140538E+02 -0.40491486318E+03  0.40948540175E+03  0.47000000000E+01 0. -1.
        -11    1    1    2    0    0 -0.46513048673E+02  0.27165329237E+02 -0.25394960263E+03  0.25959934416E+03  0.00000000000E+00 0. -1.
         11    1    1    2    0    0  0.29191352396E+02 -0.23497310319E+02 -0.11264790616E+03  0.11871735092E+03  0.00000000000E+00 0.  1.
<mgrwt>
<rscale>  0 0.11709132E+03</rscale>
<asrwt>0</asrwt>
<pdfrwt beam="2">  1        2 0.13626960E+00 0.12624057E+03</pdfrwt>
<pdfrwt beam="1">  1       -2 0.20956215E-02 0.12624057E+03</pdfrwt>
<totfact> 0.21156829E+04</totfact>
</mgrwt>
</event>
<event>
 7    1  0.5928109E-006  0.1502144E+03  0.7546771E-02  0.1209300E+00
         -2   -1    0    0    0  501 -0.00000000000E+00  0.00000000000E+00  0.19164074300E+02  0.19164074300E+02  0.00000000000E+00 0.  1.
          2   -1    0    0  501    0  0.00000000000E+00 -0.00000000000E+00 -0.11739095181E+04  0.11739095181E+04  0.00000000000E+00 0. -1.
         23    2    1    2    0    0  0.96829722468E+01 -0.82736533865E+02 -0.86744349690E+03  0.88035366972E+03  0.12500107794E+03 0.  0.
          5    1    3    3  502    0 -0.18556996999E+02 -0.10238822482E+03 -0.47039484445E+03  0.48178948764E+03  0.47000000000E+01 0. -1.
         -5    1    3    3    0  502  0.28239969246E+02  0.19651690954E+02 -0.39704865245E+03  0.39856418207E+03  0.47000000000E+01 0. -1.
        -11    1    1    2    0    0 -0.16282903679E+02 -0.10625653282E+02 -0.14345232565E+02  0.24162432767E+02  0.00000000000E+00 0.  1.
         11    1    1    2    0    0  0.65999314319E+01  0.93362187146E+02 -0.27295671430E+03  0.28855748988E+03  0.00000000000E+00 0. -1.
<mgrwt>
<rscale>  0 0.14303659E+03</rscale>
<asrwt>0</asrwt>
<pdfrwt beam="2">  1        2 0.18060150E+00 0.15021439E+03</pdfrwt>
<pdfrwt beam="1">  1       -2 0.29483185E-02 0.15021439E+03</pdfrwt>
<totfact> 0.87668662E+03</totfact>
</mgrwt>
</event>
<event>
 7    1  0.5928109E-006  0.2264946E+03  0.7546771E-02  0.1134226E+00
         -1   -1    0    0    0  501 -0.00000000000E+00  0.00000000000E+00  0.79787964168E+02  0.79787964168E+02  0.00000000000E+00 0.  1.
          1   -1    0    0  501    0  0.00000000000E+00 -0.00000000000E+00 -0.62821621844E+03  0.62821621844E+03  0.00000000000E+00 0. -1.
         23    2    1    2    0    0  0.17575976797E+03 -0.69186405777E+02 -0.39749365479E+03  0.45749428827E+03  0.12498625293E+03 0.  0.
          5    1    3    3  502    0  0.17488484973E+03 -0.69231904839E+02 -0.26546471085E+03  0.32537881003E+03  0.47000000000E+01 0. -1.
         -5    1    3    3    0  502  0.87491823970E+00  0.45499062468E-01 -0.13202894394E+03  0.13211547824E+03  0.47000000000E+01 0. -1.
        -11    1    1    2    0    0 -0.18238451307E+02  0.30519777426E+02 -0.42470275996E+02  0.55387925249E+02  0.00000000000E+00 0. -1.
         11    1    1    2    0    0 -0.15752131666E+03  0.38666628351E+02 -0.10846432348E+03  0.19512196908E+03  0.00000000000E+00 0.  1.
<mgrwt>
<rscale>  0 0.21954097E+03</rscale>
<asrwt>0</asrwt>
<pdfrwt beam="2">  1        1 0.96648650E-01 0.22649463E+03</pdfrwt>
<pdfrwt beam="1">  1       -1 0.12275071E-01 0.22649463E+03</pdfrwt>
<totfact> 0.14547155E+03</totfact>
</mgrwt>
</event>
<event>
 7    1  0.5928109E-006  0.1450325E+03  0.7546771E-02  0.1217233E+00
          2   -1    0    0  501    0  0.00000000000E+00  0.00000000000E+00  0.67200278053E+02  0.67200278053E+02  0.00000000000E+00 0. -1.
         -2   -1    0    0    0  501 -0.00000000000E+00 -0.00000000000E+00 -0.26338555729E+03  0.26338555729E+03  0.00000000000E+00 0.  1.
         23    2    1    2    0    0 -0.70901207260E+02  0.19529994487E+02 -0.76571982992E+02  0.16400517070E+03  0.12500410218E+03 0.  0.
          5    1    3    3  502    0 -0.28670112258E+02 -0.53256679464E+02 -0.29290540746E+02  0.67366720431E+02  0.47000000000E+01 0. -1.
         -5    1    3    3    0  502 -0.42231095002E+02  0.72786673952E+02 -0.47281442245E+02  0.96638450271E+02  0.47000000000E+01 0. -1.
        -11    1    1    2    0    0  0.58481512002E+02 -0.45810731792E+02 -0.11535039707E+03  0.13720213008E+03  0.00000000000E+00 0.  1.
         11    1    1    2    0    0  0.12419695258E+02  0.26280737305E+02 -0.42628991728E+01  0.29378534561E+02  0.00000000000E+00 0. -1.
<mgrwt>
<rscale>  0 0.13713746E+03</rscale>
<asrwt>0</asrwt>
<pdfrwt beam="1">  1        2 0.10338504E-01 0.14503250E+03</pdfrwt>
<pdfrwt beam="2">  1       -2 0.40520854E-01 0.14503250E+03</pdfrwt>
<totfact> 0.34345407E+03</totfact>
</mgrwt>
</event>
<event>
 7    1  0.5928109E-006  0.1453848E+03  0.7546771E-02  0.1216426E+00
          4   -1    0    0  501    0  0.00000000000E+00  0.00000000000E+00  0.88605861256E+02  0.88605861256E+02  0.00000000000E+00 0. -1.
         -4   -1    0    0    0  501 -0.00000000000E+00 -0.00000000000E+00 -0.21677262909E+03  0.21677262909E+03  0.00000000000E+00 0.  1.
         23    2    1    2    0    0 -0.65768529151E+02  0.34443086621E+02 -0.21441756298E+02  0.14695741995E+03  0.12499963489E+03 0.  0.
          5    1    3    3  502    0 -0.10314704586E+03  0.22005062658E+02 -0.12713217438E+02  0.10633556202E+03  0.47000000000E+01 0. -1.
         -5    1    3    3    0  502  0.37378516705E+02  0.12438023963E+02 -0.87285388598E+01  0.40621857931E+02  0.47000000000E+01 0. -1.
        -11    1    1    2    0    0  0.40690344769E+02 -0.64170606861E+02 -0.55453654508E+02  0.94067415935E+02  0.00000000000E+00 0.  1.
         11    1    1    2    0    0  0.25078184383E+02  0.29727520240E+02 -0.51271357029E+02  0.64353654466E+02  0.00000000000E+00 0. -1.
<mgrwt>
<rscale>  0 0.13772318E+03</rscale>
<asrwt>0</asrwt>
<pdfrwt beam="1">  1        4 0.13631671E-01 0.14538478E+03</pdfrwt>
<pdfrwt beam="2">  1       -4 0.33349635E-01 0.14538478E+03</pdfrwt>
<totfact> 0.64921531E+02</totfact>
</mgrwt>
</event>
<event>
 7    1  0.5928109E-006  0.1436357E+03  0.7546771E-02  0.1219619E+00
         -2   -1    0    0    0  501 -0.00000000000E+00  0.00000000000E+00  0.29181840076E+03  0.29181840076E+03  0.00000000000E+00 0.  1.
          2   -1    0    0  501    0  0.00000000000E+00 -0.00000000000E+00 -0.66005912261E+02  0.66005912261E+02  0.00000000000E+00 0. -1.
         23    2    1    2    0    0 -0.51690972849E+01 -0.70558954105E+02  0.57290170420E+02  0.15463948313E+03  0.12500368213E+03 0.  0.
          5    1    3    3  502    0  0.38844666623E+02 -0.80656508801E+02  0.61995754820E+02  0.10899515656E+03  0.47000000000E+01 0.  1.
         -5    1    3    3    0  502 -0.44013763908E+02  0.10097554696E+02 -0.47055844003E+01  0.45644326578E+02  0.47000000000E+01 0.  1.
        -11    1    1    2    0    0 -0.71388025786E+01 -0.20144554974E+02  0.40669020310E+02  0.45942734032E+02  0.00000000000E+00 0.  1.
         11    1    1    2    0    0  0.12307899863E+02  0.90703509079E+02  0.12785329777E+03  0.15724209586E+03  0.00000000000E+00 0. -1.
<mgrwt>
<rscale>  0 0.13542672E+03</rscale>
<asrwt>0</asrwt>
<pdfrwt beam="2">  1        2 0.10154756E-01 0.14363567E+03</pdfrwt>
<pdfrwt beam="1">  1       -2 0.44895138E-01 0.14363567E+03</pdfrwt>
<totfact> 0.28824731E+03</totfact>
</mgrwt>
</event>
<event>
 7    1  0.5928109E-006  0.1270825E+03  0.7546771E-02  0.1246814E+00
          2   -1    0    0  501    0  0.00000000000E+00  0.00000000000E+00  0.10773528598E+03  0.10773528598E+03  0.00000000000E+00 0.  1.
         -2   -1    0    0    0  501 -0.00000000000E+00 -0.00000000000E+00 -0.12885350832E+03  0.12885350832E+03  0.00000000000E+00 0. -1.
         23    2    1    2    0    0  0.14431134304E+02 -0.17761593649E+02  0.28909570361E+02  0.13032928904E+03  0.12500491381E+03 0.  0.
          5    1    3    3  502    0 -0.23015513294E+02 -0.76109668077E+01  0.69636041815E+02  0.73884429940E+02  0.47000000000E+01 0. -1.
         -5    1    3    3    0  502  0.37446647598E+02 -0.10150626841E+02 -0.40726471453E+02  0.56444859098E+02  0.47000000000E+01 0. -1.
        -11    1    1    2    0    0  0.38742691667E+02  0.70628785933E+01 -0.23765673654E+02  0.45996604830E+02  0.00000000000E+00 0.  1.
         11    1    1    2    0    0 -0.53173825971E+02  0.10698715056E+02 -0.26262119040E+02  0.60262900434E+02  0.00000000000E+00 0. -1.
<mgrwt>
<rscale>  0 0.11777481E+03</rscale>
<asrwt>0</asrwt>
<pdfrwt beam="1">  1        2 0.16574659E-01 0.12708249E+03</pdfrwt>
<pdfrwt beam="2">  1       -2 0.19823617E-01 0.12708249E+03</pdfrwt>
<totfact> 0.69573046E+03</totfact>
</mgrwt>
</event>
<event>
 7    1  0.5928109E-006  0.1254427E+03  0.7546771E-02  0.1244158E+00
         -1   -1    0    0    0  501 -0.00000000000E+00  0.00000000000E+00  0.10771932213E+02  0.10771932213E+02  0.00000000000E+00 0.  1.
          1   -1    0    0  501    0  0.00000000000E+00 -0.00000000000E+00 -0.12797787560E+04  0.12797787560E+04  0.00000000000E+00 0. -1.
         23    2    1    2    0    0  0.45916829013E+02 -0.72096593115E+01 -0.84467777543E+03  0.85394169379E+03  0.11651410951E+03 0.  0.
          5    1    3    3  502    0  0.60860209256E+02  0.17836664262E+02 -0.78274446089E+03  0.78532355925E+03  0.47000000000E+01 0. -1.
         -5    1    3    3    0  502 -0.14943380243E+02 -0.25046323573E+02 -0.61933314542E+02  0.68618134540E+02  0.47000000000E+01 0.  1.
        -11    1    1    2    0    0 -0.32034068810E+02  0.48457139815E+02 -0.27495090755E+03  0.28102006606E+03  0.00000000000E+00 0.  1.
         11    1    1    2    0    0 -0.13882760203E+02 -0.41247480504E+02 -0.14937814077E+03  0.15558892833E+03  0.00000000000E+00 0. -1.
<mgrwt>
<rscale>  0 0.11935898E+03</rscale>
<asrwt>0</asrwt>
<pdfrwt beam="2">  1        1 0.19688919E+00 0.12544270E+03</pdfrwt>
<pdfrwt beam="1">  1       -1 0.16572191E-02 0.12544270E+03</pdfrwt>
<totfact> 0.88023958E+03</totfact>
</mgrwt>
</event>
<event>
 7    1  0.5928109E-006  0.1314192E+03  0.7546771E-02  0.1238662E+00
         -3   -1    0    0    0  501 -0.00000000000E+00  0.00000000000E+00  0.82182181392E+02  0.82182181392E+02  0.00000000000E+00 0.  1.
          3   -1    0    0  501    0  0.00000000000E+00 -0.00000000000E+00 -0.16914330528E+03  0.16914330528E+03  0.00000000000E+00 0. -1.
         23    2    1    2    0    0 -0.40171927456E+02  0.56857833627E+01 -0.73187197626E+02  0.15042398795E+03  0.12499959347E+03 0.  0.
          5    1    3    3  502    0 -0.58317088736E+02  0.11522392280E+02 -0.10045751573E+03  0.11682230450E+03  0.47000000000E+01 0.  1.
         -5    1    3    3    0  502  0.18145161280E+02 -0.58366089173E+01  0.27270318100E+02  0.33601683452E+02  0.47000000000E+01 0.  1.
        -11    1    1    2    0    0  0.11277070841E+02 -0.25557055304E+02  0.32490547113E+02  0.42848232802E+02  0.00000000000E+00 0.  1.
         11    1    1    2    0    0  0.28894856615E+02  0.19871271942E+02 -0.46264473378E+02  0.58053265923E+02  0.00000000000E+00 0. -1.
<mgrwt>
<rscale>  0 0.12272906E+03</rscale>
<asrwt>0</asrwt>
<pdfrwt beam="2">  1        3 0.26022047E-01 0.13141922E+03</pdfrwt>
<pdfrwt beam="1">  1       -3 0.12643413E-01 0.13141922E+03</pdfrwt>
<totfact> 0.15865009E+03</totfact>
</mgrwt>
</event>
<event>
 7    1  0.5928109E-006  0.1252315E+03  0.7546771E-02  0.1250514E+00
          1   -1    0    0  501    0  0.00000000000E+00  0.00000000000E+00  0.19468275445E+03  0.19468275445E+03  0.00000000000E+00 0. -1.
         -1   -1    0    0    0  501 -0.00000000000E+00 -0.00000000000E+00 -0.64155273007E+02  0.64155273007E+02  0.00000000000E+00 0.  1.
         23    2    1    2    0    0 -0.75089863692E+01  0.67150362380E+00  0.10739429876E+03  0.16497413676E+03  0.12500437833E+03 0.  0.
          5    1    3    3  502    0 -0.60735639660E+02 -0.24218033224E+02  0.47629635286E+02  0.81030878162E+02  0.47000000000E+01 0.  1.
         -5    1    3    3    0  502  0.53226653291E+02  0.24889536848E+02  0.59764663469E+02  0.83943258602E+02  0.47000000000E+01 0.  1.
        -11    1    1    2    0    0  0.44524802453E+02  0.93980791606E+01  0.30527150434E+02  0.54796795883E+02  0.00000000000E+00 0. -1.
         11    1    1    2    0    0 -0.37015816084E+02 -0.10069582784E+02 -0.73939677487E+01  0.39067094810E+02  0.00000000000E+00 0.  1.
<mgrwt>
<rscale>  0 0.11561338E+03</rscale>
<asrwt>0</asrwt>
<pdfrwt beam="1">  1        1 0.29951193E-01 0.12523151E+03</pdfrwt>
<pdfrwt beam="2">  1       -1 0.98700421E-02 0.12523151E+03</pdfrwt>
<totfact> 0.88647994E+03</totfact>
</mgrwt>
</event>
<event>
 7    1  0.7404186E-006  0.1887106E+03  0.7546771E-02  0.1164772E+00
         -1   -1    0    0    0  501 -0.00000000000E+00  0.00000000000E+00  0.23673000439E+02  0.23673000439E+02  0.00000000000E+00 0.  1.
          1   -1    0    0  501    0  0.00000000000E+00 -0.00000000000E+00 -0.21860929997E+04  0.21860929997E+04  0.00000000000E+00 0. -1.
         23    2    1    2    0    0  0.13959765005E+03 -0.22351882068E+02 -0.18073184699E+04  0.18171438462E+04  0.12499838177E+03 0.  0.
          5    1    3    3  502    0  0.10798603644E+03 -0.35788472773E+02 -0.69339048298E+03  0.70267649081E+03  0.47000000000E+01 0.  1.
         -5    1    3    3    0  502  0.31611613608E+02  0.13436590705E+02 -0.11139279870E+04  0.11144673554E+04  0.47000000000E+01 0.  1.
        -11    1    1    2    0    0 -0.91778221003E+02  0.48770561574E+02 -0.28747403678E+03  0.30568469269E+03  0.00000000000E+00 0.  1.
         11    1    1    2    0    0 -0.47819429048E+02 -0.26418679506E+02 -0.67627492554E+02  0.86937461261E+02  0.00000000000E+00 0. -1.
<mgrwt>
<rscale>  0 0.18316762E+03</rscale>
<asrwt>0</asrwt>
<pdfrwt beam="2">  1        1 0.33632213E+00 0.18871064E+03</pdfrwt>
<pdfrwt beam="1">  1       -1 0.36419987E-02 0.18871064E+03</pdfrwt>
<totfact> 0.73016996E+02</totfact>
</mgrwt>
</event>
<event>
 7    1  0.5928109E-006  0.1263282E+03  0.7546771E-02  0.1247947E+00
          4   -1    0    0  501    0  0.00000000000E+00  0.00000000000E+00  0.94208314581E+02  0.94208314581E+02  0.00000000000E+00 0. -1.
         -4   -1    0    0    0  501 -0.00000000000E+00 -0.00000000000E+00 -0.13189259794E+03  0.13189259794E+03  0.00000000000E+00 0.  1.
         23    2    1    2    0    0  0.17138958095E+02  0.64634789937E+01 -0.23707820272E+01  0.12635046602E+03  0.12499319666E+03 0.  0.
          5    1    3    3  502    0 -0.32439763515E+02  0.39052067484E+02  0.29431803031E+02  0.58870393759E+02  0.47000000000E+01 0. -1.
         -5    1    3    3    0  502  0.49578721610E+02 -0.32588588490E+02 -0.31802585058E+02  0.67480072263E+02  0.47000000000E+01 0. -1.
        -11    1    1    2    0    0 -0.69699359581E+01  0.38114376304E+02 -0.37572023635E+02  0.53971683764E+02  0.00000000000E+00 0.  1.
         11    1    1    2    0    0 -0.10169022137E+02 -0.44577855298E+02  0.22585223082E+01  0.45778762731E+02  0.00000000000E+00 0. -1.
<mgrwt>
<rscale>  0 0.11710747E+03</rscale>
<asrwt>0</asrwt>
<pdfrwt beam="1">  1        4 0.14493587E-01 0.12632822E+03</pdfrwt>
<pdfrwt beam="2">  1       -4 0.20291169E-01 0.12632822E+03</pdfrwt>
<totfact> 0.14259652E+03</totfact>
</mgrwt>
</event>
<event>
 7    1  0.5928109E-006  0.2528602E+03  0.7546771E-02  0.1113687E+00
          3   -1    0    0  501    0  0.00000000000E+00  0.00000000000E+00  0.59977084918E+03  0.59977084918E+03  0.00000000000E+00 0. -1.
         -3   -1    0    0    0  501 -0.00000000000E+00 -0.00000000000E+00 -0.14257957876E+03  0.14257957876E+03  0.00000000000E+00 0.  1.
         23    2    1    2    0    0  0.12123089255E+03 -0.18335153003E+03  0.43354955339E+03  0.50189989994E+03  0.12499432564E+03 0.  0.
          5    1    3    3  502    0 -0.68015777307E+01 -0.81133488943E+02  0.20525835249E+03  0.22086644325E+03  0.47000000000E+01 0. -1.
         -5    1    3    3    0  502  0.12803247028E+03 -0.10221804108E+03  0.22829120090E+03  0.28103345669E+03  0.47000000000E+01 0. -1.
        -11    1    1    2    0    0 -0.25160329883E+02  0.12334298382E+03  0.16404831170E+02  0.12694743930E+03  0.00000000000E+00 0.  1.
         11    1    1    2    0    0 -0.96070562669E+02  0.60008546202E+02  0.72368858524E+01  0.11350308871E+03  0.00000000000E+00 0. -1.
<mgrwt>
<rscale>  0 0.24939599E+03</rscale>
<asrwt>0</asrwt>
<pdfrwt beam="1">  1        3 0.92272437E-01 0.25286023E+03</pdfrwt>
<pdfrwt beam="2">  1       -3 0.21935320E-01 0.25286023E+03</pdfrwt>
<totfact> 0.51417027E+01</totfact>
</mgrwt>
</event>
<event>
 7    1  0.5928109E-006  0.1304264E+03  0.7546771E-02  0.1237987E+00
         -4   -1    0    0    0  501 -0.00000000000E+00  0.00000000000E+00  0.24372826938E+03  0.24372826938E+03  0.00000000000E+00 0.  1.
          4   -1    0    0  501    0  0.00000000000E+00 -0.00000000000E+00 -0.63182206428E+02  0.63182206428E+02  0.00000000000E+00 0. -1.
         23    2    1    2    0    0 -0.10481895895E+01 -0.37221597367E+02  0.48781134527E+02  0.13925032954E+03  0.12499803670E+03 0.  0.
          5    1    3    3  502    0 -0.28053783735E+01 -0.75679940403E+02 -0.13229245531E+01  0.75889153748E+02  0.47000000000E+01 0.  1.
         -5    1    3    3    0  502  0.17571887841E+01  0.38458343036E+02  0.50104059080E+02  0.63361175792E+02  0.47000000000E+01 0.  1.
        -11    1    1    2    0    0 -0.45796917412E+02  0.14765406836E+02  0.85430127460E+02  0.98049383279E+02  0.00000000000E+00 0.  1.
         11    1    1    2    0    0  0.46845107002E+02  0.22456190531E+02  0.46334800962E+02  0.69610762985E+02  0.00000000000E+00 0. -1.
<mgrwt>
<rscale>  0 0.12315153E+03</rscale>
<asrwt>0</asrwt>
<pdfrwt beam="2">  1        4 0.97203396E-02 0.13042644E+03</pdfrwt>
<pdfrwt beam="1">  1       -4 0.37496656E-01 0.13042644E+03</pdfrwt>
<totfact> 0.90147053E+02</totfact>
</mgrwt>
</event>
<event>
 7    1  0.5928109E-006  0.2213027E+03  0.7546771E-02  0.1136265E+00
          2   -1    0    0  501    0  0.00000000000E+00  0.00000000000E+00  0.10942394333E+04  0.10942394333E+04  0.00000000000E+00 0. -1.
         -2   -1    0    0    0  501 -0.00000000000E+00 -0.00000000000E+00 -0.45581179068E+02  0.45581179068E+02  0.00000000000E+00 0.  1.
         23    2    1    2    0    0  0.12853119325E+03  0.12972853528E+03  0.71783610179E+03  0.75117477623E+03  0.12500045962E+03 0.  0.
          5    1    3    3  502    0  0.97232845485E+02  0.11499930325E+02  0.28614898613E+03  0.30247282010E+03  0.47000000000E+01 0.  1.
         -5    1    3    3    0  502  0.31298347764E+02  0.11822860495E+03  0.43168711566E+03  0.44870195613E+03  0.47000000000E+01 0.  1.
        -11    1    1    2    0    0 -0.77420912910E+02 -0.10957684272E+03  0.29207551756E+03  0.32141747023E+03  0.00000000000E+00 0. -1.
         11    1    1    2    0    0 -0.51110280338E+02 -0.20151692561E+02  0.38746634916E+02  0.67228365938E+02  0.00000000000E+00 0.  1.
<mgrwt>
<rscale>  0 0.21683514E+03</rscale>
<asrwt>0</asrwt>
<pdfrwt beam="1">  1        2 0.16834451E+00 0.22130268E+03</pdfrwt>
<pdfrwt beam="2">  1       -2 0.70124899E-02 0.22130268E+03</pdfrwt>
<totfact> 0.26672150E+03</totfact>
</mgrwt>
</event>
<event>
 7    1  0.5928109E-006  0.1363707E+03  0.7546771E-02  0.1228875E+00
          2   -1    0    0  501    0  0.00000000000E+00  0.00000000000E+00  0.18050974476E+02  0.18050974476E+02  0.00000000000E+00 0. -1.
         -2   -1    0    0    0  501 -0.00000000000E+00 -0.00000000000E+00 -0.86428206118E+03  0.86428206118E+03  0.00000000000E+00 0.  1.
         23    2    1    2    0    0 -0.20412530054E+02 -0.50551728670E+02 -0.54708831080E+03  0.56382850584E+03  0.12499926213E+03 0.  0.
          5    1    3    3  502    0  0.12441297140E+02 -0.13089650995E+02 -0.48434828407E+01  0.19278852759E+02  0.47000000000E+01 0.  1.
         -5    1    3    3    0  502 -0.32853827193E+02 -0.37462077675E+02 -0.54224482796E+03  0.54454965309E+03  0.47000000000E+01 0.  1.
        -11    1    1    2    0    0  0.21382914579E+02 -0.21167648037E+02 -0.15028798434E+03  0.15327027304E+03  0.00000000000E+00 0.  1.
         11    1    1    2    0    0 -0.97038452576E+00  0.71719376707E+02 -0.14885479157E+03  0.16523425678E+03  0.00000000000E+00 0. -1.
<mgrwt>
<rscale>  0 0.12904804E+03</rscale>
<asrwt>0</asrwt>
<pdfrwt beam="1">  1        2 0.27770723E-02 0.13637069E+03</pdfrwt>
<pdfrwt beam="2">  1       -2 0.13296651E+00 0.13637069E+03</pdfrwt>
<totfact> 0.14452152E+03</totfact>
</mgrwt>
</event>
<event>
 7    1  0.5928109E-006  0.1277983E+03  0.7546771E-02  0.1245159E+00
         -2   -1    0    0    0  501 -0.00000000000E+00  0.00000000000E+00  0.34285382823E+02  0.34285382823E+02  0.00000000000E+00 0.  1.
          2   -1    0    0  501    0  0.00000000000E+00 -0.00000000000E+00 -0.47542155226E+03  0.47542155226E+03  0.00000000000E+00 0. -1.
         23    2    1    2    0    0 -0.18155964716E+02 -0.19420752714E+02 -0.36805941711E+03  0.38961537062E+03  0.12500239121E+03 0.  0.
          5    1    3    3  502    0  0.10551248188E+02  0.34526344901E+02 -0.33455683117E+02  0.49444616121E+02  0.47000000000E+01 0. -1.
         -5    1    3    3    0  502 -0.28707212905E+02 -0.53947097615E+02 -0.33460373399E+03  0.34017075450E+03  0.47000000000E+01 0. -1.
        -11    1    1    2    0    0 -0.22882539690E+02 -0.17593053472E+01 -0.70159514747E+02  0.73817770811E+02  0.00000000000E+00 0. -1.
         11    1    1    2    0    0  0.41038504406E+02  0.21180058062E+02 -0.29172375744E+01  0.46273793647E+02  0.00000000000E+00 0.  1.
<mgrwt>
<rscale>  0 0.11875861E+03</rscale>
<asrwt>0</asrwt>
<pdfrwt beam="2">  1        2 0.73141780E-01 0.12779829E+03</pdfrwt>
<pdfrwt beam="1">  1       -2 0.52746741E-02 0.12779829E+03</pdfrwt>
<totfact> 0.11238318E+04</totfact>
</mgrwt>
</event>
<event>
 7    1  0.5928109E-006  0.1268800E+03  0.7546771E-02  0.1246463E+00
          1   -1    0    0  501    0  0.00000000000E+00  0.00000000000E+00  0.42237588707E+03  0.42237588707E+03  0.00000000000E+00 0. -1.
         -1   -1    0    0    0  501 -0.00000000000E+00 -0.00000000000E+00 -0.37798717444E+02  0.37798717444E+02  0.00000000000E+00 0.  1.
         23    2    1    2    0    0  0.10516615925E+02 -0.17764713522E+02  0.32313670239E+03  0.34715395271E+03  0.12518927348E+03 0.  0.
          5    1    3    3  502    0  0.18975539092E+02  0.41072117662E+02  0.24325821639E+03  0.24747452349E+03  0.47000000000E+01 0. -1.
         -5    1    3    3    0  502 -0.84589231671E+01 -0.58836831184E+02  0.79878485995E+02  0.99679429221E+02  0.47000000000E+01 0. -1.
        -11    1    1    2    0    0  0.36557854159E+01 -0.23874332613E+02  0.64555370255E+02  0.68925643657E+02  0.00000000000E+00 0. -1.
         11    1    1    2    0    0 -0.14172401341E+02  0.41639046135E+02 -0.31149030169E+01  0.44095008149E+02  0.00000000000E+00 0.  1.
<mgrwt>
<rscale>  0 0.11798250E+03</rscale>
<asrwt>0</asrwt>
<pdfrwt beam="1">  1        1 0.64980902E-01 0.12688002E+03</pdfrwt>
<pdfrwt beam="2">  1       -1 0.58151876E-02 0.12688002E+03</pdfrwt>
<totfact> 0.75166701E+03</totfact>
</mgrwt>
</event>
<event>
 7    1  0.5928109E-006  0.1351122E+03  0.7546771E-02  0.1233398E+00
         -2   -1    0    0    0  501 -0.00000000000E+00  0.00000000000E+00  0.35206779428E+03  0.35206779428E+03  0.00000000000E+00 0.  1.
          2   -1    0    0  501    0  0.00000000000E+00 -0.00000000000E+00 -0.40075333164E+02  0.40075333164E+02  0.00000000000E+00 0. -1.
         23    2    1    2    0    0 -0.19498152798E+02  0.47444056092E+02  0.18001139117E+03  0.22507646535E+03  0.12499679149E+03 0.  0.
          5    1    3    3  502    0 -0.71204948348E+02  0.23087167239E+02  0.12396614543E+03  0.14488912027E+03  0.47000000000E+01 0.  1.
         -5    1    3    3    0  502  0.51706795550E+02  0.24356888853E+02  0.56045245738E+02  0.80187345077E+02  0.47000000000E+01 0.  1.
        -11    1    1    2    0    0 -0.47065261469E+01 -0.59318415447E+02  0.12615418487E+03  0.13948370572E+03  0.00000000000E+00 0.  1.
         11    1    1    2    0    0  0.24204678945E+02  0.11874359355E+02  0.58268850764E+01  0.27582956379E+02  0.00000000000E+00 0. -1.
<mgrwt>
<rscale>  0 0.12607520E+03</rscale>
<asrwt>0</asrwt>
<pdfrwt beam="2">  1        2 0.61654361E-02 0.13511223E+03</pdfrwt>
<pdfrwt beam="1">  1       -2 0.54164274E-01 0.13511223E+03</pdfrwt>
<totfact> 0.37121201E+03</totfact>
</mgrwt>
</event>
<event>
 7    1  0.5928109E-006  0.1930243E+03  0.7546771E-02  0.1160618E+00
         -2   -1    0    0    0  501 -0.00000000000E+00  0.00000000000E+00  0.28632152985E+02  0.28632152985E+02  0.00000000000E+00 0. -1.
          2   -1    0    0  501    0  0.00000000000E+00 -0.00000000000E+00 -0.16925012398E+04  0.16925012398E+04  0.00000000000E+00 0.  1.
         23    2    1    2    0    0  0.12041593669E+03  0.84414175000E+02 -0.13440562248E+04  0.13578459062E+04  0.12503047137E+03 0.  0.
          5    1    3    3  502    0  0.13201318473E+03  0.90301345931E+02 -0.93770763009E+03  0.95126205829E+03  0.47000000000E+01 0.  1.
         -5    1    3    3    0  502 -0.11597248042E+02 -0.58871709310E+01 -0.40634859473E+03  0.40658384791E+03  0.47000000000E+01 0.  1.
        -11    1    1    2    0    0 -0.21790230617E+02  0.16166407086E+02 -0.26622761941E+02  0.38012344334E+02  0.00000000000E+00 0.  1.
         11    1    1    2    0    0 -0.98625706075E+02 -0.10058058209E+03 -0.29319010004E+03  0.32527514223E+03  0.00000000000E+00 0. -1.
<mgrwt>
<rscale>  0 0.18762858E+03</rscale>
<asrwt>0</asrwt>
<pdfrwt beam="2">  1        2 0.26038482E+00 0.19302427E+03</pdfrwt>
<pdfrwt beam="1">  1       -2 0.44049463E-02 0.19302427E+03</pdfrwt>
<totfact> 0.25625908E+03</totfact>
</mgrwt>
</event>
<event>
 7    1  0.5928109E-006  0.1843834E+03  0.7546771E-02  0.1168253E+00
         -2   -1    0    0    0  501 -0.00000000000E+00  0.00000000000E+00  0.47193908262E+02  0.47193908262E+02  0.00000000000E+00 0. -1.
          2   -1    0    0  501    0  0.00000000000E+00 -0.00000000000E+00 -0.74453841015E+03  0.74453841015E+03  0.00000000000E+00 0.  1.
         23    2    1    2    0    0  0.12883531785E+03  0.42112672943E+02 -0.50620170670E+03  0.53873686419E+03  0.12500089846E+03 0.  0.
          5    1    3    3  502    0 -0.91368644540E+01 -0.11199228045E+02 -0.17877288236E+03  0.17941777635E+03  0.47000000000E+01 0.  1.
         -5    1    3    3    0  502  0.13797218230E+03  0.53311900988E+02 -0.32742882434E+03  0.35931908784E+03  0.47000000000E+01 0.  1.
        -11    1    1    2    0    0 -0.74138762748E+02 -0.42376142254E+02 -0.17696371678E+03  0.19649033216E+03  0.00000000000E+00 0.  1.
         11    1    1    2    0    0 -0.54696555101E+02  0.26346931157E+00 -0.14179078406E+02  0.56505122073E+02  0.00000000000E+00 0. -1.
<mgrwt>
<rscale>  0 0.17953575E+03</rscale>
<asrwt>0</asrwt>
<pdfrwt beam="2">  1        2 0.11454436E+00 0.18438341E+03</pdfrwt>
<pdfrwt beam="1">  1       -2 0.72606018E-02 0.18438341E+03</pdfrwt>
<totfact> 0.42121496E+03</totfact>
</mgrwt>
</event>
<event>
 7    1  0.5928109E-006  0.1369015E+03  0.7546771E-02  0.1229267E+00
         -1   -1    0    0    0  501 -0.00000000000E+00  0.00000000000E+00  0.10201935185E+03  0.10201935185E+03  0.00000000000E+00 0.  1.
          1   -1    0    0  501    0  0.00000000000E+00 -0.00000000000E+00 -0.15265940592E+03  0.15265940592E+03  0.00000000000E+00 0. -1.
         23    2    1    2    0    0  0.11633039378E+02 -0.54581156354E+02 -0.19267173031E+01  0.13691504087E+03  0.12501034335E+03 0.  0.
          5    1    3    3  502    0 -0.18149209183E+02 -0.83652494599E+02 -0.24734133139E+02  0.89224441656E+02  0.47000000000E+01 0. -1.
         -5    1    3    3    0  502  0.29782248561E+02  0.29071338245E+02  0.22807415836E+02  0.47690599218E+02  0.47000000000E+01 0. -1.
        -11    1    1    2    0    0 -0.46921599448E+02  0.14971851072E+02 -0.59213016587E+01  0.49607001850E+02  0.00000000000E+00 0.  1.
         11    1    1    2    0    0  0.35288560069E+02  0.39609305282E+02 -0.42792035108E+02  0.68156715042E+02  0.00000000000E+00 0. -1.
<mgrwt>
<rscale>  0 0.12878675E+03</rscale>
<asrwt>0</asrwt>
<pdfrwt beam="2">  1        1 0.23486062E-01 0.13690148E+03</pdfrwt>
<pdfrwt beam="1">  1       -1 0.15695285E-01 0.13690148E+03</pdfrwt>
<totfact> 0.59023974E+03</totfact>
</mgrwt>
</event>
<event>
 7    1  0.5928109E-006  0.1397433E+03  0.7546771E-02  0.1219426E+00
          1   -1    0    0  501    0  0.00000000000E+00  0.00000000000E+00  0.13699038730E+04  0.13699038730E+04  0.00000000000E+00 0. -1.
         -1   -1    0    0    0  501 -0.00000000000E+00 -0.00000000000E+00 -0.19433904853E+02  0.19433904853E+02  0.00000000000E+00 0.  1.
         23    2    1    2    0    0  0.54805667193E+02  0.63397572604E+02  0.11112346527E+04  0.11199868935E+04  0.11182698708E+03 0.  0.
          5    1    3    3  502    0  0.78666395789E+02  0.13677097633E+02  0.78785089076E+03  0.79190061302E+03  0.47000000000E+01 0. -1.
         -5    1    3    3    0  502 -0.23860728596E+02  0.49720474972E+02  0.32338376190E+03  0.32808628051E+03  0.47000000000E+01 0.  1.
        -11    1    1    2    0    0 -0.73393209069E+02 -0.62540505597E+02  0.15090177526E+03  0.17907881995E+03  0.00000000000E+00 0.  1.
         11    1    1    2    0    0  0.18587541876E+02 -0.85706700717E+00  0.88333540225E+02  0.90272064370E+02  0.00000000000E+00 0. -1.
<mgrwt>
<rscale>  0 0.13556347E+03</rscale>
<asrwt>0</asrwt>
<pdfrwt beam="1">  1        1 0.21075437E+00 0.13974329E+03</pdfrwt>
<pdfrwt beam="2">  1       -1 0.29898326E-02 0.13974329E+03</pdfrwt>
<totfact> 0.32812567E+03</totfact>
</mgrwt>
</event>
<event>
 7    1  0.5928109E-006  0.2378269E+03  0.7546771E-02  0.1123992E+00
         -2   -1    0    0    0  501 -0.00000000000E+00  0.00000000000E+00  0.37723800054E+03  0.37723800054E+03  0.00000000000E+00 0.  1.
          2   -1    0    0  501    0  0.00000000000E+00 -0.00000000000E+00 -0.23605644831E+03  0.23605644831E+03  0.00000000000E+00 0. -1.
         23    2    1    2    0    0 -0.82711930751E+02 -0.18464461835E+03 -0.12331473216E+03  0.26789577928E+03  0.12500690708E+03 0.  0.
          5    1    3    3  502    0 -0.80527320050E+01 -0.71225220429E+02 -0.10999997418E+03  0.13137717776E+03  0.47000000000E+01 0. -1.
         -5    1    3    3    0  502 -0.74659198746E+02 -0.11341939792E+03 -0.13314757985E+02  0.13651860152E+03  0.47000000000E+01 0. -1.
        -11    1    1    2    0    0  0.72016906013E+01  0.19265264420E+02 -0.41850228818E+01  0.20988786940E+02  0.00000000000E+00 0. -1.
         11    1    1    2    0    0  0.75510240150E+02  0.16537935393E+03  0.26868130726E+03  0.32440988263E+03  0.00000000000E+00 0.  1.
<mgrwt>
<rscale>  0 0.23380175E+03</rscale>
<asrwt>0</asrwt>
<pdfrwt beam="2">  1        2 0.36316377E-01 0.23782688E+03</pdfrwt>
<pdfrwt beam="1">  1       -2 0.58036616E-01 0.23782688E+03</pdfrwt>
<totfact> 0.40439564E+02</totfact>
</mgrwt>
</event>
<event>
 7    1  0.5928109E-006  0.1576604E+03  0.7546771E-02  0.1199185E+00
         -1   -1    0    0    0  501 -0.00000000000E+00  0.00000000000E+00  0.11877273320E+03  0.11877273320E+03  0.00000000000E+00 0.  1.
          1   -1    0    0  501    0  0.00000000000E+00 -0.00000000000E+00 -0.39979540558E+03  0.39979540558E+03  0.00000000000E+00 0. -1.
         23    2    1    2    0    0 -0.17067165501E+02  0.94555058626E+02 -0.33880987992E+03  0.37369630343E+03  0.12499938085E+03 0.  0.
          5    1    3    3  502    0  0.27045560019E+02  0.10593516141E+03 -0.26661135103E+03  0.28819684807E+03  0.47000000000E+01 0. -1.
         -5    1    3    3    0  502 -0.44112725520E+02 -0.11380102786E+02 -0.72198528893E+02  0.85499455358E+02  0.47000000000E+01 0. -1.
        -11    1    1    2    0    0  0.34072584276E+02 -0.22087960246E+02  0.57553338455E+02  0.70435827207E+02  0.00000000000E+00 0.  1.
         11    1    1    2    0    0 -0.17005418775E+02 -0.72467098380E+02  0.23386908374E+00  0.74436008155E+02  0.00000000000E+00 0. -1.
<mgrwt>
<rscale>  0 0.15105334E+03</rscale>
<asrwt>0</asrwt>
<pdfrwt beam="2">  1        1 0.61506985E-01 0.15766037E+03</pdfrwt>
<pdfrwt beam="1">  1       -1 0.18272728E-01 0.15766037E+03</pdfrwt>
<totfact> 0.14043619E+03</totfact>
</mgrwt>
</event>
<event>
 7    1  0.5928109E-006  0.1315338E+03  0.7546771E-02  0.1239410E+00
         -2   -1    0    0    0  501 -0.00000000000E+00  0.00000000000E+00  0.59413214623E+03  0.59413214623E+03  0.00000000000E+00 0.  1.
          2   -1    0    0  501    0  0.00000000000E+00 -0.00000000000E+00 -0.23672532678E+02  0.23672532678E+02  0.00000000000E+00 0. -1.
         23    2    1    2    0    0  0.16074036633E+02 -0.37544774919E+02  0.24794177825E+03  0.28067108855E+03  0.12503259482E+03 0.  0.
          5    1    3    3  502    0 -0.51918906751E+02 -0.30069664728E+01  0.13052821601E+03  0.14058563191E+03  0.47000000000E+01 0.  1.
         -5    1    3    3    0  502  0.67992943384E+02 -0.34537808446E+02  0.11741356224E+03  0.14008545663E+03  0.47000000000E+01 0.  1.
        -11    1    1    2    0    0 -0.38000281344E+02  0.44535692204E+02  0.29723241271E+03  0.30294315709E+03  0.00000000000E+00 0.  1.
         11    1    1    2    0    0  0.21926244711E+02 -0.69909172845E+01  0.25285422590E+02  0.34190433270E+02  0.00000000000E+00 0. -1.
<mgrwt>
<rscale>  0 0.12226297E+03</rscale>
<asrwt>0</asrwt>
<pdfrwt beam="2">  1        2 0.36419285E-02 0.13153378E+03</pdfrwt>
<pdfrwt beam="1">  1       -2 0.91404935E-01 0.13153378E+03</pdfrwt>
<totfact> 0.24244826E+03</totfact>
</mgrwt>
</event>
<event>
 7    1  0.5928109E-006  0.1502868E+03  0.7546771E-02  0.1208800E+00
          1   -1    0    0  501    0  0.00000000000E+00  0.00000000000E+00  0.34338065235E+03  0.34338065235E+03  0.00000000000E+00 0. -1.
         -1   -1    0    0    0  501 -0.00000000000E+00 -0.00000000000E+00 -0.73808215513E+02  0.73808215513E+02  0.00000000000E+00 0.  1.
         23    2    1    2    0    0  0.65873626043E+02  0.51201334537E+02  0.24902664539E+03  0.29086148693E+03  0.12500089280E+03 0.  0.
          5    1    3    3  502    0 -0.29512573991E+02  0.26457639204E+02  0.27819585662E+02  0.48652009643E+02  0.47000000000E+01 0.  1.
         -5    1    3    3    0  502  0.95386200035E+02  0.24743695333E+02  0.22120705972E+03  0.24220947729E+03  0.47000000000E+01 0.  1.
        -11    1    1    2    0    0 -0.30804111018E+02 -0.45980750253E+02 -0.31250004947E+02  0.63558519953E+02  0.00000000000E+00 0.  1.
         11    1    1    2    0    0 -0.35069515025E+02 -0.52205842840E+01  0.51795796403E+02  0.62768860985E+02  0.00000000000E+00 0. -1.
<mgrwt>
<rscale>  0 0.14342002E+03</rscale>
<asrwt>0</asrwt>
<pdfrwt beam="1">  1        1 0.52827792E-01 0.15028684E+03</pdfrwt>
<pdfrwt beam="2">  1       -1 0.11355110E-01 0.15028684E+03</pdfrwt>
<totfact> 0.35799243E+03</totfact>
</mgrwt>
</event>
<event>
 7    1  0.5928109E-006  0.1441505E+03  0.7546771E-02  0.1215840E+00
          2   -1    0    0  501    0  0.00000000000E+00  0.00000000000E+00  0.48339081720E+03  0.48339081720E+03  0.00000000000E+00 0.  1.
         -2   -1    0    0    0  501 -0.00000000000E+00 -0.00000000000E+00 -0.37846945057E+02  0.37846945057E+02  0.00000000000E+00 0. -1.
         23    2    1    2    0    0 -0.68982596100E+02  0.19929818033E+02  0.19250672991E+03  0.24049576024E+03  0.12499429356E+03 0.  0.
          5    1    3    3  502    0  0.35527338511E+01 -0.42723903605E+02  0.32832476605E+02  0.54203462777E+02  0.47000000000E+01 0.  1.
         -5    1    3    3    0  502 -0.72535329951E+02  0.62653721637E+02  0.15967425331E+03  0.18629229746E+03  0.47000000000E+01 0.  1.
        -11    1    1    2    0    0  0.19840696063E+02 -0.33875427695E+02  0.21090097912E+03  0.21452370689E+03  0.00000000000E+00 0.  1.
         11    1    1    2    0    0  0.49141900037E+02  0.13945609662E+02  0.42136163115E+02  0.66218295132E+02  0.00000000000E+00 0. -1.
<mgrwt>
<rscale>  0 0.13815030E+03</rscale>
<asrwt>0</asrwt>
<pdfrwt beam="1">  1        2 0.74367814E-01 0.14415051E+03</pdfrwt>
<pdfrwt beam="2">  1       -2 0.58226073E-02 0.14415051E+03</pdfrwt>
<totfact> 0.95874785E+03</totfact>
</mgrwt>
</event>
<event>
 7    1  0.5928109E-006  0.1805613E+03  0.7546771E-02  0.1172708E+00
          2   -1    0    0  501    0  0.00000000000E+00  0.00000000000E+00  0.20598967995E+04  0.20598967995E+04  0.00000000000E+00 0. -1.
         -2   -1    0    0    0  501 -0.00000000000E+00 -0.00000000000E+00 -0.17821064048E+02  0.17821064048E+02  0.00000000000E+00 0.  1.
         23    2    1    2    0    0  0.48533223209E+01 -0.13020463123E+03  0.15496153889E+04  0.15600994372E+04  0.12500239968E+03 0.  0.
          5    1    3    3  502    0 -0.19694925285E+02  0.64248830136E+01  0.60039388350E+03  0.60076956859E+03  0.47000000000E+01 0.  1.
         -5    1    3    3    0  502  0.24548247606E+02 -0.13662951424E+03  0.94922150535E+03  0.95932986863E+03  0.47000000000E+01 0.  1.
        -11    1    1    2    0    0 -0.34434244807E+02  0.12458978366E+03  0.39477662414E+03  0.41539970435E+03  0.00000000000E+00 0.  1.
         11    1    1    2    0    0  0.29580922486E+02  0.56148475688E+01  0.97683722457E+02  0.10221872197E+03  0.00000000000E+00 0. -1.
<mgrwt>
<rscale>  0 0.17502403E+03</rscale>
<asrwt>0</asrwt>
<pdfrwt beam="1">  1        2 0.31690701E+00 0.18056135E+03</pdfrwt>
<pdfrwt beam="2">  1       -2 0.27417038E-02 0.18056135E+03</pdfrwt>
<totfact> 0.33500976E+03</totfact>
</mgrwt>
</event>
<event>
 7    1  0.5928109E-006  0.1257364E+03  0.7546771E-02  0.1249436E+00
         -1   -1    0    0    0  501 -0.00000000000E+00  0.00000000000E+00  0.27063553372E+02  0.27063553372E+02  0.00000000000E+00 0.  1.
          1   -1    0    0  501    0  0.00000000000E+00 -0.00000000000E+00 -0.47245045949E+03  0.47245045949E+03  0.00000000000E+00 0. -1.
         23    2    1    2    0    0  0.13278087300E+02 -0.28253895972E+01 -0.32218453907E+03  0.34585044653E+03  0.12500145488E+03 0.  0.
          5    1    3    3  502    0 -0.45599969151E+02  0.32882359013E+02 -0.15688128842E+03  0.16671663198E+03  0.47000000000E+01 0. -1.
         -5    1    3    3    0  502  0.58878056451E+02 -0.35707748610E+02 -0.16530325065E+03  0.17913381455E+03  0.47000000000E+01 0. -1.
        -11    1    1    2    0    0 -0.42389457741E+02  0.26905074111E+01 -0.20974216850E+02  0.47371117045E+02  0.00000000000E+00 0.  1.
         11    1    1    2    0    0  0.29111370440E+02  0.13488218605E+00 -0.10222815020E+03  0.10629244929E+03  0.00000000000E+00 0. -1.
<mgrwt>
<rscale>  0 0.11623795E+03</rscale>
<asrwt>0</asrwt>
<pdfrwt beam="2">  1        1 0.72684682E-01 0.12573645E+03</pdfrwt>
<pdfrwt beam="1">  1       -1 0.41636238E-02 0.12573645E+03</pdfrwt>
<totfact> 0.10660939E+04</totfact>
</mgrwt>
</event>
<event>
 7    1  0.5928109E-006  0.1521523E+03  0.7546771E-02  0.1205634E+00
         -1   -1    0    0    0  501 -0.00000000000E+00  0.00000000000E+00  0.19918876534E+03  0.19918876534E+03  0.00000000000E+00 0.  1.
          1   -1    0    0  501    0  0.00000000000E+00 -0.00000000000E+00 -0.21569427827E+03  0.21569427827E+03  0.00000000000E+00 0. -1.
         23    2    1    2    0    0 -0.86427352278E+02 -0.74927797932E+01 -0.16097074315E+03  0.22149920674E+03  0.12499795786E+03 0.  0.
          5    1    3    3  502    0 -0.30085393315E+02 -0.59203482968E+02 -0.11284295234E+03  0.13101833909E+03  0.47000000000E+01 0.  1.
         -5    1    3    3    0  502 -0.56341958963E+02  0.51710703175E+02 -0.48127790812E+02  0.90480867652E+02  0.47000000000E+01 0.  1.
        -11    1    1    2    0    0  0.60236363653E+02  0.25579779443E+02  0.14754369036E+03  0.16140596392E+03  0.00000000000E+00 0.  1.
         11    1    1    2    0    0  0.26190988625E+02 -0.18086999650E+02 -0.30784601370E+01  0.31977872949E+02  0.00000000000E+00 0. -1.
<mgrwt>
<rscale>  0 0.14587587E+03</rscale>
<asrwt>0</asrwt>
<pdfrwt beam="2">  1        1 0.33183735E-01 0.15215229E+03</pdfrwt>
<pdfrwt beam="1">  1       -1 0.30644425E-01 0.15215229E+03</pdfrwt>
<totfact> 0.12972440E+03</totfact>
</mgrwt>
</event>
<event>
 6    1  0.5928109E-006  0.1725822E+03  0.7546771E-02  0.1199328E+00
         -1   -1    0    0    0  501 -0.00000000000E+00  0.00000000000E+00  0.38151038175E+02  0.38151038175E+02  0.00000000000E+00 0.  1.
          1   -1    0    0  501    0  0.00000000000E+00 -0.00000000000E+00 -0.14654101436E+04  0.14654101436E+04  0.00000000000E+00 0. -1.
          5    1    1    2  502    0 -0.56081483394E+02  0.28336974803E+02 -0.10654306241E+04  0.10672921913E+04  0.47000000000E+01 0. -1.
         -5    1    1    2    0  502  0.37750144645E+02 -0.65215696923E+02 -0.31687608276E+03  0.32574637737E+03  0.47000000000E+01 0.  1.
        -11    1    1    2    0    0  0.20569449653E+02  0.56915942354E+02  0.80075343461E+00  0.60524110560E+02  0.00000000000E+00 0.  1.
         11    1    1    2    0    0 -0.22381109041E+01 -0.20037220234E+02 -0.45753152039E+02  0.49998502544E+02  0.00000000000E+00 0. -1.
<mgrwt>
<rscale>  0 0.15093603E+03</rscale>
<asrwt>0</asrwt>
<pdfrwt beam="2">  1        1 0.22544768E+00 0.17258222E+03</pdfrwt>
<pdfrwt beam="1">  1       -1 0.58693914E-02 0.17258222E+03</pdfrwt>
<totfact> 0.10498297E+03</totfact>
</mgrwt>
</event>
<event>
 7    1  0.5928109E-006  0.1428913E+03  0.7546771E-02  0.1219994E+00
         -1   -1    0    0    0  501 -0.00000000000E+00  0.00000000000E+00  0.85908382787E+02  0.85908382787E+02  0.00000000000E+00 0.  1.
          1   -1    0    0  501    0  0.00000000000E+00 -0.00000000000E+00 -0.26979411820E+03  0.26979411820E+03  0.00000000000E+00 0. -1.
         23    2    1    2    0    0 -0.67680181191E+02  0.14573066488E+02 -0.19391809229E+03  0.24087788306E+03  0.12499978736E+03 0.  0.
          5    1    3    3  502    0 -0.65966167434E+02  0.69224287593E+01 -0.21114935571E+03  0.22137207521E+03  0.47000000000E+01 0. -1.
         -5    1    3    3    0  502 -0.17140137576E+01  0.76506377288E+01  0.17231263425E+02  0.19505807854E+02  0.47000000000E+01 0. -1.
        -11    1    1    2    0    0 -0.15990781467E+02 -0.16348357943E+02 -0.15145880953E+02  0.27429393161E+02  0.00000000000E+00 0. -1.
         11    1    1    2    0    0  0.83670962659E+02  0.17752914549E+01  0.25178237821E+02  0.87395224765E+02  0.00000000000E+00 0.  1.
<mgrwt>
<rscale>  0 0.13515967E+03</rscale>
<asrwt>0</asrwt>
<pdfrwt beam="2">  1        1 0.41506787E-01 0.14289132E+03</pdfrwt>
<pdfrwt beam="1">  1       -1 0.13216674E-01 0.14289132E+03</pdfrwt>
<totfact> 0.38095498E+03</totfact>
</mgrwt>
</event>
<event>
 7    1  0.5928109E-006  0.1727713E+03  0.7546771E-02  0.1176205E+00
         -2   -1    0    0    0  501 -0.00000000000E+00  0.00000000000E+00  0.20872233275E+03  0.20872233275E+03  0.00000000000E+00 0.  1.
          2   -1    0    0  501    0  0.00000000000E+00 -0.00000000000E+00 -0.15048856973E+03  0.15048856973E+03  0.00000000000E+00 0. -1.
         23    2    1    2    0    0 -0.17133082388E+02  0.11102640807E+03 -0.20549644611E+02  0.16932478859E+03  0.12501276069E+03 0.  0.
          5    1    3    3  502    0 -0.50834695904E+02  0.69865123658E+01  0.15945404791E+02  0.53938146025E+02  0.47000000000E+01 0.  1.
         -5    1    3    3    0  502  0.33701613515E+02  0.10403989571E+03 -0.36495049402E+02  0.11538664257E+03  0.47000000000E+01 0.  1.
        -11    1    1    2    0    0  0.10656977965E+02 -0.12234087467E+03  0.10437347549E+03  0.16116663172E+03  0.00000000000E+00 0.  1.
         11    1    1    2    0    0  0.64761044233E+01  0.11314466598E+02 -0.25590067865E+02  0.28719482172E+02  0.00000000000E+00 0. -1.
<mgrwt>
<rscale>  0 0.17158458E+03</rscale>
<asrwt>0</asrwt>
<pdfrwt beam="2">  1        2 0.23152088E-01 0.17277127E+03</pdfrwt>
<pdfrwt beam="1">  1       -2 0.32111128E-01 0.17277127E+03</pdfrwt>
<totfact> 0.20776488E+03</totfact>
</mgrwt>
</event>
<event>
 7    1  0.5928109E-006  0.1320964E+03  0.7546771E-02  0.1240430E+00
         -2   -1    0    0    0  501 -0.00000000000E+00  0.00000000000E+00  0.16383929430E+02  0.16383929430E+02  0.00000000000E+00 0.  1.
          2   -1    0    0  501    0  0.00000000000E+00 -0.00000000000E+00 -0.80181849664E+03  0.80181849664E+03  0.00000000000E+00 0. -1.
         23    2    1    2    0    0  0.75544741919E+01 -0.42042153592E+02 -0.51132548434E+03  0.52811287015E+03  0.12499935969E+03 0.  0.
          5    1    3    3  502    0  0.31664778729E+02 -0.73897505914E+02 -0.22505665818E+03  0.23903156483E+03  0.47000000000E+01 0. -1.
         -5    1    3    3    0  502 -0.24110304537E+02  0.31855352322E+02 -0.28626882616E+03  0.28908130532E+03  0.47000000000E+01 0. -1.
        -11    1    1    2    0    0 -0.16372120764E+02  0.60927873991E+02 -0.25169798530E+03  0.25948435015E+03  0.00000000000E+00 0. -1.
         11    1    1    2    0    0  0.88176465717E+01 -0.18885720400E+02 -0.22411097572E+02  0.30605205774E+02  0.00000000000E+00 0.  1.
<mgrwt>
<rscale>  0 0.12163145E+03</rscale>
<asrwt>0</asrwt>
<pdfrwt beam="2">  1        2 0.12335666E+00 0.13209638E+03</pdfrwt>
<pdfrwt beam="1">  1       -2 0.25206052E-02 0.13209638E+03</pdfrwt>
<totfact> 0.18411062E+04</totfact>
</mgrwt>
</event>
<event>
 7    1  0.5928109E-006  0.1311383E+03  0.7546771E-02  0.1240319E+00
          2   -1    0    0  501    0  0.00000000000E+00  0.00000000000E+00  0.50299231876E+03  0.50299231876E+03  0.00000000000E+00 0. -1.
         -2   -1    0    0    0  501 -0.00000000000E+00 -0.00000000000E+00 -0.30057106199E+02  0.30057106199E+02  0.00000000000E+00 0.  1.
         23    2    1    2    0    0  0.22630592811E+02  0.32579460583E+02  0.36454125335E+03  0.38741137382E+03  0.12499472863E+03 0.  0.
          5    1    3    3  502    0  0.39935120337E+01  0.62029852271E+02  0.83622311366E+02  0.10429972037E+03  0.47000000000E+01 0.  1.
         -5    1    3    3    0  502  0.18637080778E+02 -0.29450391688E+02  0.28091894199E+03  0.28311165345E+03  0.47000000000E+01 0.  1.
        -11    1    1    2    0    0 -0.42752859621E+02 -0.12994424507E+01  0.98141938266E+02  0.10705762749E+03  0.00000000000E+00 0. -1.
         11    1    1    2    0    0  0.20122266810E+02 -0.31280018133E+02  0.10252020941E+02  0.38580423654E+02  0.00000000000E+00 0.  1.
<mgrwt>
<rscale>  0 0.12169993E+03</rscale>
<asrwt>0</asrwt>
<pdfrwt beam="1">  1        2 0.77383428E-01 0.13113827E+03</pdfrwt>
<pdfrwt beam="2">  1       -2 0.46241705E-02 0.13113827E+03</pdfrwt>
<totfact> 0.12896942E+04</totfact>
</mgrwt>
</event>
<event>
 7    1  0.5928109E-006  0.2184951E+03  0.7546771E-02  0.1138356E+00
          1   -1    0    0  501    0  0.00000000000E+00  0.00000000000E+00  0.18944152451E+04  0.18944152451E+04  0.00000000000E+00 0. -1.
         -1   -1    0    0    0  501 -0.00000000000E+00 -0.00000000000E+00 -0.25266468354E+02  0.25266468354E+02  0.00000000000E+00 0.  1.
         23    2    1    2    0    0  0.62467511331E+02 -0.16796553356E+03  0.12388464974E+04  0.12579669071E+04  0.12500193851E+03 0.  0.
          5    1    3    3  502    0  0.59359100050E+02 -0.13489838429E+03  0.58628517549E+03  0.60454402143E+03  0.47000000000E+01 0. -1.
         -5    1    3    3    0  502  0.31084112806E+01 -0.33067149278E+02  0.65256132193E+03  0.65342288563E+03  0.47000000000E+01 0. -1.
        -11    1    1    2    0    0 -0.39532186305E+02  0.14236805421E+03  0.59240721054E+03  0.61055528801E+03  0.00000000000E+00 0. -1.
         11    1    1    2    0    0 -0.22935325026E+02  0.25597479355E+02  0.37895068762E+02  0.51159518370E+02  0.00000000000E+00 0.  1.
<mgrwt>
<rscale>  0 0.21410540E+03</rscale>
<asrwt>0</asrwt>
<pdfrwt beam="1">  1        1 0.29144839E+00 0.21849507E+03</pdfrwt>
<pdfrwt beam="2">  1       -1 0.38871505E-02 0.21849507E+03</pdfrwt>
<totfact> 0.10185314E+03</totfact>
</mgrwt>
</event>
<event>
 6    1  0.5928109E-006  0.2636697E+03  0.7546771E-02  0.1117802E+00
         -2   -1    0    0    0  501 -0.00000000000E+00  0.00000000000E+00  0.25965438367E+02  0.25965438367E+02  0.00000000000E+00 0.  1.
          2   -1    0    0  501    0  0.00000000000E+00 -0.00000000000E+00 -0.23555705575E+04  0.23555705575E+04  0.00000000000E+00 0. -1.
          5    1    1    2  502    0 -0.13869027519E+03  0.86638640224E+02 -0.13001447179E+04  0.13103967429E+04  0.47000000000E+01 0. -1.
         -5    1    1    2    0  502 -0.22264293764E+02 -0.91940159425E+02 -0.49110245164E+03  0.50015237648E+03  0.47000000000E+01 0.  1.
        -11    1    1    2    0    0  0.13260381701E+03 -0.30412767677E+02 -0.31665937019E+03  0.34464745096E+03  0.00000000000E+00 0.  1.
         11    1    1    2    0    0  0.28350751950E+02  0.35714286878E+02 -0.22169857942E+03  0.22633942551E+03  0.00000000000E+00 0. -1.
<mgrwt>
<rscale>  0 0.24301260E+03</rscale>
<asrwt>0</asrwt>
<pdfrwt beam="2">  1        2 0.36239549E+00 0.26366966E+03</pdfrwt>
<pdfrwt beam="1">  1       -2 0.39946826E-02 0.26366966E+03</pdfrwt>
<totfact> 0.13242725E+03</totfact>
</mgrwt>
</event>
<event>
 7    1  0.5928109E-006  0.1517776E+03  0.7546771E-02  0.1207241E+00
         -1   -1    0    0    0  501 -0.00000000000E+00  0.00000000000E+00  0.48442002504E+02  0.48442002504E+02  0.00000000000E+00 0.  1.
          1   -1    0    0  501    0  0.00000000000E+00 -0.00000000000E+00 -0.40005202406E+03  0.40005202406E+03  0.00000000000E+00 0. -1.
         23    2    1    2    0    0 -0.74231983136E+02  0.43593839189E+02 -0.21587281642E+03  0.26388922589E+03  0.12500256211E+03 0.  0.
          5    1    3    3  502    0 -0.61512479791E+01 -0.41494124423E+02 -0.50992086765E+02  0.66195793869E+02  0.47000000000E+01 0.  1.
         -5    1    3    3    0  502 -0.68080735157E+02  0.85087963612E+02 -0.16488072966E+03  0.19769343202E+03  0.47000000000E+01 0.  1.
        -11    1    1    2    0    0  0.69386218019E+02  0.10871176302E+02 -0.71057079897E+02  0.99908649920E+02  0.00000000000E+00 0.  1.
         11    1    1    2    0    0  0.48457651172E+01 -0.54465015491E+02 -0.64680125232E+02  0.84696150751E+02  0.00000000000E+00 0. -1.
<mgrwt>
<rscale>  0 0.14462228E+03</rscale>
<asrwt>0</asrwt>
<pdfrwt beam="2">  1        1 0.61546463E-01 0.15177764E+03</pdfrwt>
<pdfrwt beam="1">  1       -1 0.74526161E-02 0.15177764E+03</pdfrwt>
<totfact> 0.56153592E+03</totfact>
</mgrwt>
</event>
<event>
 7    1  0.5928109E-006  0.1347440E+03  0.7546771E-02  0.1232639E+00
         -2   -1    0    0    0  501 -0.00000000000E+00  0.00000000000E+00  0.29411470720E+03  0.29411470720E+03  0.00000000000E+00 0.  1.
          2   -1    0    0  501    0  0.00000000000E+00 -0.00000000000E+00 -0.52840767757E+02  0.52840767757E+02  0.00000000000E+00 0. -1.
         23    2    1    2    0    0 -0.47147512980E+02 -0.17559704445E+02  0.86974295968E+02  0.16037603227E+03  0.12499884946E+03 0.  0.
          5    1    3    3  502    0 -0.37488845094E+02  0.43850781646E+02  0.78391050319E+02  0.97445119568E+02  0.47000000000E+01 0. -1.
         -5    1    3    3    0  502 -0.96586678861E+01 -0.61410486092E+02  0.85832456486E+01  0.62930912700E+02  0.47000000000E+01 0. -1.
        -11    1    1    2    0    0  0.27173492227E+02  0.10262730584E+02  0.16152832372E+03  0.16411923008E+03  0.00000000000E+00 0.  1.
         11    1    1    2    0    0  0.19974020753E+02  0.72969738608E+01 -0.72286802399E+01  0.22460212612E+02  0.00000000000E+00 0. -1.
<mgrwt>
<rscale>  0 0.12656787E+03</rscale>
<asrwt>0</asrwt>
<pdfrwt beam="2">  1        2 0.81293491E-02 0.13474399E+03</pdfrwt>
<pdfrwt beam="1">  1       -2 0.45248415E-01 0.13474399E+03</pdfrwt>
<totfact> 0.37263089E+03</totfact>
</mgrwt>
</event>
<event>
 7    1  0.5928109E-006  0.1743279E+03  0.7546771E-02  0.1179489E+00
         -1   -1    0    0    0  501 -0.00000000000E+00  0.00000000000E+00  0.25065370515E+03  0.25065370515E+03  0.00000000000E+00 0.  1.
          1   -1    0    0  501    0  0.00000000000E+00 -0.00000000000E+00 -0.10617580670E+03  0.10617580670E+03  0.00000000000E+00 0. -1.
         23    2    1    2    0    0  0.11360872758E+03 -0.43094475451E+02  0.79065916479E+02  0.19142008993E+03  0.12500461944E+03 0.  0.
          5    1    3    3  502    0  0.16147339980E+02 -0.31548833348E+02  0.85783602280E+02  0.92935364066E+02  0.47000000000E+01 0. -1.
         -5    1    3    3    0  502  0.97461387603E+02 -0.11545642103E+02 -0.67176858010E+01  0.98484725860E+02  0.47000000000E+01 0. -1.
        -11    1    1    2    0    0 -0.77758827025E+02  0.29230023273E+02 -0.70645697177E+01  0.83371083633E+02  0.00000000000E+00 0. -1.
         11    1    1    2    0    0 -0.35849900558E+02  0.13864452179E+02  0.72476551688E+02  0.82038338287E+02  0.00000000000E+00 0.  1.
<mgrwt>
<rscale>  0 0.16843540E+03</rscale>
<asrwt>0</asrwt>
<pdfrwt beam="2">  1        1 0.16334739E-01 0.17432794E+03</pdfrwt>
<pdfrwt beam="1">  1       -1 0.38562109E-01 0.17432794E+03</pdfrwt>
<totfact> 0.21546923E+03</totfact>
</mgrwt>
</event>
<event>
 6    1  0.5928109E-006  0.1487930E+03  0.7546771E-02  0.1225921E+00
         -1   -1    0    0    0  501 -0.00000000000E+00  0.00000000000E+00  0.25469761806E+02  0.25469761806E+02  0.00000000000E+00 0.  1.
          1   -1    0    0  501    0  0.00000000000E+00 -0.00000000000E+00 -0.82646899321E+03  0.82646899321E+03  0.00000000000E+00 0. -1.
          5    1    1    2  502    0 -0.43685700318E+01 -0.56958570358E+02 -0.12053482877E+03  0.13346946500E+03  0.47000000000E+01 0. -1.
         -5    1    1    2    0  502  0.13867872223E+01  0.54815596751E+02 -0.58508586263E+03  0.58766846902E+03  0.47000000000E+01 0.  1.
        -11    1    1    2    0    0  0.21507296109E+02 -0.15806614955E+02 -0.10094324286E+03  0.10441240894E+03  0.00000000000E+00 0. -1.
         11    1    1    2    0    0 -0.18525513300E+02  0.17949588562E+02  0.55647028612E+01  0.26388412050E+02  0.00000000000E+00 0.  1.
<mgrwt>
<rscale>  0 0.13103976E+03</rscale>
<asrwt>0</asrwt>
<pdfrwt beam="2">  1        1 0.12714907E+00 0.14879301E+03</pdfrwt>
<pdfrwt beam="1">  1       -1 0.39184249E-02 0.14879301E+03</pdfrwt>
<totfact> 0.54157133E+03</totfact>
</mgrwt>
</event>
<event>
 7    1  0.5928109E-006  0.1517426E+03  0.7546771E-02  0.1207417E+00
         -2   -1    0    0    0  501 -0.00000000000E+00  0.00000000000E+00  0.44221345909E+03  0.44221345909E+03  0.00000000000E+00 0.  1.
          2   -1    0    0  501    0  0.00000000000E+00 -0.00000000000E+00 -0.43661402095E+02  0.43661402095E+02  0.00000000000E+00 0. -1.
         23    2    1    2    0    0  0.63722537574E+02  0.57799181276E+02  0.19406165906E+03  0.24634477951E+03  0.12499806287E+03 0.  0.
          5    1    3    3  502    0  0.66851577014E+02  0.37012245114E+02  0.20735240836E+03  0.22103427537E+03  0.47000000000E+01 0.  1.
         -5    1    3    3    0  502 -0.31290394394E+01  0.20786936162E+02 -0.13290749292E+02  0.25310504135E+02  0.47000000000E+01 0.  1.
        -11    1    1    2    0    0 -0.62504990532E+02 -0.73532236883E+02  0.12206428391E+03  0.15560704711E+03  0.00000000000E+00 0.  1.
         11    1    1    2    0    0 -0.12175470422E+01  0.15733055606E+02  0.82426114018E+02  0.83923034571E+02  0.00000000000E+00 0. -1.
<mgrwt>
<rscale>  0 0.14448610E+03</rscale>
<asrwt>0</asrwt>
<pdfrwt beam="2">  1        2 0.67171391E-02 0.15174262E+03</pdfrwt>
<pdfrwt beam="1">  1       -2 0.68032837E-01 0.15174262E+03</pdfrwt>
<totfact> 0.20938597E+03</totfact>
</mgrwt>
</event>
<event>
 7    1  0.5928109E-006  0.1262151E+03  0.7546771E-02  0.1248196E+00
          1   -1    0    0  501    0  0.00000000000E+00  0.00000000000E+00  0.58246279978E+03  0.58246279978E+03  0.00000000000E+00 0. -1.
         -1   -1    0    0    0  501 -0.00000000000E+00 -0.00000000000E+00 -0.26636825636E+02  0.26636825636E+02  0.00000000000E+00 0.  1.
         23    2    1    2    0    0  0.16939610687E+02 -0.41871266424E+01  0.45367480763E+03  0.47090454352E+03  0.12500310234E+03 0.  0.
          5    1    3    3  502    0  0.50508655330E+02 -0.27872122994E+02  0.39443935492E+03  0.39866335951E+03  0.47000000000E+01 0. -1.
         -5    1    3    3    0  502 -0.33569044643E+02  0.23684996352E+02  0.59235452707E+02  0.72241184014E+02  0.47000000000E+01 0. -1.
        -11    1    1    2    0    0 -0.18143688162E+02  0.23736618924E+02 -0.40972505482E+01  0.30156391696E+02  0.00000000000E+00 0.  1.
         11    1    1    2    0    0  0.12040774756E+01 -0.19549492281E+02  0.10624841707E+03  0.10803869020E+03  0.00000000000E+00 0. -1.
<mgrwt>
<rscale>  0 0.11696131E+03</rscale>
<asrwt>0</asrwt>
<pdfrwt beam="1">  1        1 0.89609652E-01 0.12621513E+03</pdfrwt>
<pdfrwt beam="2">  1       -1 0.40979736E-02 0.12621513E+03</pdfrwt>
<totfact> 0.82895062E+03</totfact>
</mgrwt>
</event>
<event>
 7    1  0.5928109E-006  0.1544555E+03  0.7546771E-02  0.1203333E+00
         -1   -1    0    0    0  501 -0.00000000000E+00  0.00000000000E+00  0.11917824730E+03  0.11917824730E+03  0.00000000000E+00 0.  1.
          1   -1    0    0  501    0  0.00000000000E+00 -0.00000000000E+00 -0.16903551653E+03  0.16903551653E+03  0.00000000000E+00 0. -1.
         23    2    1    2    0    0  0.15824898237E+02  0.89311045323E+02 -0.33430638723E+02  0.15803198572E+03  0.12501844137E+03 0.  0.
          5    1    3    3  502    0  0.27730032368E+02  0.73856543317E+02  0.35209348176E+02  0.86518968353E+02  0.47000000000E+01 0.  1.
         -5    1    3    3    0  502 -0.11905134131E+02  0.15454502005E+02 -0.68639986900E+02  0.71513017364E+02  0.47000000000E+01 0.  1.
        -11    1    1    2    0    0 -0.26549649230E+01 -0.90501733575E+02  0.18872823116E+02  0.92486734569E+02  0.00000000000E+00 0.  1.
         11    1    1    2    0    0 -0.13169933314E+02  0.11906882522E+01 -0.35299453619E+02  0.37695043544E+02  0.00000000000E+00 0. -1.
<mgrwt>
<rscale>  0 0.14769601E+03</rscale>
<asrwt>0</asrwt>
<pdfrwt beam="2">  1        1 0.26005464E-01 0.15445550E+03</pdfrwt>
<pdfrwt beam="1">  1       -1 0.18335115E-01 0.15445550E+03</pdfrwt>
<totfact> 0.40872245E+03</totfact>
</mgrwt>
</event>
<event>
 7    1  0.5928109E-006  0.1305979E+03  0.7546771E-02  0.1239547E+00
          1   -1    0    0  501    0  0.00000000000E+00  0.00000000000E+00  0.72553574044E+03  0.72553574044E+03  0.00000000000E+00 0. -1.
         -1   -1    0    0    0  501 -0.00000000000E+00 -0.00000000000E+00 -0.19039107978E+02  0.19039107978E+02  0.00000000000E+00 0.  1.
         23    2    1    2    0    0 -0.34178188250E+02 -0.16201780338E+02  0.46961622352E+03  0.48743739892E+03  0.12500069694E+03 0.  0.
          5    1    3    3  502    0 -0.12131495263E+02 -0.50636347455E+02  0.79462134037E+02  0.95118523993E+02  0.47000000000E+01 0.  1.
         -5    1    3    3    0  502 -0.22046692987E+02  0.34434567118E+02  0.39015408949E+03  0.39231887493E+03  0.47000000000E+01 0.  1.
        -11    1    1    2    0    0  0.63045150027E+02  0.18311889226E+02  0.19844548624E+03  0.20902303040E+03  0.00000000000E+00 0.  1.
         11    1    1    2    0    0 -0.28866961777E+02 -0.21101088883E+01  0.38434922695E+02  0.48114419090E+02  0.00000000000E+00 0. -1.
<mgrwt>
<rscale>  0 0.12217773E+03</rscale>
<asrwt>0</asrwt>
<pdfrwt beam="1">  1        1 0.11162086E+00 0.13059793E+03</pdfrwt>
<pdfrwt beam="2">  1       -1 0.29290941E-02 0.13059793E+03</pdfrwt>
<totfact> 0.99895955E+03</totfact>
</mgrwt>
</event>
<event>
 7    1  0.5928109E-006  0.1541924E+03  0.7546771E-02  0.1203298E+00
         -1   -1    0    0    0  501 -0.00000000000E+00  0.00000000000E+00  0.98991277388E+02  0.98991277388E+02  0.00000000000E+00 0.  1.
          1   -1    0    0  501    0  0.00000000000E+00 -0.00000000000E+00 -0.34960996514E+03  0.34960996514E+03  0.00000000000E+00 0. -1.
         23    2    1    2    0    0  0.63103535733E+01  0.90059907142E+02 -0.27608620502E+03  0.31622600036E+03  0.12499873307E+03 0.  0.
          5    1    3    3  502    0 -0.42001354157E+02 -0.10604856830E+01 -0.13455300536E+03  0.14103843317E+03  0.47000000000E+01 0.  1.
         -5    1    3    3    0  502  0.48311707730E+02  0.91120392825E+02 -0.14153319966E+03  0.17518756719E+03  0.47000000000E+01 0.  1.
        -11    1    1    2    0    0 -0.30034340590E+02  0.47643737813E+01 -0.30257154048E+01  0.30560036419E+02  0.00000000000E+00 0.  1.
         11    1    1    2    0    0  0.23723987017E+02 -0.94824280924E+02  0.28493232671E+02  0.10181520574E+03  0.00000000000E+00 0. -1.
<mgrwt>
<rscale>  0 0.14772412E+03</rscale>
<asrwt>0</asrwt>
<pdfrwt beam="2">  1        1 0.53786149E-01 0.15419238E+03</pdfrwt>
<pdfrwt beam="1">  1       -1 0.15229427E-01 0.15419238E+03</pdfrwt>
<totfact> 0.22183464E+03</totfact>
</mgrwt>
</event>
<event>
 7    1  0.5928109E-006  0.1196319E+03  0.7546771E-02  0.1252370E+00
          2   -1    0    0  501    0  0.00000000000E+00  0.00000000000E+00  0.11771098161E+03  0.11771098161E+03  0.00000000000E+00 0. -1.
         -2   -1    0    0    0  501 -0.00000000000E+00 -0.00000000000E+00 -0.10897036164E+03  0.10897036164E+03  0.00000000000E+00 0.  1.
         23    2    1    2    0    0 -0.17534819392E+02  0.36799330621E+02  0.31218857009E+02  0.12363823614E+03  0.11247282239E+03 0.  0.
          5    1    3    3  502    0  0.50170651969E+01 -0.14362508483E+02  0.58941369497E+02  0.61054300678E+02  0.47000000000E+01 0. -1.
         -5    1    3    3    0  502 -0.22551884588E+02  0.51161839104E+02 -0.27722512487E+02  0.62583935459E+02  0.47000000000E+01 0.  1.
        -11    1    1    2    0    0 -0.15891389802E+02 -0.17454504368E+02  0.29819092701E+02  0.38031227723E+02  0.00000000000E+00 0.  1.
         11    1    1    2    0    0  0.33426209194E+02 -0.19344826253E+02 -0.52297329738E+02  0.65011879388E+02  0.00000000000E+00 0. -1.
<mgrwt>
<rscale>  0 0.11454951E+03</rscale>
<asrwt>0</asrwt>
<pdfrwt beam="1">  1        2 0.18109382E-01 0.11963192E+03</pdfrwt>
<pdfrwt beam="2">  1       -2 0.16764671E-01 0.11963192E+03</pdfrwt>
<totfact> 0.82734524E+03</totfact>
</mgrwt>
</event>
<event>
 7    1  0.5928109E-006  0.1687699E+03  0.7546771E-02  0.1183439E+00
         -2   -1    0    0    0  501 -0.00000000000E+00  0.00000000000E+00  0.44308255455E+02  0.44308255455E+02  0.00000000000E+00 0. -1.
          2   -1    0    0  501    0  0.00000000000E+00 -0.00000000000E+00 -0.61696323115E+03  0.61696323115E+03  0.00000000000E+00 0.  1.
         23    2    1    2    0    0 -0.10112905073E+03  0.51305190440E+02 -0.37451633003E+03  0.41078676768E+03  0.12499591821E+03 0.  0.
          5    1    3    3  502    0  0.15512303503E+02 -0.30695502952E+00 -0.16256380352E+03  0.16337015027E+03  0.47000000000E+01 0. -1.
         -5    1    3    3    0  502 -0.11664135423E+03  0.51612145470E+02 -0.21195252651E+03  0.24741661741E+03  0.47000000000E+01 0. -1.
        -11    1    1    2    0    0  0.70117735127E+02 -0.49368236524E+02 -0.20173574352E+03  0.21920545105E+03  0.00000000000E+00 0.  1.
         11    1    1    2    0    0  0.31011315604E+02 -0.19369539163E+01  0.35970978587E+01  0.31279267878E+02  0.00000000000E+00 0. -1.
<mgrwt>
<rscale>  0 0.16474682E+03</rscale>
<asrwt>0</asrwt>
<pdfrwt beam="2">  1        2 0.94917424E-01 0.16876992E+03</pdfrwt>
<pdfrwt beam="1">  1       -2 0.68166544E-02 0.16876992E+03</pdfrwt>
<totfact> 0.57839082E+03</totfact>
</mgrwt>
</event>
<event>
 7    1  0.5928109E-006  0.2148884E+03  0.7546771E-02  0.1141326E+00
          2   -1    0    0  501    0  0.00000000000E+00  0.00000000000E+00  0.61045956870E+03  0.61045956870E+03  0.00000000000E+00 0. -1.
         -2   -1    0    0    0  501 -0.00000000000E+00 -0.00000000000E+00 -0.84746344219E+02  0.84746344219E+02  0.00000000000E+00 0.  1.
         23    2    1    2    0    0 -0.17179391382E+03  0.32240640475E+02  0.41937875331E+03  0.47122770884E+03  0.12499762849E+03 0.  0.
          5    1    3    3  502    0 -0.56158225806E+02  0.56981289603E+02  0.86413345953E+02  0.11785571708E+03  0.47000000000E+01 0.  1.
         -5    1    3    3    0  502 -0.11563568801E+03 -0.24740649128E+02  0.33296540736E+03  0.35337199176E+03  0.47000000000E+01 0.  1.
        -11    1    1    2    0    0  0.32021813632E+02 -0.23691366537E+02  0.67974513966E+02  0.78785861330E+02  0.00000000000E+00 0. -1.
         11    1    1    2    0    0  0.13977210018E+03 -0.85492739382E+01  0.38359957198E+02  0.14519234274E+03  0.00000000000E+00 0.  1.
<mgrwt>
<rscale>  0 0.21030348E+03</rscale>
<asrwt>0</asrwt>
<pdfrwt beam="1">  1        2 0.93916854E-01 0.21488838E+03</pdfrwt>
<pdfrwt beam="2">  1       -2 0.13037900E-01 0.21488838E+03</pdfrwt>
<totfact> 0.21215356E+03</totfact>
</mgrwt>
</event>
<event>
 7    1  0.5928109E-006  0.3525252E+03  0.7546771E-02  0.1062429E+00
          2   -1    0    0  501    0  0.00000000000E+00  0.00000000000E+00  0.26399263292E+04  0.26399263292E+04  0.00000000000E+00 0.  1.
         -2   -1    0    0    0  501 -0.00000000000E+00 -0.00000000000E+00 -0.80109426776E+02  0.80109426776E+02  0.00000000000E+00 0. -1.
         23    2    1    2    0    0  0.23434824515E+03 -0.23179754705E+03  0.21761783571E+04  0.22045467267E+04  0.12499930070E+03 0.  0.
          5    1    3    3  502    0  0.13091996519E+03 -0.19245491047E+03  0.16868560419E+04  0.17028459490E+04  0.47000000000E+01 0.  1.
         -5    1    3    3    0  502  0.10342827996E+03 -0.39342636581E+02  0.48932231520E+03  0.50170077766E+03  0.47000000000E+01 0.  1.
        -11    1    1    2    0    0 -0.20736186019E+03  0.18289926522E+03  0.25876953861E+03  0.37869876735E+03  0.00000000000E+00 0.  1.
         11    1    1    2    0    0 -0.26986384955E+02  0.48898281832E+02  0.12486900673E+03  0.13679026201E+03  0.00000000000E+00 0. -1.
<mgrwt>
<rscale>  0 0.35045360E+03</rscale>
<asrwt>0</asrwt>
<pdfrwt beam="1">  1        2 0.40614245E+00 0.35252522E+03</pdfrwt>
<pdfrwt beam="2">  1       -2 0.12324529E-01 0.35252522E+03</pdfrwt>
<totfact> 0.15588867E+02</totfact>
</mgrwt>
</event>
<event>
 7    1  0.5928109E-006  0.1253570E+03  0.7546771E-02  0.1250037E+00
         -2   -1    0    0    0  501 -0.00000000000E+00  0.00000000000E+00  0.80248903722E+02  0.80248903722E+02  0.00000000000E+00 0. -1.
          2   -1    0    0  501    0  0.00000000000E+00 -0.00000000000E+00 -0.20140253172E+03  0.20140253172E+03  0.00000000000E+00 0.  1.
         23    2    1    2    0    0 -0.59133020578E+01 -0.73527529981E+01 -0.14026107193E+03  0.18811575807E+03  0.12500136006E+03 0.  0.
          5    1    3    3  502    0 -0.23528393162E+02 -0.59842286449E+02 -0.10194005053E+03  0.12061736373E+03  0.47000000000E+01 0. -1.
         -5    1    3    3    0  502  0.17615091104E+02  0.52489533451E+02 -0.38321021401E+02  0.67498394335E+02  0.47000000000E+01 0. -1.
        -11    1    1    2    0    0  0.20514823319E+02 -0.36350986262E+02 -0.41032906305E+01  0.41941497017E+02  0.00000000000E+00 0.  1.
         11    1    1    2    0    0 -0.14601521261E+02  0.43703739260E+02  0.23210734557E+02  0.51594180361E+02  0.00000000000E+00 0. -1.
<mgrwt>
<rscale>  0 0.11588885E+03</rscale>
<asrwt>0</asrwt>
<pdfrwt beam="2">  1        2 0.30985004E-01 0.12535697E+03</pdfrwt>
<pdfrwt beam="1">  1       -2 0.12345985E-01 0.12535697E+03</pdfrwt>
<totfact> 0.75291271E+03</totfact>
</mgrwt>
</event>
<event>
 7    1  0.5928109E-006  0.1626863E+03  0.7546771E-02  0.1192873E+00
          2   -1    0    0  501    0  0.00000000000E+00  0.00000000000E+00  0.13958226545E+04  0.13958226545E+04  0.00000000000E+00 0. -1.
         -2   -1    0    0    0  501 -0.00000000000E+00 -0.00000000000E+00 -0.18464437373E+02  0.18464437373E+02  0.00000000000E+00 0.  1.
         23    2    1    2    0    0  0.81920090838E+02  0.64269344815E+02  0.97931232872E+03  0.99273333342E+03  0.12500153653E+03 0.  0.
          5    1    3    3  502    0 -0.17012682828E+02 -0.13206371730E+02  0.46237135288E+02  0.51223064247E+02  0.47000000000E+01 0. -1.
         -5    1    3    3    0  502  0.98932773665E+02  0.77475716545E+02  0.93307519343E+03  0.94151026917E+03  0.47000000000E+01 0. -1.
        -11    1    1    2    0    0 -0.18249085798E+02 -0.28249881580E+02  0.26342188009E+02  0.42719969697E+02  0.00000000000E+00 0.  1.
         11    1    1    2    0    0 -0.63671005040E+02 -0.36019463234E+02  0.37170370039E+03  0.37883378874E+03  0.00000000000E+00 0. -1.
<mgrwt>
<rscale>  0 0.15635621E+03</rscale>
<asrwt>0</asrwt>
<pdfrwt beam="1">  1        2 0.21474186E+00 0.16268631E+03</pdfrwt>
<pdfrwt beam="2">  1       -2 0.28406838E-02 0.16268631E+03</pdfrwt>
<totfact> 0.70304544E+03</totfact>
</mgrwt>
</event>
<event>
 7    1  0.2558773E-005  0.2709079E+03  0.7546771E-02  0.1102785E+00
         -1   -1    0    0    0  501 -0.00000000000E+00  0.00000000000E+00  0.74748567539E+02  0.74748567539E+02  0.00000000000E+00 0.  1.
          1   -1    0    0  501    0  0.00000000000E+00 -0.00000000000E+00 -0.93260876834E+03  0.93260876834E+03  0.00000000000E+00 0. -1.
         23    2    1    2    0    0  0.23364733094E+03  0.56346613644E+02 -0.44739857365E+03  0.52302635915E+03  0.12500029015E+03 0.  0.
          5    1    3    3  502    0  0.18781883159E+03 -0.84193198182E+01 -0.34988106605E+03  0.39722241733E+03  0.47000000000E+01 0. -1.
         -5    1    3    3    0  502  0.45828499343E+02  0.64765933463E+02 -0.97517507604E+02  0.12580394182E+03  0.47000000000E+01 0. -1.
        -11    1    1    2    0    0 -0.18000326549E+03 -0.79181880144E+01 -0.33141558565E+03  0.37722693926E+03  0.00000000000E+00 0.  1.
         11    1    1    2    0    0 -0.53644065442E+02 -0.48428425630E+02 -0.79046041501E+02  0.10710403747E+03  0.00000000000E+00 0. -1.
<mgrwt>
<rscale>  0 0.26738656E+03</rscale>
<asrwt>0</asrwt>
<pdfrwt beam="2">  1        1 0.14347827E+00 0.27090790E+03</pdfrwt>
<pdfrwt beam="1">  1       -1 0.11499780E-01 0.27090790E+03</pdfrwt>
<totfact> 0.88387734E+02</totfact>
</mgrwt>
</event>
<event>
 7    1  0.5928109E-006  0.1276598E+03  0.7546771E-02  0.1245567E+00
         -1   -1    0    0    0  501 -0.00000000000E+00  0.00000000000E+00  0.24267411452E+03  0.24267411452E+03  0.00000000000E+00 0.  1.
          1   -1    0    0  501    0  0.00000000000E+00 -0.00000000000E+00 -0.51051796063E+02  0.51051796063E+02  0.00000000000E+00 0. -1.
         23    2    1    2    0    0 -0.24130832567E+02  0.95317550985E+01  0.10507875275E+03  0.16534382002E+03  0.12499553234E+03 0.  0.
          5    1    3    3  502    0 -0.67458183574E+02  0.33269513541E+02  0.79384311918E+02  0.10945970053E+03  0.47000000000E+01 0.  1.
         -5    1    3    3    0  502  0.43327351007E+02 -0.23737758442E+02  0.25694440831E+02  0.55884119486E+02  0.47000000000E+01 0.  1.
        -11    1    1    2    0    0 -0.13048062481E+02 -0.27343521556E+02  0.81377365260E+02  0.86834300148E+02  0.00000000000E+00 0.  1.
         11    1    1    2    0    0  0.37178895047E+02  0.17811766457E+02  0.51662004491E+01  0.41547790415E+02  0.00000000000E+00 0. -1.
<mgrwt>
<rscale>  0 0.11851513E+03</rscale>
<asrwt>0</asrwt>
<pdfrwt beam="2">  1        1 0.78541226E-02 0.12765984E+03</pdfrwt>
<pdfrwt beam="1">  1       -1 0.37334478E-01 0.12765984E+03</pdfrwt>
<totfact> 0.58895727E+03</totfact>
</mgrwt>
</event>
<event>
 7    1  0.5928109E-006  0.2224084E+03  0.7546771E-02  0.1135550E+00
          1   -1    0    0  501    0  0.00000000000E+00  0.00000000000E+00  0.80075791145E+03  0.80075791145E+03  0.00000000000E+00 0. -1.
         -1   -1    0    0    0  501 -0.00000000000E+00 -0.00000000000E+00 -0.61299182442E+02  0.61299182442E+02  0.00000000000E+00 0.  1.
         23    2    1    2    0    0 -0.18395902692E+03  0.22367503805E+00  0.49968265229E+03  0.54694448272E+03  0.12499816224E+03 0.  0.
          5    1    3    3  502    0 -0.14498769488E+03  0.46502636321E+02  0.27681746057E+03  0.31596506663E+03  0.47000000000E+01 0. -1.
         -5    1    3    3    0  502 -0.38971332038E+02 -0.46278961283E+02  0.22286519172E+03  0.23097941609E+03  0.47000000000E+01 0. -1.
        -11    1    1    2    0    0  0.57059124011E+02 -0.36110615600E+02  0.11614115339E+03  0.13434466012E+03  0.00000000000E+00 0.  1.
         11    1    1    2    0    0  0.12689990291E+03  0.35886940562E+02  0.12363492334E+03  0.18076795106E+03  0.00000000000E+00 0. -1.
<mgrwt>
<rscale>  0 0.21777844E+03</rscale>
<asrwt>0</asrwt>
<pdfrwt beam="1">  1        1 0.12319352E+00 0.22240844E+03</pdfrwt>
<pdfrwt beam="2">  1       -1 0.94306440E-02 0.22240844E+03</pdfrwt>
<totfact> 0.15344331E+03</totfact>
</mgrwt>
</event>
<event>
 7    1  0.5928109E-006  0.1401347E+03  0.7546771E-02  0.1224665E+00
          2   -1    0    0  501    0  0.00000000000E+00  0.00000000000E+00  0.21769653058E+03  0.21769653058E+03  0.00000000000E+00 0. -1.
         -2   -1    0    0    0  501 -0.00000000000E+00 -0.00000000000E+00 -0.72781740420E+02  0.72781740420E+02  0.00000000000E+00 0.  1.
         23    2    1    2    0    0 -0.53612177863E+01  0.63110422635E+02  0.97457651463E+02  0.17069187629E+03  0.12500421873E+03 0.  0.
          5    1    3    3  502    0  0.29497976351E+02  0.73743585775E+02  0.15758301155E+02  0.81108945913E+02  0.47000000000E+01 0. -1.
         -5    1    3    3    0  502 -0.34859194137E+02 -0.10633163140E+02  0.81699350308E+02  0.89582930378E+02  0.47000000000E+01 0. -1.
        -11    1    1    2    0    0  0.11541685173E+01 -0.35295481544E+02 -0.24196375058E+02  0.42808500188E+02  0.00000000000E+00 0.  1.
         11    1    1    2    0    0  0.42070492690E+01 -0.27814941091E+02  0.71653513752E+02  0.76977894518E+02  0.00000000000E+00 0. -1.
<mgrwt>
<rscale>  0 0.13189918E+03</rscale>
<asrwt>0</asrwt>
<pdfrwt beam="1">  1        2 0.33491774E-01 0.14013466E+03</pdfrwt>
<pdfrwt beam="2">  1       -2 0.11197191E-01 0.14013466E+03</pdfrwt>
<totfact> 0.81550394E+03</totfact>
</mgrwt>
</event>
<event>
 7    1  0.5928109E-006  0.1409310E+03  0.7546771E-02  0.1222712E+00
         -1   -1    0    0    0  501 -0.00000000000E+00  0.00000000000E+00  0.18294689466E+03  0.18294689466E+03  0.00000000000E+00 0.  1.
          1   -1    0    0  501    0  0.00000000000E+00 -0.00000000000E+00 -0.87921891060E+02  0.87921891060E+02  0.00000000000E+00 0. -1.
         23    2    1    2    0    0  0.25097728857E+02 -0.60078048321E+02  0.49141450772E+02  0.14925290651E+03  0.12498911967E+03 0.  0.
          5    1    3    3  502    0  0.67338374418E+02 -0.93413525322E+01  0.47463524652E+02  0.83045732634E+02  0.47000000000E+01 0. -1.
         -5    1    3    3    0  502 -0.42240645560E+02 -0.50736695789E+02  0.16779261197E+01  0.66207173878E+02  0.47000000000E+01 0. -1.
        -11    1    1    2    0    0 -0.30799039416E+02  0.46093446693E+01  0.56818112844E+02  0.64792938152E+02  0.00000000000E+00 0.  1.
         11    1    1    2    0    0  0.57013105591E+01  0.55468703652E+02 -0.10934560020E+02  0.56822941051E+02  0.00000000000E+00 0. -1.
<mgrwt>
<rscale>  0 0.13324985E+03</rscale>
<asrwt>0</asrwt>
<pdfrwt beam="2">  1        1 0.13526445E-01 0.14093100E+03</pdfrwt>
<pdfrwt beam="1">  1       -1 0.28145676E-01 0.14093100E+03</pdfrwt>
<totfact> 0.46662418E+03</totfact>
</mgrwt>
</event>
<event>
 7    1  0.5928109E-006  0.1248969E+03  0.7546771E-02  0.1250573E+00
          4   -1    0    0  501    0  0.00000000000E+00  0.00000000000E+00  0.40417538116E+02  0.40417538116E+02  0.00000000000E+00 0. -1.
         -4   -1    0    0    0  501 -0.00000000000E+00 -0.00000000000E+00 -0.28996844787E+03  0.28996844787E+03  0.00000000000E+00 0.  1.
         23    2    1    2    0    0  0.57194045278E+00 -0.27103570575E+01 -0.14646538188E+03  0.19248725797E+03  0.12486618133E+03 0.  0.
          5    1    3    3  502    0  0.47241285851E+02 -0.40353220689E+02 -0.93432921760E+02  0.11230281554E+03  0.47000000000E+01 0.  1.
         -5    1    3    3    0  502 -0.46669345398E+02  0.37642863631E+02 -0.53032460117E+02  0.80184442433E+02  0.47000000000E+01 0.  1.
        -11    1    1    2    0    0  0.38173160001E+02 -0.64499544396E+01 -0.86501202584E+02  0.94769457661E+02  0.00000000000E+00 0.  1.
         11    1    1    2    0    0 -0.38745100454E+02  0.91603114972E+01 -0.16584325291E+02  0.43129270354E+02  0.00000000000E+00 0. -1.
<mgrwt>
<rscale>  0 0.11557937E+03</rscale>
<asrwt>0</asrwt>
<pdfrwt beam="1">  1        4 0.62180830E-02 0.12489690E+03</pdfrwt>
<pdfrwt beam="2">  1       -4 0.44610529E-01 0.12489690E+03</pdfrwt>
<totfact> 0.13259629E+03</totfact>
</mgrwt>
</event>
<event>
 7    1  0.5928109E-006  0.1446325E+03  0.7546771E-02  0.1217573E+00
         -1   -1    0    0    0  501 -0.00000000000E+00  0.00000000000E+00  0.49821301199E+02  0.49821301199E+02  0.00000000000E+00 0.  1.
          1   -1    0    0  501    0  0.00000000000E+00 -0.00000000000E+00 -0.36545294965E+03  0.36545294965E+03  0.00000000000E+00 0. -1.
         23    2    1    2    0    0 -0.59081675153E+02 -0.42475625661E+02 -0.22730876850E+03  0.26942127802E+03  0.12499490268E+03 0.  0.
          5    1    3    3  502    0  0.78342485679E-01 -0.75988051942E+02 -0.12918484804E+03  0.14995000879E+03  0.47000000000E+01 0.  1.
         -5    1    3    3    0  502 -0.59160017639E+02  0.33512426281E+02 -0.98123920466E+02  0.11947126922E+03  0.47000000000E+01 0.  1.
        -11    1    1    2    0    0  0.79011312284E+02  0.19624278862E+02 -0.45142121879E+02  0.93089800501E+02  0.00000000000E+00 0.  1.
         11    1    1    2    0    0 -0.19929637130E+02  0.22851346798E+02 -0.43180758067E+02  0.52763172326E+02  0.00000000000E+00 0. -1.
<mgrwt>
<rscale>  0 0.13689229E+03</rscale>
<asrwt>0</asrwt>
<pdfrwt beam="2">  1        1 0.56223529E-01 0.14463246E+03</pdfrwt>
<pdfrwt beam="1">  1       -1 0.76648158E-02 0.14463246E+03</pdfrwt>
<totfact> 0.60152544E+03</totfact>
</mgrwt>
</event>
<event>
 7    1  0.5928109E-006  0.2022895E+03  0.7546771E-02  0.1150828E+00
         -1   -1    0    0    0  501 -0.00000000000E+00  0.00000000000E+00  0.31666140055E+02  0.31666140055E+02  0.00000000000E+00 0.  1.
          1   -1    0    0  501    0  0.00000000000E+00 -0.00000000000E+00 -0.16071611763E+04  0.16071611763E+04  0.00000000000E+00 0. -1.
         23    2    1    2    0    0  0.53862184199E+02 -0.14964828900E+03 -0.12185813218E+04  0.12352576537E+04  0.12500115224E+03 0.  0.
          5    1    3    3  502    0  0.96555629752E+00 -0.36853651643E+02 -0.64335791875E+02  0.74298775592E+02  0.47000000000E+01 0. -1.
         -5    1    3    3    0  502  0.52896627902E+02 -0.11279463736E+03 -0.11542455299E+04  0.11609588781E+04  0.47000000000E+01 0. -1.
        -11    1    1    2    0    0  0.19069543640E+02  0.20225756878E+02 -0.12575350550E+03  0.12878925763E+03  0.00000000000E+00 0. -1.
         11    1    1    2    0    0 -0.72931727839E+02  0.12942253213E+03 -0.23116020894E+03  0.27478040495E+03  0.00000000000E+00 0.  1.
<mgrwt>
<rscale>  0 0.19871450E+03</rscale>
<asrwt>0</asrwt>
<pdfrwt beam="2">  1        1 0.24725550E+00 0.20228948E+03</pdfrwt>
<pdfrwt beam="1">  1       -1 0.48717151E-02 0.20228948E+03</pdfrwt>
<totfact> 0.11181853E+03</totfact>
</mgrwt>
</event>
<event>
 7    1  0.5928109E-006  0.1582095E+03  0.7546771E-02  0.1198758E+00
          1   -1    0    0  501    0  0.00000000000E+00  0.00000000000E+00  0.64917689942E+02  0.64917689942E+02  0.00000000000E+00 0. -1.
         -1   -1    0    0    0  501 -0.00000000000E+00 -0.00000000000E+00 -0.33007080030E+03  0.33007080030E+03  0.00000000000E+00 0.  1.
         23    2    1    2    0    0  0.12531524247E+02  0.96150523896E+02 -0.12193597956E+03  0.19974642356E+03  0.12501315239E+03 0.  0.
          5    1    3    3  502    0  0.27052674217E+02  0.11860186381E+03 -0.68196521732E+02  0.13953890088E+03  0.47000000000E+01 0. -1.
         -5    1    3    3    0  502 -0.14521149970E+02 -0.22451339914E+02 -0.53739457828E+02  0.60207522687E+02  0.47000000000E+01 0. -1.
        -11    1    1    2    0    0 -0.19399039600E+02 -0.72751051129E+02 -0.15175302197E+03  0.16940489325E+03  0.00000000000E+00 0.  1.
         11    1    1    2    0    0  0.68675153529E+01 -0.23399472767E+02  0.85358911750E+01  0.25837173434E+02  0.00000000000E+00 0. -1.
<mgrwt>
<rscale>  0 0.15140464E+03</rscale>
<asrwt>0</asrwt>
<pdfrwt beam="1">  1        1 0.99873366E-02 0.15820951E+03</pdfrwt>
<pdfrwt beam="2">  1       -1 0.50780125E-01 0.15820951E+03</pdfrwt>
<totfact> 0.25011219E+03</totfact>
</mgrwt>
</event>
<event>
 7    1  0.5928109E-006  0.1433317E+03  0.7546771E-02  0.1219029E+00
          1   -1    0    0  501    0  0.00000000000E+00  0.00000000000E+00  0.46915007883E+03  0.46915007883E+03  0.00000000000E+00 0. -1.
         -1   -1    0    0    0  501 -0.00000000000E+00 -0.00000000000E+00 -0.35831934048E+02  0.35831934048E+02  0.00000000000E+00 0.  1.
         23    2    1    2    0    0  0.36999082784E+02  0.59599283752E+02  0.25224331822E+03  0.29012183919E+03  0.12499193269E+03 0.  0.
          5    1    3    3  502    0 -0.71161539645E+00 -0.33671922371E+02  0.27118847716E+02  0.43495133682E+02  0.47000000000E+01 0.  1.
         -5    1    3    3    0  502  0.37710698180E+02  0.93271206123E+02  0.22512447050E+03  0.24662670551E+03  0.47000000000E+01 0.  1.
        -11    1    1    2    0    0 -0.41083063933E+02 -0.82536716304E+02  0.14898545174E+03  0.17520500138E+03  0.00000000000E+00 0.  1.
         11    1    1    2    0    0  0.40839811494E+01  0.22937432552E+02  0.32089374829E+02  0.39655172311E+02  0.00000000000E+00 0. -1.
<mgrwt>
<rscale>  0 0.13584724E+03</rscale>
<asrwt>0</asrwt>
<pdfrwt beam="1">  1        1 0.72176931E-01 0.14333175E+03</pdfrwt>
<pdfrwt beam="2">  1       -1 0.55126056E-02 0.14333175E+03</pdfrwt>
<totfact> 0.71707483E+03</totfact>
</mgrwt>
</event>
<event>
 7    1  0.5928109E-006  0.1355395E+03  0.7546771E-02  0.1231308E+00
          1   -1    0    0  501    0  0.00000000000E+00  0.00000000000E+00  0.45845003357E+02  0.45845003357E+02  0.00000000000E+00 0. -1.
         -1   -1    0    0    0  501 -0.00000000000E+00 -0.00000000000E+00 -0.33437507301E+03  0.33437507301E+03  0.00000000000E+00 0.  1.
         23    2    1    2    0    0  0.41019744778E+01  0.52244988632E+02 -0.11925188664E+03  0.18053246547E+03  0.12499837435E+03 0.  0.
          5    1    3    3  502    0  0.22343478262E+02  0.75221295567E+02 -0.26214167211E+02  0.82865836689E+02  0.47000000000E+01 0.  1.
         -5    1    3    3    0  502 -0.18241503785E+02 -0.22976306935E+02 -0.93037719431E+02  0.97666628782E+02  0.47000000000E+01 0.  1.
        -11    1    1    2    0    0  0.24530297545E+02  0.10665193332E+02 -0.92914319946E+02  0.96687913916E+02  0.00000000000E+00 0.  1.
         11    1    1    2    0    0 -0.28632272023E+02 -0.62910181964E+02 -0.76363863068E+02  0.10299969698E+03  0.00000000000E+00 0. -1.
<mgrwt>
<rscale>  0 0.12743794E+03</rscale>
<asrwt>0</asrwt>
<pdfrwt beam="1">  1        1 0.70530775E-02 0.13553951E+03</pdfrwt>
<pdfrwt beam="2">  1       -1 0.51442318E-01 0.13553951E+03</pdfrwt>
<totfact> 0.38615885E+03</totfact>
</mgrwt>
</event>
<event>
 7    1  0.5928109E-006  0.1290214E+03  0.7546771E-02  0.1242746E+00
         -2   -1    0    0    0  501 -0.00000000000E+00  0.00000000000E+00  0.23526887769E+03  0.23526887769E+03  0.00000000000E+00 0.  1.
          2   -1    0    0  501    0  0.00000000000E+00 -0.00000000000E+00 -0.57708614506E+02  0.57708614506E+02  0.00000000000E+00 0. -1.
         23    2    1    2    0    0  0.24804667744E+02  0.20299715534E+02  0.65772532041E+02  0.14481905187E+03  0.12497672512E+03 0.  0.
          5    1    3    3  502    0  0.32876588523E+02  0.65612841532E+02  0.65610059872E+02  0.98552955324E+02  0.47000000000E+01 0.  1.
         -5    1    3    3    0  502 -0.80719207786E+01 -0.45313125998E+02  0.16247216980E+00  0.46266096550E+02  0.47000000000E+01 0.  1.
        -11    1    1    2    0    0  0.31687299756E+02  0.73203766736E+01  0.25182319291E+02  0.41131764919E+02  0.00000000000E+00 0. -1.
         11    1    1    2    0    0 -0.56491967501E+02 -0.27620092208E+02  0.86605411848E+02  0.10702667540E+03  0.00000000000E+00 0.  1.
<mgrwt>
<rscale>  0 0.12021283E+03</rscale>
<asrwt>0</asrwt>
<pdfrwt beam="2">  1        2 0.88782485E-02 0.12902144E+03</pdfrwt>
<pdfrwt beam="1">  1       -2 0.36195211E-01 0.12902144E+03</pdfrwt>
<totfact> 0.50821072E+03</totfact>
</mgrwt>
</event>
<event>
 7    1  0.5928109E-006  0.1312835E+03  0.7546771E-02  0.1239764E+00
          4   -1    0    0  501    0  0.00000000000E+00  0.00000000000E+00  0.72312215438E+02  0.72312215438E+02  0.00000000000E+00 0. -1.
         -4   -1    0    0    0  501 -0.00000000000E+00 -0.00000000000E+00 -0.26207004726E+03  0.26207004726E+03  0.00000000000E+00 0.  1.
         23    2    1    2    0    0  0.33392397793E+02  0.22119586783E+02 -0.12578033171E+02  0.13188467323E+03  0.12502412474E+03 0.  0.
          5    1    3    3  502    0 -0.15965610972E+02  0.33826144666E+02 -0.54253404415E+02  0.66065351640E+02  0.47000000000E+01 0.  1.
         -5    1    3    3    0  502  0.49358008765E+02 -0.11706557882E+02  0.41675371245E+02  0.65819321594E+02  0.47000000000E+01 0.  1.
        -11    1    1    2    0    0 -0.12077379947E+02  0.34331111761E+02 -0.83234061232E+02  0.90842706313E+02  0.00000000000E+00 0.  1.
         11    1    1    2    0    0 -0.21315017846E+02 -0.56450698544E+02 -0.93945737417E+02  0.11165488315E+03  0.00000000000E+00 0. -1.
<mgrwt>
<rscale>  0 0.12204295E+03</rscale>
<asrwt>0</asrwt>
<pdfrwt beam="1">  1        4 0.11124956E-01 0.13128351E+03</pdfrwt>
<pdfrwt beam="2">  1       -4 0.40318469E-01 0.13128351E+03</pdfrwt>
<totfact> 0.62352332E+02</totfact>
</mgrwt>
</event>
<event>
 7    1  0.5928109E-006  0.1295458E+03  0.7546771E-02  0.1229818E+00
          1   -1    0    0  501    0  0.00000000000E+00  0.00000000000E+00  0.42670708420E+03  0.42670708420E+03  0.00000000000E+00 0. -1.
         -1   -1    0    0    0  501 -0.00000000000E+00 -0.00000000000E+00 -0.38356270669E+02  0.38356270669E+02  0.00000000000E+00 0.  1.
         23    2    1    2    0    0  0.38502022169E+01 -0.33457967312E+01  0.21347610350E+03  0.24743229426E+03  0.12499870026E+03 0.  0.
          5    1    3    3  502    0 -0.29026066527E+02  0.62795383278E+01  0.21060014432E+03  0.21273564799E+03  0.47000000000E+01 0.  1.
         -5    1    3    3    0  502  0.32876268744E+02 -0.96253350589E+01  0.28759591851E+01  0.34696646276E+02  0.47000000000E+01 0.  1.
        -11    1    1    2    0    0  0.18858743430E+02 -0.53447191738E+02  0.39510106935E+02  0.69089095076E+02  0.00000000000E+00 0.  1.
         11    1    1    2    0    0 -0.22708945647E+02  0.56792988469E+02  0.13536460310E+03  0.14854196553E+03  0.00000000000E+00 0. -1.
<mgrwt>
<rscale>  0 0.12842045E+03</rscale>
<asrwt>0</asrwt>
<pdfrwt beam="1">  1        1 0.65647240E-01 0.12954580E+03</pdfrwt>
<pdfrwt beam="2">  1       -1 0.59009650E-02 0.12954580E+03</pdfrwt>
<totfact> 0.72704785E+03</totfact>
</mgrwt>
</event>
<event>
 7    1  0.5928109E-006  0.1525525E+03  0.7546771E-02  0.1205904E+00
         -1   -1    0    0    0  501 -0.00000000000E+00  0.00000000000E+00  0.22407117116E+03  0.22407117116E+03  0.00000000000E+00 0.  1.
          1   -1    0    0  501    0  0.00000000000E+00 -0.00000000000E+00 -0.18429382127E+03  0.18429382127E+03  0.00000000000E+00 0. -1.
         23    2    1    2    0    0  0.65426609332E+02  0.58023489425E+02 -0.12724704168E+03  0.19865570297E+03  0.12499964869E+03 0.  0.
          5    1    3    3  502    0  0.66611013240E+02  0.89842550395E+02 -0.12279889237E+03  0.16616368109E+03  0.47000000000E+01 0. -1.
         -5    1    3    3    0  502 -0.11844039082E+01 -0.31819060969E+02 -0.44481493101E+01  0.32492021880E+02  0.47000000000E+01 0. -1.
        -11    1    1    2    0    0 -0.59286837663E+02 -0.77896552437E+02  0.10172154071E+03  0.14117391347E+03  0.00000000000E+00 0. -1.
         11    1    1    2    0    0 -0.61397716688E+01  0.19873063011E+02  0.65302850861E+02  0.68535375976E+02  0.00000000000E+00 0.  1.
<mgrwt>
<rscale>  0 0.14566432E+03</rscale>
<asrwt>0</asrwt>
<pdfrwt beam="2">  1        1 0.28352896E-01 0.15255254E+03</pdfrwt>
<pdfrwt beam="1">  1       -1 0.34472488E-01 0.15255254E+03</pdfrwt>
<totfact> 0.12918490E+03</totfact>
</mgrwt>
</event>
<event>
 7    1  0.5928109E-006  0.1491514E+03  0.7546771E-02  0.1209690E+00
         -3   -1    0    0    0  501 -0.00000000000E+00  0.00000000000E+00  0.36647402220E+03  0.36647402220E+03  0.00000000000E+00 0.  1.
          3   -1    0    0  501    0  0.00000000000E+00 -0.00000000000E+00 -0.61698287402E+02  0.61698287402E+02  0.00000000000E+00 0. -1.
         23    2    1    2    0    0 -0.16971203505E+02 -0.79575331580E+02  0.75943948216E+02  0.16737272802E+03  0.12500356663E+03 0.  0.
          5    1    3    3  502    0 -0.57339104633E+02 -0.89091369592E+02  0.64365942752E+02  0.12405688067E+03  0.47000000000E+01 0. -1.
         -5    1    3    3    0  502  0.40367901128E+02  0.95160380112E+01  0.11578005464E+02  0.43315847348E+02  0.47000000000E+01 0. -1.
        -11    1    1    2    0    0  0.28212583334E+02  0.23824979550E+02  0.18592698423E+03  0.18955849486E+03  0.00000000000E+00 0. -1.
         11    1    1    2    0    0 -0.11241379829E+02  0.55750352030E+02  0.42904802345E+02  0.71241086714E+02  0.00000000000E+00 0.  1.
<mgrwt>
<rscale>  0 0.14273921E+03</rscale>
<asrwt>0</asrwt>
<pdfrwt beam="2">  1        3 0.94920444E-02 0.14915142E+03</pdfrwt>
<pdfrwt beam="1">  1       -3 0.56380618E-01 0.14915142E+03</pdfrwt>
<totfact> 0.59126983E+02</totfact>
</mgrwt>
</event>
<event>
 7    1  0.5928109E-006  0.1681161E+03  0.7546771E-02  0.1185139E+00
          1   -1    0    0  501    0  0.00000000000E+00  0.00000000000E+00  0.74559730329E+03  0.74559730329E+03  0.00000000000E+00 0. -1.
         -1   -1    0    0    0  501 -0.00000000000E+00 -0.00000000000E+00 -0.41003954661E+02  0.41003954661E+02  0.00000000000E+00 0.  1.
         23    2    1    2    0    0 -0.11175527486E+03  0.12176668822E+02  0.53441811388E+03  0.56023720834E+03  0.12500198575E+03 0.  0.
          5    1    3    3  502    0 -0.47096581256E+02  0.40711902450E+02  0.86068278889E+02  0.10632678683E+03  0.47000000000E+01 0. -1.
         -5    1    3    3    0  502 -0.64658693605E+02 -0.28535233628E+02  0.44834983499E+03  0.45391042151E+03  0.47000000000E+01 0. -1.
        -11    1    1    2    0    0  0.95566607111E+02 -0.33657949210E+02  0.71294418480E+02  0.12388998364E+03  0.00000000000E+00 0.  1.
         11    1    1    2    0    0  0.16188667750E+02  0.21481280389E+02  0.98880816273E+02  0.10247406597E+03  0.00000000000E+00 0. -1.
<mgrwt>
<rscale>  0 0.16319202E+03</rscale>
<asrwt>0</asrwt>
<pdfrwt beam="1">  1        1 0.11470727E+00 0.16811606E+03</pdfrwt>
<pdfrwt beam="2">  1       -1 0.63083013E-02 0.16811606E+03</pdfrwt>
<totfact> 0.31313686E+03</totfact>
</mgrwt>
</event>
<event>
 7    1  0.5928109E-006  0.1450199E+03  0.7546771E-02  0.1216005E+00
          2   -1    0    0  501    0  0.00000000000E+00  0.00000000000E+00  0.35801023180E+03  0.35801023180E+03  0.00000000000E+00 0. -1.
         -2   -1    0    0    0  501 -0.00000000000E+00 -0.00000000000E+00 -0.50711155878E+02  0.50711155878E+02  0.00000000000E+00 0.  1.
         23    2    1    2    0    0 -0.59089320870E+02  0.43753932990E+02  0.20886492919E+03  0.25427414955E+03  0.12499931995E+03 0.  0.
          5    1    3    3  502    0  0.36473078782E+02 -0.49925078742E+01  0.63495562856E+02  0.73545816422E+02  0.47000000000E+01 0. -1.
         -5    1    3    3    0  502 -0.95562399652E+02  0.48746440864E+02  0.14536936634E+03  0.18072833312E+03  0.47000000000E+01 0. -1.
        -11    1    1    2    0    0  0.38370203008E+02  0.24674036189E+02  0.52103826108E+02  0.69252359063E+02  0.00000000000E+00 0. -1.
         11    1    1    2    0    0  0.20719117861E+02 -0.68427969179E+02  0.46330320619E+02  0.85194879069E+02  0.00000000000E+00 0.  1.
<mgrwt>
<rscale>  0 0.13802940E+03</rscale>
<asrwt>0</asrwt>
<pdfrwt beam="1">  1        2 0.55078496E-01 0.14501995E+03</pdfrwt>
<pdfrwt beam="2">  1       -2 0.78017165E-02 0.14501995E+03</pdfrwt>
<totfact> 0.84706300E+03</totfact>
</mgrwt>
</event>
<event>
 7    1  0.5928109E-006  0.1519399E+03  0.7546771E-02  0.1207924E+00
         -2   -1    0    0    0  501 -0.00000000000E+00  0.00000000000E+00  0.11544420117E+03  0.11544420117E+03  0.00000000000E+00 0.  1.
          2   -1    0    0  501    0  0.00000000000E+00 -0.00000000000E+00 -0.21495355995E+03  0.21495355995E+03  0.00000000000E+00 0. -1.
         23    2    1    2    0    0  0.44423135668E+02  0.74077271608E+02 -0.13417055184E+03  0.20270047211E+03  0.12499954903E+03 0.  0.
          5    1    3    3  502    0 -0.36204607229E+01  0.88234545504E+02 -0.42460339332E+02  0.98098996795E+02  0.47000000000E+01 0.  1.
         -5    1    3    3    0  502  0.48043596391E+02 -0.14157273895E+02 -0.91710212511E+02  0.10460147531E+03  0.47000000000E+01 0.  1.
        -11    1    1    2    0    0 -0.65326724457E+02 -0.25773796455E+02  0.21489669689E+02  0.73441646327E+02  0.00000000000E+00 0.  1.
         11    1    1    2    0    0  0.20903588789E+02 -0.48303475154E+02  0.13171523374E+02  0.54255642694E+02  0.00000000000E+00 0. -1.
<mgrwt>
<rscale>  0 0.14409362E+03</rscale>
<asrwt>0</asrwt>
<pdfrwt beam="2">  1        2 0.33069778E-01 0.15193994E+03</pdfrwt>
<pdfrwt beam="1">  1       -2 0.17760646E-01 0.15193994E+03</pdfrwt>
<totfact> 0.39227162E+03</totfact>
</mgrwt>
</event>
<event>
 7    1  0.5928109E-006  0.1345122E+03  0.7546771E-02  0.1233535E+00
          3   -1    0    0  501    0  0.00000000000E+00  0.00000000000E+00  0.14601018772E+03  0.14601018772E+03  0.00000000000E+00 0. -1.
         -3   -1    0    0    0  501 -0.00000000000E+00 -0.00000000000E+00 -0.98342420468E+02  0.98342420468E+02  0.00000000000E+00 0.  1.
         23    2    1    2    0    0  0.45402644514E+02 -0.20138251366E+02  0.12796305891E+02  0.13511952773E+03  0.12500636797E+03 0.  0.
          5    1    3    3  502    0  0.59411681181E+01  0.45391379839E+02 -0.21933946576E+02  0.50979043290E+02  0.47000000000E+01 0.  1.
         -5    1    3    3    0  502  0.39461476396E+02 -0.65529631205E+02  0.34730252467E+02  0.84140484439E+02  0.47000000000E+01 0.  1.
        -11    1    1    2    0    0 -0.65082282675E+02  0.23360958326E+02  0.49038296013E+02  0.84771412445E+02  0.00000000000E+00 0. -1.
         11    1    1    2    0    0  0.19679638161E+02 -0.32227069598E+01 -0.14166834647E+02  0.24461668018E+02  0.00000000000E+00 0.  1.
<mgrwt>
<rscale>  0 0.12598669E+03</rscale>
<asrwt>0</asrwt>
<pdfrwt beam="1">  1        3 0.22463106E-01 0.13451223E+03</pdfrwt>
<pdfrwt beam="2">  1       -3 0.15129603E-01 0.13451223E+03</pdfrwt>
<totfact> 0.15300446E+03</totfact>
</mgrwt>
</event>
<event>
 7    1  0.5928109E-006  0.1425979E+03  0.7546771E-02  0.1220185E+00
         -1   -1    0    0    0  501 -0.00000000000E+00  0.00000000000E+00  0.16564585189E+02  0.16564585189E+02  0.00000000000E+00 0.  1.
          1   -1    0    0  501    0  0.00000000000E+00 -0.00000000000E+00 -0.17107136028E+04  0.17107136028E+04  0.00000000000E+00 0. -1.
         23    2    1    2    0    0 -0.13176143635E+02 -0.67353489751E+02 -0.14560970899E+04  0.14630628522E+04  0.12499628353E+03 0.  0.
          5    1    3    3  502    0 -0.40690326517E+01 -0.52193072722E+02 -0.14311960486E+04  0.14321609174E+04  0.47000000000E+01 0.  1.
         -5    1    3    3    0  502 -0.91071109829E+01 -0.15160417029E+02 -0.24901041344E+02  0.30901934809E+02  0.47000000000E+01 0.  1.
        -11    1    1    2    0    0  0.46800904030E+02  0.21166831930E+02 -0.70761224410E+02  0.87438608589E+02  0.00000000000E+00 0.  1.
         11    1    1    2    0    0 -0.33624760395E+02  0.46186657821E+02 -0.16729070329E+03  0.17677672720E+03  0.00000000000E+00 0. -1.
<mgrwt>
<rscale>  0 0.13502482E+03</rscale>
<asrwt>0</asrwt>
<pdfrwt beam="2">  1        1 0.26318689E+00 0.14259795E+03</pdfrwt>
<pdfrwt beam="1">  1       -1 0.25483960E-02 0.14259795E+03</pdfrwt>
<totfact> 0.24910598E+03</totfact>
</mgrwt>
</event>
<event>
 7    1  0.5928109E-006  0.1242954E+03  0.7546771E-02  0.1245787E+00
         -1   -1    0    0    0  501 -0.00000000000E+00  0.00000000000E+00  0.39343220962E+02  0.39343220962E+02  0.00000000000E+00 0.  1.
          1   -1    0    0  501    0  0.00000000000E+00 -0.00000000000E+00 -0.12652418759E+04  0.12652418759E+04  0.00000000000E+00 0. -1.
         23    2    1    2    0    0 -0.27514708302E+02  0.36727184485E+02 -0.11895640647E+04  0.11960401378E+04  0.11551364435E+03 0.  0.
          5    1    3    3  502    0  0.12607689880E+02  0.65357080690E+02 -0.46208903698E+03  0.46688207284E+03  0.47000000000E+01 0. -1.
         -5    1    3    3    0  502 -0.40122398182E+02 -0.28629896204E+02 -0.72747502769E+03  0.72915806496E+03  0.47000000000E+01 0.  1.
        -11    1    1    2    0    0 -0.98655255188E+00  0.11969267808E+02  0.23445184758E+02  0.26342235025E+02  0.00000000000E+00 0.  1.
         11    1    1    2    0    0  0.28501260854E+02 -0.48696452293E+02 -0.59779775024E+02  0.82202724031E+02  0.00000000000E+00 0. -1.
<mgrwt>
<rscale>  0 0.11838376E+03</rscale>
<asrwt>0</asrwt>
<pdfrwt beam="2">  1        1 0.19465260E+00 0.12429540E+03</pdfrwt>
<pdfrwt beam="1">  1       -1 0.60528032E-02 0.12429540E+03</pdfrwt>
<totfact> 0.13634663E+03</totfact>
</mgrwt>
</event>
<event>
 7    1  0.5928109E-006  0.1290935E+03  0.7546771E-02  0.1237881E+00
         -2   -1    0    0    0  501 -0.00000000000E+00  0.00000000000E+00  0.13571171083E+03  0.13571171083E+03  0.00000000000E+00 0.  1.
          2   -1    0    0  501    0  0.00000000000E+00 -0.00000000000E+00 -0.21142469386E+03  0.21142469386E+03  0.00000000000E+00 0. -1.
         23    2    1    2    0    0 -0.31971821872E+02 -0.41818254686E+01 -0.16371018601E+03  0.20848538744E+03  0.12500178685E+03 0.  0.
          5    1    3    3  502    0  0.20500324582E+02 -0.50876965724E+02 -0.96814482740E+02  0.11137263137E+03  0.47000000000E+01 0. -1.
         -5    1    3    3    0  502 -0.52472146454E+02  0.46695140256E+02 -0.66895703270E+02  0.97112756078E+02  0.47000000000E+01 0. -1.
        -11    1    1    2    0    0  0.57934712709E+02  0.13567393914E+02  0.16109206940E+02  0.61644234626E+02  0.00000000000E+00 0. -1.
         11    1    1    2    0    0 -0.25962890837E+02 -0.93855684453E+01  0.71887996034E+02  0.77006782620E+02  0.00000000000E+00 0.  1.
<mgrwt>
<rscale>  0 0.12321791E+03</rscale>
<asrwt>0</asrwt>
<pdfrwt beam="2">  1        2 0.32526876E-01 0.12909350E+03</pdfrwt>
<pdfrwt beam="1">  1       -2 0.20878725E-01 0.12909350E+03</pdfrwt>
<totfact> 0.30154785E+03</totfact>
</mgrwt>
</event>
<event>
 7    1  0.5928109E-006  0.1657900E+03  0.7546771E-02  0.1189659E+00
         -1   -1    0    0    0  501 -0.00000000000E+00  0.00000000000E+00  0.43814863752E+02  0.43814863752E+02  0.00000000000E+00 0.  1.
          1   -1    0    0  501    0  0.00000000000E+00 -0.00000000000E+00 -0.69085337043E+03  0.69085337043E+03  0.00000000000E+00 0. -1.
         23    2    1    2    0    0  0.85332327257E+02 -0.67660530595E+02 -0.51730343814E+03  0.54322110774E+03  0.12500708502E+03 0.  0.
          5    1    3    3  502    0  0.49965747347E+02 -0.28197129116E+02 -0.61175216206E+02  0.84000899258E+02  0.47000000000E+01 0.  1.
         -5    1    3    3    0  502  0.35366579910E+02 -0.39463401478E+02 -0.45612822194E+03  0.45922020848E+03  0.47000000000E+01 0.  1.
        -11    1    1    2    0    0 -0.94568890231E+02  0.63554996911E+02 -0.76450261207E+02  0.13721208063E+03  0.00000000000E+00 0.  1.
         11    1    1    2    0    0  0.92365629740E+01  0.41055336837E+01 -0.53284807324E+02  0.54235045809E+02  0.00000000000E+00 0. -1.
<mgrwt>
<rscale>  0 0.15915084E+03</rscale>
<asrwt>0</asrwt>
<pdfrwt beam="2">  1        1 0.10628514E+00 0.16579000E+03</pdfrwt>
<pdfrwt beam="1">  1       -1 0.67407481E-02 0.16579000E+03</pdfrwt>
<totfact> 0.31653505E+03</totfact>
</mgrwt>
</event>
<event>
 7    1  0.5928109E-006  0.1252544E+03  0.7546771E-02  0.1250077E+00
          4   -1    0    0  501    0  0.00000000000E+00  0.00000000000E+00  0.30325248658E+02  0.30325248658E+02  0.00000000000E+00 0. -1.
         -4   -1    0    0    0  501 -0.00000000000E+00 -0.00000000000E+00 -0.39264476867E+03  0.39264476867E+03  0.00000000000E+00 0.  1.
         23    2    1    2    0    0 -0.79735055929E+01 -0.10715636727E+01 -0.18633901312E+03  0.22452371314E+03  0.12499577959E+03 0.  0.
          5    1    3    3  502    0 -0.94865590500E+01  0.47662261007E+02 -0.22947526716E+02  0.53947798002E+02  0.47000000000E+01 0. -1.
         -5    1    3    3    0  502  0.15130534571E+01 -0.48733824679E+02 -0.16339148640E+03  0.17057591514E+03  0.47000000000E+01 0. -1.
        -11    1    1    2    0    0  0.26473533568E+02 -0.23638293194E+02 -0.15960553268E+03  0.16350395392E+03  0.00000000000E+00 0.  1.
         11    1    1    2    0    0 -0.18500027975E+02  0.24709856867E+02 -0.16374974215E+02  0.34942350265E+02  0.00000000000E+00 0. -1.
<mgrwt>
<rscale>  0 0.11586597E+03</rscale>
<asrwt>0</asrwt>
<pdfrwt beam="1">  1        4 0.46654230E-02 0.12525442E+03</pdfrwt>
<pdfrwt beam="2">  1       -4 0.60406885E-01 0.12525442E+03</pdfrwt>
<totfact> 0.11337081E+03</totfact>
</mgrwt>
</event>
<event>
 7    1  0.5928109E-006  0.1391262E+03  0.7546771E-02  0.1225000E+00
         -1   -1    0    0    0  501 -0.00000000000E+00  0.00000000000E+00  0.38155073589E+02  0.38155073589E+02  0.00000000000E+00 0.  1.
          1   -1    0    0  501    0  0.00000000000E+00 -0.00000000000E+00 -0.44020230073E+03  0.44020230073E+03  0.00000000000E+00 0. -1.
         23    2    1    2    0    0 -0.53177296023E+02 -0.30047596294E+02 -0.28193739646E+03  0.31439590944E+03  0.12500163797E+03 0.  0.
          5    1    3    3  502    0  0.84376056966E+01  0.82513263183E+01  0.83116381971E+01  0.15180609521E+02  0.47000000000E+01 0. -1.
         -5    1    3    3    0  502 -0.61614901720E+02 -0.38298922612E+02 -0.29024903465E+03  0.29921529992E+03  0.47000000000E+01 0. -1.
        -11    1    1    2    0    0  0.76830272166E+02  0.32909254190E+02 -0.72173259944E+02  0.11043047217E+03  0.00000000000E+00 0.  1.
         11    1    1    2    0    0 -0.23652976143E+02 -0.28616578964E+01 -0.47936570742E+02  0.53530992713E+02  0.00000000000E+00 0. -1.
<mgrwt>
<rscale>  0 0.13166892E+03</rscale>
<asrwt>0</asrwt>
<pdfrwt beam="2">  1        1 0.67723433E-01 0.13912617E+03</pdfrwt>
<pdfrwt beam="1">  1       -1 0.58700112E-02 0.13912617E+03</pdfrwt>
<totfact> 0.70746266E+03</totfact>
</mgrwt>
</event>
<event>
 7    1  0.5928109E-006  0.1930018E+03  0.7546771E-02  0.1160002E+00
          2   -1    0    0  501    0  0.00000000000E+00  0.00000000000E+00  0.18692139728E+04  0.18692139728E+04  0.00000000000E+00 0. -1.
         -2   -1    0    0    0  501 -0.00000000000E+00 -0.00000000000E+00 -0.25691449411E+02  0.25691449411E+02  0.00000000000E+00 0.  1.
         23    2    1    2    0    0  0.10457192750E+03 -0.10339345394E+03  0.14683256601E+04  0.14809557496E+04  0.12499677587E+03 0.  0.
          5    1    3    3  502    0  0.57380253078E+02 -0.12743074200E+03  0.10629348688E+04  0.10720931456E+04  0.47000000000E+01 0.  1.
         -5    1    3    3    0  502  0.47191674417E+02  0.24037288057E+02  0.40539079126E+03  0.40886260405E+03  0.47000000000E+01 0.  1.
        -11    1    1    2    0    0 -0.93541448237E+01 -0.17921627908E+02  0.34777404987E+02  0.40226268406E+02  0.00000000000E+00 0.  1.
         11    1    1    2    0    0 -0.95217782672E+02  0.12131508185E+03  0.34041945832E+03  0.37372340417E+03  0.00000000000E+00 0. -1.
<mgrwt>
<rscale>  0 0.18830142E+03</rscale>
<asrwt>0</asrwt>
<pdfrwt beam="1">  1        2 0.28757127E+00 0.19300178E+03</pdfrwt>
<pdfrwt beam="2">  1       -2 0.39525322E-02 0.19300178E+03</pdfrwt>
<totfact> 0.24414916E+03</totfact>
</mgrwt>
</event>
<event>
 7    1  0.5928109E-006  0.1590209E+03  0.7546771E-02  0.1197514E+00
          1   -1    0    0  501    0  0.00000000000E+00  0.00000000000E+00  0.90425446304E+03  0.90425446304E+03  0.00000000000E+00 0. -1.
         -1   -1    0    0    0  501 -0.00000000000E+00 -0.00000000000E+00 -0.25523910699E+02  0.25523910699E+02  0.00000000000E+00 0.  1.
         23    2    1    2    0    0  0.74271243307E+02  0.65142156135E+02  0.59500736528E+03  0.61589073770E+03  0.12461106675E+03 0.  0.
          5    1    3    3  502    0  0.55014229324E+02  0.94474818617E+02  0.31108364568E+03  0.32976837537E+03  0.47000000000E+01 0. -1.
         -5    1    3    3    0  502  0.19257013983E+02 -0.29332662482E+02  0.28392371960E+03  0.28612236233E+03  0.47000000000E+01 0. -1.
        -11    1    1    2    0    0 -0.32525422304E+02  0.72815611259E+01  0.16714574575E+03  0.17043657046E+03  0.00000000000E+00 0. -1.
         11    1    1    2    0    0 -0.41745821003E+02 -0.72423717260E+02  0.11657744130E+03  0.14345106557E+03  0.00000000000E+00 0.  1.
<mgrwt>
<rscale>  0 0.15243329E+03</rscale>
<asrwt>0</asrwt>
<pdfrwt beam="1">  1        1 0.13911605E+00 0.15902087E+03</pdfrwt>
<pdfrwt beam="2">  1       -1 0.39267562E-02 0.15902087E+03</pdfrwt>
<totfact> 0.47009704E+03</totfact>
</mgrwt>
</event>
<event>
 7    1  0.5928109E-006  0.1353941E+03  0.7546771E-02  0.1232705E+00
         -2   -1    0    0    0  501 -0.00000000000E+00  0.00000000000E+00  0.30878647781E+02  0.30878647781E+02  0.00000000000E+00 0.  1.
          2   -1    0    0  501    0  0.00000000000E+00 -0.00000000000E+00 -0.77320470015E+03  0.77320470015E+03  0.00000000000E+00 0. -1.
         23    2    1    2    0    0  0.36100728775E+02 -0.37466912546E+02 -0.65501601559E+03  0.66886286838E+03  0.12499809544E+03 0.  0.
          5    1    3    3  502    0 -0.90538049433E+01 -0.73641106167E+02 -0.29653341825E+03  0.30571087982E+03  0.47000000000E+01 0.  1.
         -5    1    3    3    0  502  0.45154533718E+02  0.36174193621E+02 -0.35848259735E+03  0.36315198857E+03  0.47000000000E+01 0.  1.
        -11    1    1    2    0    0  0.19972580932E+02  0.30550562636E+02 -0.72187387937E+01  0.37206868401E+02  0.00000000000E+00 0.  1.
         11    1    1    2    0    0 -0.56073309707E+02  0.69163499103E+01 -0.80091297983E+02  0.98013611147E+02  0.00000000000E+00 0. -1.
<mgrwt>
<rscale>  0 0.12652525E+03</rscale>
<asrwt>0</asrwt>
<pdfrwt beam="2">  1        2 0.11895456E+00 0.13539408E+03</pdfrwt>
<pdfrwt beam="1">  1       -2 0.47505616E-02 0.13539408E+03</pdfrwt>
<totfact> 0.75612958E+03</totfact>
</mgrwt>
</event>
<event>
 7    1  0.5928109E-006  0.3149570E+03  0.7546771E-02  0.1079256E+00
          2   -1    0    0  501    0  0.00000000000E+00  0.00000000000E+00  0.11214903045E+03  0.11214903045E+03  0.00000000000E+00 0. -1.
         -2   -1    0    0    0  501 -0.00000000000E+00 -0.00000000000E+00 -0.94505650149E+03  0.94505650149E+03  0.00000000000E+00 0.  1.
         23    2    1    2    0    0 -0.26740827995E+03  0.10985305629E+03 -0.25983116933E+03  0.40830156607E+03  0.12499220028E+03 0.  0.
          5    1    3    3  502    0 -0.19124572286E+03  0.10488580020E+03 -0.24901943654E+03  0.33107208787E+03  0.47000000000E+01 0. -1.
         -5    1    3    3    0  502 -0.76162557093E+02  0.49672560888E+01 -0.10811732798E+02  0.77229478193E+02  0.47000000000E+01 0. -1.
        -11    1    1    2    0    0  0.11515471683E+03 -0.72175297110E+02 -0.35627271197E+03  0.38131368663E+03  0.00000000000E+00 0.  1.
         11    1    1    2    0    0  0.15225356312E+03 -0.37677759182E+02 -0.21680358974E+03  0.26759027924E+03  0.00000000000E+00 0. -1.
<mgrwt>
<rscale>  0 0.31228417E+03</rscale>
<asrwt>0</asrwt>
<pdfrwt beam="1">  1        2 0.17253697E-01 0.31495703E+03</pdfrwt>
<pdfrwt beam="2">  1       -2 0.14539331E+00 0.31495703E+03</pdfrwt>
<totfact> 0.11350692E+02</totfact>
</mgrwt>
</event>
<event>
 7    1  0.5928109E-006  0.1452850E+03  0.7546771E-02  0.1216299E+00
         -2   -1    0    0    0  501 -0.00000000000E+00  0.00000000000E+00  0.13171101881E+03  0.13171101881E+03  0.00000000000E+00 0.  1.
          2   -1    0    0  501    0  0.00000000000E+00 -0.00000000000E+00 -0.15417718496E+03  0.15417718496E+03  0.00000000000E+00 0. -1.
         23    2    1    2    0    0 -0.29319915544E+02 -0.68025325605E+02 -0.67150857309E+02  0.16005303676E+03  0.12498253706E+03 0.  0.
          5    1    3    3  502    0 -0.61702820936E+02 -0.46169814663E+02  0.55284504174E+01  0.77405062247E+02  0.47000000000E+01 0. -1.
         -5    1    3    3    0  502  0.32382905392E+02 -0.21855510942E+02 -0.72679307726E+02  0.82647974517E+02  0.47000000000E+01 0. -1.
        -11    1    1    2    0    0 -0.55015355499E+01 -0.18509734918E+02  0.23070635261E+02  0.30085401634E+02  0.00000000000E+00 0.  1.
         11    1    1    2    0    0  0.34821451094E+02  0.86535060523E+02  0.21614055902E+02  0.95749765371E+02  0.00000000000E+00 0. -1.
<mgrwt>
<rscale>  0 0.13781576E+03</rscale>
<asrwt>0</asrwt>
<pdfrwt beam="2">  1        2 0.23719567E-01 0.14528502E+03</pdfrwt>
<pdfrwt beam="1">  1       -2 0.20263234E-01 0.14528502E+03</pdfrwt>
<totfact> 0.45075954E+03</totfact>
</mgrwt>
</event>
<event>
 7    1  0.5928109E-006  0.1292171E+03  0.7546771E-02  0.1242961E+00
          1   -1    0    0  501    0  0.00000000000E+00  0.00000000000E+00  0.82413106361E+03  0.82413106361E+03  0.00000000000E+00 0. -1.
         -1   -1    0    0    0  501 -0.00000000000E+00 -0.00000000000E+00 -0.18427192830E+02  0.18427192830E+02  0.00000000000E+00 0.  1.
         23    2    1    2    0    0  0.65226498990E+01 -0.32078813796E+02  0.62014973379E+03  0.63346883070E+03  0.12500188754E+03 0.  0.
          5    1    3    3  502    0 -0.56541470494E+02 -0.17538317446E+01  0.21914321076E+03  0.22637546385E+03  0.47000000000E+01 0. -1.
         -5    1    3    3    0  502  0.63064120393E+02 -0.30324982051E+02  0.40100652303E+03  0.40709336685E+03  0.47000000000E+01 0. -1.
        -11    1    1    2    0    0 -0.38121267637E+02  0.21214332674E+02  0.16309418085E+03  0.16882828787E+03  0.00000000000E+00 0. -1.
         11    1    1    2    0    0  0.31598617739E+02  0.10864481121E+02  0.22459956133E+02  0.40261137869E+02  0.00000000000E+00 0.  1.
<mgrwt>
<rscale>  0 0.12008275E+03</rscale>
<asrwt>0</asrwt>
<pdfrwt beam="1">  1        1 0.12678937E+00 0.12921713E+03</pdfrwt>
<pdfrwt beam="2">  1       -1 0.28349534E-02 0.12921713E+03</pdfrwt>
<totfact> 0.86655045E+03</totfact>
</mgrwt>
</event>
<event>
 7    1  0.5928109E-006  0.1256751E+03  0.7546771E-02  0.1249993E+00
         -1   -1    0    0    0  501 -0.00000000000E+00  0.00000000000E+00  0.35527232407E+03  0.35527232407E+03  0.00000000000E+00 0.  1.
          1   -1    0    0  501    0  0.00000000000E+00 -0.00000000000E+00 -0.33098400478E+02  0.33098400478E+02  0.00000000000E+00 0. -1.
         23    2    1    2    0    0  0.49263068721E+01  0.11960104970E+02  0.19608484220E+03  0.23290234173E+03  0.12500769109E+03 0.  0.
          5    1    3    3  502    0 -0.28054541286E+02  0.51338252594E+02  0.15868242852E+03  0.16918887844E+03  0.47000000000E+01 0. -1.
         -5    1    3    3    0  502  0.32980848158E+02 -0.39378147624E+02  0.37402413681E+02  0.63713463292E+02  0.47000000000E+01 0. -1.
        -11    1    1    2    0    0  0.16157996401E+02 -0.21351073981E+02  0.12940869705E+03  0.13214976383E+03  0.00000000000E+00 0.  1.
         11    1    1    2    0    0 -0.21084303273E+02  0.93909690115E+01 -0.33196156573E+01  0.23318618990E+02  0.00000000000E+00 0. -1.
<mgrwt>
<rscale>  0 0.11591457E+03</rscale>
<asrwt>0</asrwt>
<pdfrwt beam="2">  1        1 0.50920619E-02 0.12567512E+03</pdfrwt>
<pdfrwt beam="1">  1       -1 0.54657278E-01 0.12567512E+03</pdfrwt>
<totfact> 0.53438318E+03</totfact>
</mgrwt>
</event>
<event>
 7    1  0.5928109E-006  0.1304845E+03  0.7546771E-02  0.1241386E+00
         -2   -1    0    0    0  501 -0.00000000000E+00  0.00000000000E+00  0.54822742516E+02  0.54822742516E+02  0.00000000000E+00 0.  1.
          2   -1    0    0  501    0  0.00000000000E+00 -0.00000000000E+00 -0.24651875386E+03  0.24651875386E+03  0.00000000000E+00 0. -1.
         23    2    1    2    0    0  0.28396543705E+02 -0.24568960831E+02 -0.14141450126E+03  0.19241692760E+03  0.12496485638E+03 0.  0.
          5    1    3    3  502    0  0.59656426640E+02 -0.43076833786E+02 -0.38503901821E+02  0.83181387966E+02  0.47000000000E+01 0. -1.
         -5    1    3    3    0  502 -0.31259882934E+02  0.18507872955E+02 -0.10291059944E+03  0.10923553963E+03  0.47000000000E+01 0. -1.
        -11    1    1    2    0    0 -0.36551178460E+02 -0.10870895665E+02 -0.60171804941E+02  0.71237708619E+02  0.00000000000E+00 0. -1.
         11    1    1    2    0    0  0.81546347548E+01  0.35439856496E+02  0.98902948533E+01  0.37686860160E+02  0.00000000000E+00 0.  1.
<mgrwt>
<rscale>  0 0.12104345E+03</rscale>
<asrwt>0</asrwt>
<pdfrwt beam="2">  1        2 0.37925963E-01 0.13048453E+03</pdfrwt>
<pdfrwt beam="1">  1       -2 0.84342680E-02 0.13048453E+03</pdfrwt>
<totfact> 0.11072593E+04</totfact>
</mgrwt>
</event>
<event>
 7    1  0.5928109E-006  0.1892420E+03  0.7546771E-02  0.1164207E+00
          2   -1    0    0  501    0  0.00000000000E+00  0.00000000000E+00  0.19218096758E+03  0.19218096758E+03  0.00000000000E+00 0. -1.
         -2   -1    0    0    0  501 -0.00000000000E+00 -0.00000000000E+00 -0.17485668083E+03  0.17485668083E+03  0.00000000000E+00 0.  1.
         23    2    1    2    0    0 -0.13051222203E+03 -0.57030686689E+02  0.49743496639E+02  0.19567053861E+03  0.12460579801E+03 0.  0.
          5    1    3    3  502    0 -0.14430071420E+03 -0.18895349981E+02  0.24450365169E+02  0.14764701394E+03  0.47000000000E+01 0.  1.
         -5    1    3    3    0  502  0.13788492166E+02 -0.38135336707E+02  0.25293131469E+02  0.48023524668E+02  0.47000000000E+01 0.  1.
        -11    1    1    2    0    0  0.95628104707E+02  0.18409767321E+02 -0.58030949300E+02  0.11336333190E+03  0.00000000000E+00 0.  1.
         11    1    1    2    0    0  0.34884117327E+02  0.38620919367E+02  0.25611739419E+02  0.58003777898E+02  0.00000000000E+00 0. -1.
<mgrwt>
<rscale>  0 0.18376659E+03</rscale>
<asrwt>0</asrwt>
<pdfrwt beam="1">  1        2 0.29566303E-01 0.18924203E+03</pdfrwt>
<pdfrwt beam="2">  1       -2 0.26901028E-01 0.18924203E+03</pdfrwt>
<totfact> 0.21884280E+03</totfact>
</mgrwt>
</event>
<event>
 7    1  0.5928109E-006  0.1600583E+03  0.7546771E-02  0.1196433E+00
          2   -1    0    0  501    0  0.00000000000E+00  0.00000000000E+00  0.94187504268E+03  0.94187504268E+03  0.00000000000E+00 0. -1.
         -2   -1    0    0    0  501 -0.00000000000E+00 -0.00000000000E+00 -0.23415874873E+02  0.23415874873E+02  0.00000000000E+00 0.  1.
         23    2    1    2    0    0 -0.47023305541E+02 -0.88216030160E+02  0.55565740841E+03  0.57825064478E+03  0.12500157368E+03 0.  0.
          5    1    3    3  502    0 -0.69660440021E+02 -0.26856136676E+02  0.15321608719E+03  0.17050245850E+03  0.47000000000E+01 0.  1.
         -5    1    3    3    0  502  0.22637134480E+02 -0.61359893484E+02  0.40244132123E+03  0.40774818628E+03  0.47000000000E+01 0.  1.
        -11    1    1    2    0    0 -0.57709208729E+01  0.37851305068E+02  0.37274854757E+02  0.53436313685E+02  0.00000000000E+00 0.  1.
         11    1    1    2    0    0  0.52794226414E+02  0.50364725092E+02  0.32552690464E+03  0.33360395909E+03  0.00000000000E+00 0. -1.
<mgrwt>
<rscale>  0 0.15333563E+03</rscale>
<asrwt>0</asrwt>
<pdfrwt beam="1">  1        2 0.14490382E+00 0.16005828E+03</pdfrwt>
<pdfrwt beam="2">  1       -2 0.36024430E-02 0.16005828E+03</pdfrwt>
<totfact> 0.89466528E+03</totfact>
</mgrwt>
</event>
<event>
 7    1  0.5928109E-006  0.1285593E+03  0.7546771E-02  0.1245913E+00
         -2   -1    0    0    0  501 -0.00000000000E+00  0.00000000000E+00  0.21158963572E+02  0.21158963572E+02  0.00000000000E+00 0.  1.
          2   -1    0    0  501    0  0.00000000000E+00 -0.00000000000E+00 -0.71320065884E+03  0.71320065884E+03  0.00000000000E+00 0. -1.
         23    2    1    2    0    0 -0.18562323746E+02  0.23801870825E+02 -0.55138540338E+03  0.56617432626E+03  0.12496565823E+03 0.  0.
          5    1    3    3  502    0 -0.48714450730E+02 -0.70427468319E+01 -0.89454022911E+02  0.10220963853E+03  0.47000000000E+01 0.  1.
         -5    1    3    3    0  502  0.30152126984E+02  0.30844617657E+02 -0.46193138047E+03  0.46396468774E+03  0.47000000000E+01 0.  1.
        -11    1    1    2    0    0 -0.16057457517E+02  0.25654904898E+02 -0.62370113428E+02  0.69325660013E+02  0.00000000000E+00 0.  1.
         11    1    1    2    0    0  0.34619781263E+02 -0.49456775723E+02 -0.78286178458E+02  0.98859636137E+02  0.00000000000E+00 0. -1.
<mgrwt>
<rscale>  0 0.11830920E+03</rscale>
<asrwt>0</asrwt>
<pdfrwt beam="2">  1        2 0.10972317E+00 0.12855934E+03</pdfrwt>
<pdfrwt beam="1">  1       -2 0.32552255E-02 0.12855934E+03</pdfrwt>
<totfact> 0.14561973E+04</totfact>
</mgrwt>
</event>
<event>
 7    1  0.5928109E-006  0.1306944E+03  0.7546771E-02  0.1239193E+00
         -2   -1    0    0    0  501 -0.00000000000E+00  0.00000000000E+00  0.37585205405E+03  0.37585205405E+03  0.00000000000E+00 0.  1.
          2   -1    0    0  501    0  0.00000000000E+00 -0.00000000000E+00 -0.35956162162E+02  0.35956162162E+02  0.00000000000E+00 0. -1.
         23    2    1    2    0    0 -0.36211922665E+02  0.12426089685E+02  0.21319274700E+03  0.25006434960E+03  0.12496127608E+03 0.  0.
          5    1    3    3  502    0 -0.33553199585E+02 -0.53948704605E+02  0.94536212212E+02  0.11399765502E+03  0.47000000000E+01 0. -1.
         -5    1    3    3    0  502 -0.26587230802E+01  0.66374794289E+02  0.11865653479E+03  0.13606669458E+03  0.47000000000E+01 0. -1.
        -11    1    1    2    0    0  0.34651667643E+02  0.13190457578E+02  0.13062206231E+03  0.13578236043E+03  0.00000000000E+00 0.  1.
         11    1    1    2    0    0  0.15602550225E+01 -0.25616547262E+02 -0.39189174253E+01  0.25961506181E+02  0.00000000000E+00 0. -1.
<mgrwt>
<rscale>  0 0.12239754E+03</rscale>
<asrwt>0</asrwt>
<pdfrwt beam="2">  1        2 0.55317175E-02 0.13069442E+03</pdfrwt>
<pdfrwt beam="1">  1       -2 0.57823390E-01 0.13069442E+03</pdfrwt>
<totfact> 0.37315392E+03</totfact>
</mgrwt>
</event>
<event>
 7    1  0.5928109E-006  0.1347067E+03  0.7546771E-02  0.1231702E+00
          2   -1    0    0  501    0  0.00000000000E+00  0.00000000000E+00  0.53770246908E+03  0.53770246908E+03  0.00000000000E+00 0. -1.
         -2   -1    0    0    0  501 -0.00000000000E+00 -0.00000000000E+00 -0.29953034665E+02  0.29953034665E+02  0.00000000000E+00 0.  1.
         23    2    1    2    0    0  0.17937540647E+02 -0.46887435294E+02  0.36624955424E+03  0.39023664163E+03  0.12500285413E+03 0.  0.
          5    1    3    3  502    0 -0.20104542778E+02  0.14028195253E+02  0.26410849787E+03  0.26528545296E+03  0.47000000000E+01 0.  1.
         -5    1    3    3    0  502  0.38042083425E+02 -0.60915630547E+02  0.10214105636E+03  0.12495118868E+03  0.47000000000E+01 0.  1.
        -11    1    1    2    0    0 -0.33685039608E+02  0.66307682604E+02  0.71824132186E+02  0.10339292350E+03  0.00000000000E+00 0.  1.
         11    1    1    2    0    0  0.15747498961E+02 -0.19420247310E+02  0.69675747993E+02  0.74025938613E+02  0.00000000000E+00 0. -1.
<mgrwt>
<rscale>  0 0.12717960E+03</rscale>
<asrwt>0</asrwt>
<pdfrwt beam="1">  1        2 0.82723449E-01 0.13470672E+03</pdfrwt>
<pdfrwt beam="2">  1       -2 0.46081596E-02 0.13470672E+03</pdfrwt>
<totfact> 0.12066784E+04</totfact>
</mgrwt>
</event>
<event>
 7    1  0.5928109E-006  0.1475408E+03  0.7546771E-02  0.1215150E+00
          2   -1    0    0  501    0  0.00000000000E+00  0.00000000000E+00  0.19386407424E+03  0.19386407424E+03  0.00000000000E+00 0. -1.
         -2   -1    0    0    0  501 -0.00000000000E+00 -0.00000000000E+00 -0.10238502026E+03  0.10238502026E+03  0.00000000000E+00 0.  1.
         23    2    1    2    0    0 -0.60840619526E+02  0.49428798380E+02  0.10396565171E+03  0.18049142595E+03  0.12499404391E+03 0.  0.
          5    1    3    3  502    0 -0.57233608365E+02  0.86783405459E+02  0.52313194874E+02  0.11647233898E+03  0.47000000000E+01 0.  1.
         -5    1    3    3    0  502 -0.36070111612E+01 -0.37354607079E+02  0.51652456838E+02  0.64019086973E+02  0.47000000000E+01 0.  1.
        -11    1    1    2    0    0  0.38899857940E+02 -0.66538421617E+02 -0.30193225533E+02  0.82777964260E+02  0.00000000000E+00 0.  1.
         11    1    1    2    0    0  0.21940761586E+02  0.17109623237E+02  0.17706627807E+02  0.32979704283E+02  0.00000000000E+00 0. -1.
<mgrwt>
<rscale>  0 0.13865523E+03</rscale>
<asrwt>0</asrwt>
<pdfrwt beam="1">  1        2 0.29825242E-01 0.14754084E+03</pdfrwt>
<pdfrwt beam="2">  1       -2 0.15751542E-01 0.14754084E+03</pdfrwt>
<totfact> 0.53436821E+03</totfact>
</mgrwt>
</event>
<event>
 6    1  0.5928109E-006  0.1549566E+03  0.7546771E-02  0.1217329E+00
          2   -1    0    0  501    0  0.00000000000E+00  0.00000000000E+00  0.35746312450E+04  0.35746312450E+04  0.00000000000E+00 0. -1.
         -2   -1    0    0    0  501 -0.00000000000E+00 -0.00000000000E+00 -0.17914352702E+02  0.17914352702E+02  0.00000000000E+00 0.  1.
          5    1    1    2  502    0  0.61143100102E+02  0.27235560298E+02  0.93197929992E+03  0.93439165232E+03  0.47000000000E+01 0. -1.
         -5    1    1    2    0  502 -0.73431442786E+02 -0.14869158900E+01  0.25017362045E+04  0.25028185141E+04  0.47000000000E+01 0.  1.
        -11    1    1    2    0    0  0.15705706893E+02  0.20108506941E+02  0.16554762712E+01  0.25568767708E+02  0.00000000000E+00 0. -1.
         11    1    1    2    0    0 -0.34173642098E+01 -0.45857151349E+02  0.12134591159E+03  0.12976666354E+03  0.00000000000E+00 0.  1.
<mgrwt>
<rscale>  0 0.13706813E+03</rscale>
<asrwt>0</asrwt>
<pdfrwt beam="1">  1        2 0.54994270E+00 0.15495665E+03</pdfrwt>
<pdfrwt beam="2">  1       -2 0.27560571E-02 0.15495665E+03</pdfrwt>
<totfact> 0.45336741E+02</totfact>
</mgrwt>
</event>
<event>
 7    1  0.5986271E-006  0.1562333E+03  0.7546771E-02  0.1202039E+00
          1   -1    0    0  501    0  0.00000000000E+00  0.00000000000E+00  0.23254317522E+03  0.23254317522E+03  0.00000000000E+00 0. -1.
         -1   -1    0    0    0  501 -0.00000000000E+00 -0.00000000000E+00 -0.99891487021E+02  0.99891487021E+02  0.00000000000E+00 0.  1.
         23    2    1    2    0    0 -0.88258434193E+02  0.31530179543E+02  0.13133839249E+03  0.20410446146E+03  0.12500061766E+03 0.  0.
          5    1    3    3  502    0 -0.68330976949E+02 -0.33694101462E+02  0.30329336324E+02  0.82136310642E+02  0.47000000000E+01 0. -1.
         -5    1    3    3    0  502 -0.19927457245E+02  0.65224281005E+02  0.10100905617E+03  0.12196815081E+03  0.47000000000E+01 0. -1.
        -11    1    1    2    0    0  0.34247709340E+02  0.11000481486E+02 -0.35337299452E+02  0.50424606300E+02  0.00000000000E+00 0.  1.
         11    1    1    2    0    0  0.54010724853E+02 -0.42530661029E+02  0.36650595160E+02  0.77905594487E+02  0.00000000000E+00 0. -1.
<mgrwt>
<rscale>  0 0.14873283E+03</rscale>
<asrwt>0</asrwt>
<pdfrwt beam="1">  1        1 0.35775873E-01 0.15623334E+03</pdfrwt>
<pdfrwt beam="2">  1       -1 0.15367921E-01 0.15623334E+03</pdfrwt>
<totfact> 0.36334715E+03</totfact>
</mgrwt>
</event>
<event>
 7    1  0.5928109E-006  0.1532395E+03  0.7546771E-02  0.1202740E+00
          2   -1    0    0  501    0  0.00000000000E+00  0.00000000000E+00  0.10495810979E+04  0.10495810979E+04  0.00000000000E+00 0.  1.
         -2   -1    0    0    0  501 -0.00000000000E+00 -0.00000000000E+00 -0.23954633548E+02  0.23954633548E+02  0.00000000000E+00 0. -1.
         23    2    1    2    0    0 -0.52982672874E+02 -0.71067600666E+02  0.76832635369E+03  0.78345883207E+03  0.12499835317E+03 0.  0.
          5    1    3    3  502    0  0.21027732627E+02 -0.61400532384E+02  0.20216348481E+03  0.21237786021E+03  0.47000000000E+01 0. -1.
         -5    1    3    3    0  502 -0.74010405502E+02 -0.96670682820E+01  0.56616286887E+03  0.57108097186E+03  0.47000000000E+01 0. -1.
        -11    1    1    2    0    0  0.79182182244E+02  0.44995636040E+02  0.13935553823E+03  0.16647639857E+03  0.00000000000E+00 0. -1.
         11    1    1    2    0    0 -0.26199509370E+02  0.26071964626E+02  0.11794457246E+03  0.12360050082E+03  0.00000000000E+00 0.  1.
<mgrwt>
<rscale>  0 0.14816982E+03</rscale>
<asrwt>0</asrwt>
<pdfrwt beam="1">  1        2 0.16147398E+00 0.15323954E+03</pdfrwt>
<pdfrwt beam="2">  1       -2 0.36853290E-02 0.15323954E+03</pdfrwt>
<totfact> 0.74330219E+03</totfact>
</mgrwt>
</event>
<event>
 7    1  0.5928109E-006  0.1332157E+03  0.7546771E-02  0.1234710E+00
         -1   -1    0    0    0  501 -0.00000000000E+00  0.00000000000E+00  0.25433906622E+02  0.25433906622E+02  0.00000000000E+00 0.  1.
          1   -1    0    0  501    0  0.00000000000E+00 -0.00000000000E+00 -0.74054061438E+03  0.74054061438E+03  0.00000000000E+00 0. -1.
         23    2    1    2    0    0  0.20855269449E+02  0.41077704574E+02 -0.58191571340E+03  0.59696927916E+03  0.12499641067E+03 0.  0.
          5    1    3    3  502    0  0.56764980081E+02  0.26567310234E+02 -0.14151763381E+03  0.15484642590E+03  0.47000000000E+01 0. -1.
         -5    1    3    3    0  502 -0.35909710632E+02  0.14510394340E+02 -0.44039807959E+03  0.44212285325E+03  0.47000000000E+01 0. -1.
        -11    1    1    2    0    0  0.20807473353E+02 -0.71980169749E+01  0.33624791762E+01  0.22272598904E+02  0.00000000000E+00 0.  1.
         11    1    1    2    0    0 -0.41662742802E+02 -0.33879687599E+02 -0.13655347354E+03  0.14673264294E+03  0.00000000000E+00 0. -1.
<mgrwt>
<rscale>  0 0.12523037E+03</rscale>
<asrwt>0</asrwt>
<pdfrwt beam="2">  1        1 0.11392931E+00 0.13321570E+03</pdfrwt>
<pdfrwt beam="1">  1       -1 0.39129094E-02 0.13321570E+03</pdfrwt>
<totfact> 0.63611395E+03</totfact>
</mgrwt>
</event>
<event>
 7    1  0.5928109E-006  0.1296971E+03  0.7546771E-02  0.1240835E+00
          3   -1    0    0  501    0  0.00000000000E+00  0.00000000000E+00  0.18684742615E+03  0.18684742615E+03  0.00000000000E+00 0. -1.
         -3   -1    0    0    0  501 -0.00000000000E+00 -0.00000000000E+00 -0.73320959279E+02  0.73320959279E+02  0.00000000000E+00 0.  1.
         23    2    1    2    0    0 -0.27083316958E+02 -0.21629176008E+02  0.90176185823E+02  0.15796543611E+03  0.12498002722E+03 0.  0.
          5    1    3    3  502    0 -0.11799168560E+02  0.13442600353E+02  0.11210427160E+03  0.11361945957E+03  0.47000000000E+01 0.  1.
         -5    1    3    3    0  502 -0.15284148398E+02 -0.35071776361E+02 -0.21928085773E+02  0.44345976537E+02  0.47000000000E+01 0.  1.
        -11    1    1    2    0    0 -0.10074955165E+02  0.44089727721E+02 -0.11341489852E+02  0.46626582592E+02  0.00000000000E+00 0.  1.
         11    1    1    2    0    0  0.37158272124E+02 -0.22460551713E+02  0.34691770897E+02  0.55576366726E+02  0.00000000000E+00 0. -1.
<mgrwt>
<rscale>  0 0.12138170E+03</rscale>
<asrwt>0</asrwt>
<pdfrwt beam="1">  1        3 0.28745758E-01 0.12969709E+03</pdfrwt>
<pdfrwt beam="2">  1       -3 0.11280148E-01 0.12969709E+03</pdfrwt>
<totfact> 0.15977190E+03</totfact>
</mgrwt>
</event>
<event>
 7    1  0.5928109E-006  0.1341378E+03  0.7546771E-02  0.1234580E+00
         -1   -1    0    0    0  501 -0.00000000000E+00  0.00000000000E+00  0.63948583874E+02  0.63948583874E+02  0.00000000000E+00 0.  1.
          1   -1    0    0  501    0  0.00000000000E+00 -0.00000000000E+00 -0.22147228293E+03  0.22147228293E+03  0.00000000000E+00 0. -1.
         23    2    1    2    0    0  0.28823454612E+00  0.48656801109E+02 -0.10615526131E+03  0.17106108111E+03  0.12500154636E+03 0.  0.
          5    1    3    3  502    0  0.43078516839E+02 -0.21105389893E+02 -0.20137300108E+02  0.52237888082E+02  0.47000000000E+01 0.  1.
         -5    1    3    3    0  502 -0.42790282293E+02  0.69762191001E+02 -0.86017961198E+02  0.11882319303E+03  0.47000000000E+01 0.  1.
        -11    1    1    2    0    0  0.42590702639E+01 -0.29961186974E+02 -0.76755180260E+02  0.82505576182E+02  0.00000000000E+00 0. -1.
         11    1    1    2    0    0 -0.45473048101E+01 -0.18695614135E+02  0.25386742507E+02  0.31854209518E+02  0.00000000000E+00 0.  1.
<mgrwt>
<rscale>  0 0.12531357E+03</rscale>
<asrwt>0</asrwt>
<pdfrwt beam="2">  1        1 0.34072659E-01 0.13413782E+03</pdfrwt>
<pdfrwt beam="1">  1       -1 0.98382437E-02 0.13413782E+03</pdfrwt>
<totfact> 0.76319808E+03</totfact>
</mgrwt>
</event>
<event>
 7    1  0.5928109E-006  0.1723644E+03  0.7546771E-02  0.1181901E+00
         -1   -1    0    0    0  501 -0.00000000000E+00  0.00000000000E+00  0.42498518169E+03  0.42498518169E+03  0.00000000000E+00 0.  1.
          1   -1    0    0  501    0  0.00000000000E+00 -0.00000000000E+00 -0.65647841297E+02  0.65647841297E+02  0.00000000000E+00 0. -1.
         23    2    1    2    0    0 -0.11139975398E+03  0.40921888505E+02  0.12470460294E+03  0.21274568029E+03  0.12499992137E+03 0.  0.
          5    1    3    3  502    0 -0.66524753908E+02  0.84957967782E+02  0.91127457231E+02  0.14131419827E+03  0.47000000000E+01 0. -1.
         -5    1    3    3    0  502 -0.44875000074E+02 -0.44036079277E+02  0.33577145709E+02  0.71431482021E+02  0.47000000000E+01 0. -1.
        -11    1    1    2    0    0  0.50862915925E+02  0.23361412217E+02  0.59109934772E+02  0.81405013273E+02  0.00000000000E+00 0.  1.
         11    1    1    2    0    0  0.60536838057E+02 -0.64283300722E+02  0.17552280268E+03  0.19648232942E+03  0.00000000000E+00 0. -1.
<mgrwt>
<rscale>  0 0.16617037E+03</rscale>
<asrwt>0</asrwt>
<pdfrwt beam="2">  1        1 0.10099668E-01 0.17236440E+03</pdfrwt>
<pdfrwt beam="1">  1       -1 0.65382334E-01 0.17236440E+03</pdfrwt>
<totfact> 0.15325403E+03</totfact>
</mgrwt>
</event>
<event>
 7    1  0.5928109E-006  0.1484860E+03  0.7546771E-02  0.1212084E+00
          4   -1    0    0  501    0  0.00000000000E+00  0.00000000000E+00  0.95777441794E+02  0.95777441794E+02  0.00000000000E+00 0. -1.
         -4   -1    0    0    0  501 -0.00000000000E+00 -0.00000000000E+00 -0.18927589714E+03  0.18927589714E+03  0.00000000000E+00 0.  1.
         23    2    1    2    0    0 -0.51981517400E+02  0.61003737638E+02 -0.44824703721E+02  0.15510428427E+03  0.12499820311E+03 0.  0.
          5    1    3    3  502    0  0.40405165013E+02  0.19570169572E+02 -0.25734742222E+02  0.51960906978E+02  0.47000000000E+01 0.  1.
         -5    1    3    3    0  502 -0.92386682413E+02  0.41433568066E+02 -0.19089961500E+02  0.10314337730E+03  0.47000000000E+01 0.  1.
        -11    1    1    2    0    0  0.50672979636E+02  0.76750254268E+00 -0.45459923313E+02  0.68080427092E+02  0.00000000000E+00 0.  1.
         11    1    1    2    0    0  0.13085377637E+01 -0.61771240180E+02 -0.32138283098E+01  0.61868627566E+02  0.00000000000E+00 0. -1.
<mgrwt>
<rscale>  0 0.14092921E+03</rscale>
<asrwt>0</asrwt>
<pdfrwt beam="1">  1        4 0.14734991E-01 0.14848598E+03</pdfrwt>
<pdfrwt beam="2">  1       -4 0.29119369E-01 0.14848598E+03</pdfrwt>
<totfact> 0.73700795E+02</totfact>
</mgrwt>
</event>
<event>
 7    1  0.5928109E-006  0.1406028E+03  0.7546771E-02  0.1223959E+00
          3   -1    0    0  501    0  0.00000000000E+00  0.00000000000E+00  0.35913545617E+02  0.35913545617E+02  0.00000000000E+00 0. -1.
         -3   -1    0    0    0  501 -0.00000000000E+00 -0.00000000000E+00 -0.43981308109E+03  0.43981308109E+03  0.00000000000E+00 0.  1.
         23    2    1    2    0    0  0.57234829651E+02  0.29427047352E+02 -0.23668048087E+03  0.27529401289E+03  0.12500946631E+03 0.  0.
          5    1    3    3  502    0  0.24421236389E+02  0.54447189777E+02 -0.34911270320E+02  0.69294877565E+02  0.47000000000E+01 0. -1.
         -5    1    3    3    0  502  0.32813593262E+02 -0.25020142425E+02 -0.20176921055E+03  0.20599913532E+03  0.47000000000E+01 0. -1.
        -11    1    1    2    0    0 -0.21835568370E+02  0.29589107771E+02 -0.32166391433E+02  0.48856771103E+02  0.00000000000E+00 0.  1.
         11    1    1    2    0    0 -0.35399261281E+02 -0.59016155123E+02 -0.13505266317E+03  0.15157584271E+03  0.00000000000E+00 0. -1.
<mgrwt>
<rscale>  0 0.13238520E+03</rscale>
<asrwt>0</asrwt>
<pdfrwt beam="1">  1        3 0.55251611E-02 0.14060279E+03</pdfrwt>
<pdfrwt beam="2">  1       -3 0.67663548E-01 0.14060279E+03</pdfrwt>
<totfact> 0.96442281E+02</totfact>
</mgrwt>
</event>
<event>
 7    1  0.5928109E-006  0.1313471E+03  0.7546771E-02  0.1236901E+00
         -1   -1    0    0    0  501 -0.00000000000E+00  0.00000000000E+00  0.38620265085E+02  0.38620265085E+02  0.00000000000E+00 0.  1.
          1   -1    0    0  501    0  0.00000000000E+00 -0.00000000000E+00 -0.36911416803E+03  0.36911416803E+03  0.00000000000E+00 0. -1.
         23    2    1    2    0    0  0.30192645981E+02  0.26742549903E+02 -0.21936473439E+03  0.25568132250E+03  0.12500116852E+03 0.  0.
          5    1    3    3  502    0  0.42899599747E+02  0.36156756653E+02 -0.26699184052E+02  0.62310698432E+02  0.47000000000E+01 0.  1.
         -5    1    3    3    0  502 -0.12706953766E+02 -0.94142067501E+01 -0.19266555034E+03  0.19337062406E+03  0.47000000000E+01 0.  1.
        -11    1    1    2    0    0 -0.53678815590E+02 -0.42963729903E+02 -0.10013115171E+03  0.12146417115E+03  0.00000000000E+00 0.  1.
         11    1    1    2    0    0  0.23486169609E+02  0.16221180000E+02 -0.10998016847E+02  0.30588939472E+02  0.00000000000E+00 0. -1.
<mgrwt>
<rscale>  0 0.12383532E+03</rscale>
<asrwt>0</asrwt>
<pdfrwt beam="2">  1        1 0.56786798E-01 0.13134707E+03</pdfrwt>
<pdfrwt beam="1">  1       -1 0.59415789E-02 0.13134707E+03</pdfrwt>
<totfact> 0.86454168E+03</totfact>
</mgrwt>
</event>
<event>
 6    1  0.5928109E-006  0.1641120E+03  0.7546771E-02  0.1201376E+00
          2   -1    0    0  501    0  0.00000000000E+00  0.00000000000E+00  0.90619006616E+03  0.90619006616E+03  0.00000000000E+00 0. -1.
         -2   -1    0    0    0  501 -0.00000000000E+00 -0.00000000000E+00 -0.31025088994E+02  0.31025088994E+02  0.00000000000E+00 0.  1.
          5    1    1    2  502    0 -0.96552312319E+01  0.14346097179E+02  0.63166832539E+03  0.63192246146E+03  0.47000000000E+01 0. -1.
         -5    1    1    2    0  502 -0.44360191704E+02 -0.51087517107E+02  0.12374934919E+03  0.14111609560E+03  0.47000000000E+01 0.  1.
        -11    1    1    2    0    0  0.53599767800E+02  0.15836178688E+02  0.15706189146E+02  0.58055181001E+02  0.00000000000E+00 0. -1.
         11    1    1    2    0    0  0.41565513661E+00  0.20905241239E+02  0.10404111343E+03  0.10612141709E+03  0.00000000000E+00 0.  1.
<mgrwt>
<rscale>  0 0.14926713E+03</rscale>
<asrwt>0</asrwt>
<pdfrwt beam="1">  1        2 0.13941384E+00 0.16411200E+03</pdfrwt>
<pdfrwt beam="2">  1       -2 0.47730913E-02 0.16411200E+03</pdfrwt>
<totfact> 0.61915340E+03</totfact>
</mgrwt>
</event>
<event>
 7    1  0.5928109E-006  0.1569284E+03  0.7546771E-02  0.1198568E+00
         -2   -1    0    0    0  501 -0.00000000000E+00  0.00000000000E+00  0.62555481511E+02  0.62555481511E+02  0.00000000000E+00 0.  1.
          2   -1    0    0  501    0  0.00000000000E+00 -0.00000000000E+00 -0.36484761674E+03  0.36484761674E+03  0.00000000000E+00 0. -1.
         23    2    1    2    0    0  0.23703152979E+02  0.91863239307E+02 -0.21180715475E+03  0.26360728182E+03  0.12500333607E+03 0.  0.
          5    1    3    3  502    0  0.14340109409E+02 -0.17143410791E+02  0.24664461478E+01  0.22971909542E+02  0.47000000000E+01 0. -1.
         -5    1    3    3    0  502  0.93630435700E+01  0.10900665010E+03 -0.21427360090E+03  0.24063537228E+03  0.47000000000E+01 0. -1.
        -11    1    1    2    0    0 -0.36833274481E+02 -0.49799093348E+01  0.68407448853E+00  0.37174689829E+02  0.00000000000E+00 0.  1.
         11    1    1    2    0    0  0.13130121503E+02 -0.86883329972E+02 -0.91169054971E+02  0.12662112660E+03  0.00000000000E+00 0. -1.
<mgrwt>
<rscale>  0 0.15156063E+03</rscale>
<asrwt>0</asrwt>
<pdfrwt beam="2">  1        2 0.56130401E-01 0.15692842E+03</pdfrwt>
<pdfrwt beam="1">  1       -2 0.96239205E-02 0.15692842E+03</pdfrwt>
<totfact> 0.60158129E+03</totfact>
</mgrwt>
</event>
<event>
 7    1  0.5928109E-006  0.1682494E+03  0.7546771E-02  0.1184026E+00
          1   -1    0    0  501    0  0.00000000000E+00  0.00000000000E+00  0.19780260161E+03  0.19780260161E+03  0.00000000000E+00 0. -1.
         -1   -1    0    0    0  501 -0.00000000000E+00 -0.00000000000E+00 -0.14824032148E+03  0.14824032148E+03  0.00000000000E+00 0.  1.
         23    2    1    2    0    0 -0.11905567539E+03  0.28405188221E+02 -0.34531463058E+02  0.17175645052E+03  0.11544153409E+03 0.  0.
          5    1    3    3  502    0 -0.12489948438E+02  0.46777373579E+02  0.17453523099E+02  0.51680140862E+02  0.47000000000E+01 0. -1.
         -5    1    3    3    0  502 -0.10656572695E+03 -0.18372185358E+02 -0.51984986158E+02  0.12007630966E+03  0.47000000000E+01 0.  1.
        -11    1    1    2    0    0  0.22305357431E+01 -0.17842944182E+02 -0.12856892564E+02  0.22105330425E+02  0.00000000000E+00 0.  1.
         11    1    1    2    0    0  0.11682513964E+03 -0.10562244039E+02  0.96950635750E+02  0.15218114214E+03  0.00000000000E+00 0. -1.
<mgrwt>
<rscale>  0 0.16420787E+03</rscale>
<asrwt>0</asrwt>
<pdfrwt beam="1">  1        1 0.30431169E-01 0.16824939E+03</pdfrwt>
<pdfrwt beam="2">  1       -1 0.22806203E-01 0.16824939E+03</pdfrwt>
<totfact> 0.23678592E+03</totfact>
</mgrwt>
</event>
<event>
 7    1  0.5928109E-006  0.1353001E+03  0.7546771E-02  0.1232534E+00
         -2   -1    0    0    0  501 -0.00000000000E+00  0.00000000000E+00  0.47460248313E+03  0.47460248313E+03  0.00000000000E+00 0.  1.
          2   -1    0    0  501    0  0.00000000000E+00 -0.00000000000E+00 -0.51602967418E+02  0.51602967418E+02  0.00000000000E+00 0. -1.
         23    2    1    2    0    0 -0.51257152750E+02  0.70926438052E+01  0.58855897063E+02  0.14754703710E+03  0.12501404014E+03 0.  0.
          5    1    3    3  502    0 -0.35586068337E+02 -0.40997562914E+02  0.76368603089E+02  0.93815893975E+02  0.47000000000E+01 0.  1.
         -5    1    3    3    0  502 -0.15671084413E+02  0.48090206719E+02 -0.17512706026E+02  0.53731143123E+02  0.47000000000E+01 0.  1.
        -11    1    1    2    0    0  0.30143662084E+02  0.40739444754E+02  0.15481014156E+03  0.16289420694E+03  0.00000000000E+00 0. -1.
         11    1    1    2    0    0  0.21113490666E+02 -0.47832088559E+02  0.20933347708E+03  0.21576420651E+03  0.00000000000E+00 0.  1.
<mgrwt>
<rscale>  0 0.12663654E+03</rscale>
<asrwt>0</asrwt>
<pdfrwt beam="2">  1        2 0.79389184E-02 0.13530008E+03</pdfrwt>
<pdfrwt beam="1">  1       -2 0.73015764E-01 0.13530008E+03</pdfrwt>
<totfact> 0.14486413E+03</totfact>
</mgrwt>
</event>
<event>
 6    1  0.5928109E-006  0.1446319E+03  0.7546771E-02  0.1224624E+00
         -1   -1    0    0    0  501 -0.00000000000E+00  0.00000000000E+00  0.27089661016E+03  0.27089661016E+03  0.00000000000E+00 0.  1.
          1   -1    0    0  501    0  0.00000000000E+00 -0.00000000000E+00 -0.65294488631E+02  0.65294488631E+02  0.00000000000E+00 0. -1.
          5    1    1    2  502    0 -0.20468798587E+02  0.58979626572E+02  0.28531228283E+02  0.68801809958E+02  0.47000000000E+01 0. -1.
         -5    1    1    2    0  502 -0.16257332940E+02 -0.79918186015E+02  0.25210874914E+02  0.85492078839E+02  0.47000000000E+01 0.  1.
        -11    1    1    2    0    0 -0.28517291619E+02  0.20014659964E+02  0.55188993093E+02  0.65265975005E+02  0.00000000000E+00 0. -1.
         11    1    1    2    0    0  0.65243423146E+02  0.92389947923E+00  0.96671025236E+02  0.11663123499E+03  0.00000000000E+00 0.  1.
<mgrwt>
<rscale>  0 0.13192720E+03</rscale>
<asrwt>0</asrwt>
<pdfrwt beam="2">  1        1 0.10045306E-01 0.14463191E+03</pdfrwt>
<pdfrwt beam="1">  1       -1 0.41676401E-01 0.14463191E+03</pdfrwt>
<totfact> 0.35271484E+03</totfact>
</mgrwt>
</event>
<event>
 7    1  0.5928109E-006  0.1267537E+03  0.7546771E-02  0.1247057E+00
          2   -1    0    0  501    0  0.00000000000E+00  0.00000000000E+00  0.45620347174E+02  0.45620347174E+02  0.00000000000E+00 0. -1.
         -2   -1    0    0    0  501 -0.00000000000E+00 -0.00000000000E+00 -0.26853123775E+03  0.26853123775E+03  0.00000000000E+00 0.  1.
         23    2    1    2    0    0 -0.21012706117E+02  0.11506161552E+01 -0.11653611626E+03  0.17218350742E+03  0.12499454427E+03 0.  0.
          5    1    3    3  502    0  0.10765752573E+02 -0.47226571103E+02 -0.10093225154E+03  0.11205204080E+03  0.47000000000E+01 0. -1.
         -5    1    3    3    0  502 -0.31778458690E+02  0.48377187258E+02 -0.15603864726E+02  0.60131466622E+02  0.47000000000E+01 0. -1.
        -11    1    1    2    0    0  0.12946944471E+02  0.43899494104E+02 -0.69392823360E+02  0.83127329366E+02  0.00000000000E+00 0.  1.
         11    1    1    2    0    0  0.80657616459E+01 -0.45050110259E+02 -0.36981950954E+02  0.58840748140E+02  0.00000000000E+00 0. -1.
<mgrwt>
<rscale>  0 0.11763130E+03</rscale>
<asrwt>0</asrwt>
<pdfrwt beam="1">  1        2 0.70185150E-02 0.12675367E+03</pdfrwt>
<pdfrwt beam="2">  1       -2 0.41312498E-01 0.12675367E+03</pdfrwt>
<totfact> 0.53168873E+03</totfact>
</mgrwt>
</event>
<event>
 7    1  0.5928109E-006  0.1267719E+03  0.7546771E-02  0.1246859E+00
          4   -1    0    0  501    0  0.00000000000E+00  0.00000000000E+00  0.29434007253E+03  0.29434007253E+03  0.00000000000E+00 0. -1.
         -4   -1    0    0    0  501 -0.00000000000E+00 -0.00000000000E+00 -0.41535732419E+02  0.41535732419E+02  0.00000000000E+00 0.  1.
         23    2    1    2    0    0 -0.45023726022E+01 -0.20638763490E+02  0.14697624598E+03  0.19409570850E+03  0.12499958903E+03 0.  0.
          5    1    3    3  502    0  0.31565203954E+02  0.42774577642E+02  0.55482149912E+02  0.76983021193E+02  0.47000000000E+01 0.  1.
         -5    1    3    3    0  502 -0.36067576557E+02 -0.63413341132E+02  0.91494096069E+02  0.11711268730E+03  0.47000000000E+01 0.  1.
        -11    1    1    2    0    0  0.39362868294E+02  0.11567098093E+01  0.14259445851E+02  0.41882038798E+02  0.00000000000E+00 0.  1.
         11    1    1    2    0    0 -0.34860495692E+02  0.19482053680E+02  0.91568648280E+02  0.99898057656E+02  0.00000000000E+00 0. -1.
<mgrwt>
<rscale>  0 0.11774796E+03</rscale>
<asrwt>0</asrwt>
<pdfrwt beam="1">  1        4 0.45283087E-01 0.12677195E+03</pdfrwt>
<pdfrwt beam="2">  1       -4 0.63901129E-02 0.12677195E+03</pdfrwt>
<totfact> 0.12350633E+03</totfact>
</mgrwt>
</event>
<event>
 7    1  0.5928109E-006  0.1258046E+03  0.7546771E-02  0.1249807E+00
          1   -1    0    0  501    0  0.00000000000E+00  0.00000000000E+00  0.78227259243E+02  0.78227259243E+02  0.00000000000E+00 0. -1.
         -1   -1    0    0    0  501 -0.00000000000E+00 -0.00000000000E+00 -0.15188354048E+03  0.15188354048E+03  0.00000000000E+00 0.  1.
         23    2    1    2    0    0  0.12831634515E+02 -0.62023693056E+01 -0.30818044128E+02  0.12952430471E+03  0.12499469364E+03 0.  0.
          5    1    3    3  502    0 -0.51650364799E+02  0.13643322437E+02 -0.30900807748E+02  0.61893863593E+02  0.47000000000E+01 0. -1.
         -5    1    3    3    0  502  0.64481999314E+02 -0.19845691743E+02  0.82763619651E-01  0.67630441121E+02  0.47000000000E+01 0. -1.
        -11    1    1    2    0    0 -0.13956982044E+01 -0.24111229487E+02  0.19030190273E+02  0.30748130068E+02  0.00000000000E+00 0. -1.
         11    1    1    2    0    0 -0.11435936311E+02  0.30313598793E+02 -0.61868427383E+02  0.69838364943E+02  0.00000000000E+00 0.  1.
<mgrwt>
<rscale>  0 0.11602263E+03</rscale>
<asrwt>0</asrwt>
<pdfrwt beam="1">  1        1 0.12034963E-01 0.12580459E+03</pdfrwt>
<pdfrwt beam="2">  1       -1 0.23366699E-01 0.12580459E+03</pdfrwt>
<totfact> 0.73273688E+03</totfact>
</mgrwt>
</event>
<event>
 7    1  0.5928109E-006  0.1548348E+03  0.7546771E-02  0.1202538E+00
          2   -1    0    0  501    0  0.00000000000E+00  0.00000000000E+00  0.82527710599E+02  0.82527710599E+02  0.00000000000E+00 0. -1.
         -2   -1    0    0    0  501 -0.00000000000E+00 -0.00000000000E+00 -0.24768155565E+03  0.24768155565E+03  0.00000000000E+00 0.  1.
         23    2    1    2    0    0 -0.25869960151E+00  0.91362390613E+02 -0.10104003937E+03  0.18488619752E+03  0.12500665236E+03 0.  0.
          5    1    3    3  502    0  0.32984195729E+02  0.10781464892E+03 -0.54875241693E+02  0.12548042812E+03  0.47000000000E+01 0. -1.
         -5    1    3    3    0  502 -0.33242895330E+02 -0.16452258312E+02 -0.46164797678E+02  0.59405769401E+02  0.47000000000E+01 0. -1.
        -11    1    1    2    0    0  0.22671745108E+02 -0.40598927848E+02 -0.75504590957E+02  0.88674822944E+02  0.00000000000E+00 0.  1.
         11    1    1    2    0    0 -0.22413045506E+02 -0.50763462765E+02  0.11390785279E+02  0.56648245780E+02  0.00000000000E+00 0. -1.
<mgrwt>
<rscale>  0 0.14833163E+03</rscale>
<asrwt>0</asrwt>
<pdfrwt beam="1">  1        2 0.12696571E-01 0.15483480E+03</pdfrwt>
<pdfrwt beam="2">  1       -2 0.38104855E-01 0.15483480E+03</pdfrwt>
<totfact> 0.30188001E+03</totfact>
</mgrwt>
</event>
<event>
 7    1  0.5928109E-006  0.1608077E+03  0.7546771E-02  0.1195373E+00
         -1   -1    0    0    0  501 -0.00000000000E+00  0.00000000000E+00  0.40418085628E+02  0.40418085628E+02  0.00000000000E+00 0.  1.
          1   -1    0    0  501    0  0.00000000000E+00 -0.00000000000E+00 -0.60581012637E+03  0.60581012637E+03  0.00000000000E+00 0. -1.
         23    2    1    2    0    0  0.33434869961E+02  0.95478783410E+02 -0.40585866254E+03  0.43655511480E+03  0.12500010274E+03 0.  0.
          5    1    3    3  502    0  0.52418464332E+01 -0.30648465804E+02 -0.83091228230E+02  0.88842825365E+02  0.47000000000E+01 0.  1.
         -5    1    3    3    0  502  0.28193023527E+02  0.12612724921E+03 -0.32276743431E+03  0.34771228943E+03  0.47000000000E+01 0.  1.
        -11    1    1    2    0    0  0.42093692973E+01 -0.96848417576E+02 -0.10040727277E+03  0.13956702763E+03  0.00000000000E+00 0.  1.
         11    1    1    2    0    0 -0.37644239258E+02  0.13696341657E+01 -0.59126105434E+02  0.70106069572E+02  0.00000000000E+00 0. -1.
<mgrwt>
<rscale>  0 0.15422739E+03</rscale>
<asrwt>0</asrwt>
<pdfrwt beam="2">  1        1 0.93201554E-01 0.16080769E+03</pdfrwt>
<pdfrwt beam="1">  1       -1 0.62181673E-02 0.16080769E+03</pdfrwt>
<totfact> 0.42910307E+03</totfact>
</mgrwt>
</event>
<event>
 7    1  0.5928109E-006  0.1301054E+03  0.7546771E-02  0.1241470E+00
          2   -1    0    0  501    0  0.00000000000E+00  0.00000000000E+00  0.13568911890E+03  0.13568911890E+03  0.00000000000E+00 0. -1.
         -2   -1    0    0    0  501 -0.00000000000E+00 -0.00000000000E+00 -0.97914770547E+02  0.97914770547E+02  0.00000000000E+00 0.  1.
         23    2    1    2    0    0  0.35630359334E+02  0.56708256051E+01  0.40491657152E+02  0.13626078603E+03  0.12500298693E+03 0.  0.
          5    1    3    3  502    0  0.72079079577E+02  0.30332011047E+02  0.32351281703E+01  0.78409059815E+02  0.47000000000E+01 0.  1.
         -5    1    3    3    0  502 -0.36448720243E+02 -0.24661185442E+02  0.37256528982E+02  0.57851726219E+02  0.47000000000E+01 0.  1.
        -11    1    1    2    0    0  0.82911108334E+01  0.68959891313E+01  0.35924515658E+02  0.37508239231E+02  0.00000000000E+00 0. -1.
         11    1    1    2    0    0 -0.43921470168E+02 -0.12566814736E+02 -0.38641824457E+02  0.59834864182E+02  0.00000000000E+00 0.  1.
<mgrwt>
<rscale>  0 0.12099170E+03</rscale>
<asrwt>0</asrwt>
<pdfrwt beam="1">  1        2 0.20875249E-01 0.13010545E+03</pdfrwt>
<pdfrwt beam="2">  1       -2 0.15063811E-01 0.13010545E+03</pdfrwt>
<totfact> 0.84523792E+03</totfact>
</mgrwt>
</event>
<event>
 7    1  0.5928109E-006  0.1255905E+03  0.7546771E-02  0.1250942E+00
         -1   -1    0    0    0  501 -0.00000000000E+00  0.00000000000E+00  0.73754795710E+02  0.73754795710E+02  0.00000000000E+00 0.  1.
          1   -1    0    0  501    0  0.00000000000E+00 -0.00000000000E+00 -0.15960561413E+03  0.15960561413E+03  0.00000000000E+00 0. -1.
         23    2    1    2    0    0  0.85724177246E+01 -0.86071060837E+01 -0.65518827735E+02  0.14165343922E+03  0.12500164573E+03 0.  0.
          5    1    3    3  502    0  0.36895924078E+02 -0.46732051966E+02  0.10591153204E+01  0.59736133285E+02  0.47000000000E+01 0. -1.
         -5    1    3    3    0  502 -0.28323506353E+02  0.38124945883E+02 -0.66577943055E+02  0.81917305938E+02  0.47000000000E+01 0. -1.
        -11    1    1    2    0    0  0.11789036166E+02 -0.50170515431E+01  0.31702480001E+02  0.34193558138E+02  0.00000000000E+00 0.  1.
         11    1    1    2    0    0 -0.20361453891E+02  0.13624157627E+02 -0.52034470691E+02  0.57513412485E+02  0.00000000000E+00 0. -1.
<mgrwt>
<rscale>  0 0.11536712E+03</rscale>
<asrwt>0</asrwt>
<pdfrwt beam="2">  1        1 0.24554710E-01 0.12559053E+03</pdfrwt>
<pdfrwt beam="1">  1       -1 0.11346892E-01 0.12559053E+03</pdfrwt>
<totfact> 0.91791989E+03</totfact>
</mgrwt>
</event>
<event>
 7    1  0.5928109E-006  0.1469337E+03  0.7546771E-02  0.1214226E+00
          1   -1    0    0  501    0  0.00000000000E+00  0.00000000000E+00  0.25705468354E+02  0.25705468354E+02  0.00000000000E+00 0. -1.
         -1   -1    0    0    0  501 -0.00000000000E+00 -0.00000000000E+00 -0.72169223988E+03  0.72169223988E+03  0.00000000000E+00 0.  1.
         23    2    1    2    0    0  0.43991168057E+02 -0.63495037886E+02 -0.30137216324E+03  0.33528300049E+03  0.12499066740E+03 0.  0.
          5    1    3    3  502    0 -0.61423380693E+01  0.34684455318E+02 -0.57237519489E+02  0.67371829387E+02  0.47000000000E+01 0. -1.
         -5    1    3    3    0  502  0.50133506126E+02 -0.98179493204E+02 -0.24413464375E+03  0.26791117110E+03  0.47000000000E+01 0. -1.
        -11    1    1    2    0    0 -0.12059152314E+02  0.73702387609E+02 -0.33940255029E+03  0.34752202266E+03  0.00000000000E+00 0.  1.
         11    1    1    2    0    0 -0.31932015742E+02 -0.10207349723E+02 -0.55212057999E+02  0.64592685083E+02  0.00000000000E+00 0. -1.
<mgrwt>
<rscale>  0 0.13933560E+03</rscale>
<asrwt>0</asrwt>
<pdfrwt beam="1">  1        1 0.39546874E-02 0.14693369E+03</pdfrwt>
<pdfrwt beam="2">  1       -1 0.11102958E+00 0.14693369E+03</pdfrwt>
<totfact> 0.17905801E+03</totfact>
</mgrwt>
</event>
<event>
 7    1  0.5928109E-006  0.1492615E+03  0.7546771E-02  0.1210975E+00
         -2   -1    0    0    0  501 -0.00000000000E+00  0.00000000000E+00  0.51773911325E+03  0.51773911325E+03  0.00000000000E+00 0.  1.
          2   -1    0    0  501    0  0.00000000000E+00 -0.00000000000E+00 -0.48914704839E+02  0.48914704839E+02  0.00000000000E+00 0. -1.
         23    2    1    2    0    0 -0.57463247085E+02 -0.57894193784E+02  0.10341153651E+03  0.18158455423E+03  0.12500096804E+03 0.  0.
          5    1    3    3  502    0 -0.11776504114E+02 -0.83275752541E+02  0.97390717737E+02  0.12876559677E+03  0.47000000000E+01 0.  1.
         -5    1    3    3    0  502 -0.45686742971E+02  0.25381558756E+02  0.60208187682E+01  0.52818957457E+02  0.47000000000E+01 0.  1.
        -11    1    1    2    0    0  0.36996265749E+02  0.56786310780E+02  0.35621143924E+03  0.36260170741E+03  0.00000000000E+00 0.  1.
         11    1    1    2    0    0  0.20466981336E+02  0.11078830049E+01  0.92014326643E+01  0.22467556450E+02  0.00000000000E+00 0. -1.
<mgrwt>
<rscale>  0 0.14176416E+03</rscale>
<asrwt>0</asrwt>
<pdfrwt beam="2">  1        2 0.75253396E-02 0.14926153E+03</pdfrwt>
<pdfrwt beam="1">  1       -2 0.79652168E-01 0.14926153E+03</pdfrwt>
<totfact> 0.12894692E+03</totfact>
</mgrwt>
</event>
<event>
 7    1  0.5928109E-006  0.2000390E+03  0.7546771E-02  0.1153998E+00
          1   -1    0    0  501    0  0.00000000000E+00  0.00000000000E+00  0.14125116302E+04  0.14125116302E+04  0.00000000000E+00 0. -1.
         -1   -1    0    0    0  501 -0.00000000000E+00 -0.00000000000E+00 -0.30629692855E+02  0.30629692855E+02  0.00000000000E+00 0.  1.
         23    2    1    2    0    0  0.15307953066E+03 -0.30891862863E+02  0.10104589523E+04  0.10300693598E+04  0.12501176694E+03 0.  0.
          5    1    3    3  502    0  0.95681214601E+02  0.43753149568E+02  0.49877449772E+03  0.50977183376E+03  0.47000000000E+01 0. -1.
         -5    1    3    3    0  502  0.57398316063E+02 -0.74645012431E+02  0.51168445460E+03  0.52029752608E+03  0.47000000000E+01 0. -1.
        -11    1    1    2    0    0 -0.55550641229E+02 -0.55719054356E+00  0.24039857389E+03  0.24673398334E+03  0.00000000000E+00 0. -1.
         11    1    1    2    0    0 -0.97528889434E+02  0.31449053407E+02  0.13102441111E+03  0.16633797986E+03  0.00000000000E+00 0.  1.
<mgrwt>
<rscale>  0 0.19503398E+03</rscale>
<asrwt>0</asrwt>
<pdfrwt beam="1">  1        1 0.21730943E+00 0.20003898E+03</pdfrwt>
<pdfrwt beam="2">  1       -1 0.47122615E-02 0.20003898E+03</pdfrwt>
<totfact> 0.15776620E+03</totfact>
</mgrwt>
</event>
<event>
 7    1  0.5928109E-006  0.1748989E+03  0.7546771E-02  0.1179234E+00
          1   -1    0    0  501    0  0.00000000000E+00  0.00000000000E+00  0.11828468170E+03  0.11828468170E+03  0.00000000000E+00 0. -1.
         -1   -1    0    0    0  501 -0.00000000000E+00 -0.00000000000E+00 -0.33435631824E+03  0.33435631824E+03  0.00000000000E+00 0.  1.
         23    2    1    2    0    0  0.11452935091E+03  0.42978985563E+02  0.15968396050E+02  0.17562638943E+03  0.12500189427E+03 0.  0.
          5    1    3    3  502    0  0.10809009706E+03 -0.20868689182E+02  0.15574431031E+02  0.11128173332E+03  0.47000000000E+01 0.  1.
         -5    1    3    3    0  502  0.64392538493E+01  0.63847674745E+02  0.39396501958E+00  0.64344656102E+02  0.47000000000E+01 0.  1.
        -11    1    1    2    0    0 -0.68251171376E+02  0.10752295595E+02 -0.16725178570E+03  0.18096130546E+03  0.00000000000E+00 0.  1.
         11    1    1    2    0    0 -0.46278179530E+02 -0.53731281158E+02 -0.64788246897E+02  0.96053305052E+02  0.00000000000E+00 0. -1.
<mgrwt>
<rscale>  0 0.16867737E+03</rscale>
<asrwt>0</asrwt>
<pdfrwt beam="1">  1        1 0.18197644E-01 0.17489894E+03</pdfrwt>
<pdfrwt beam="2">  1       -1 0.51439433E-01 0.17489894E+03</pdfrwt>
<totfact> 0.11163627E+03</totfact>
</mgrwt>
</event>
<event>
 7    1  0.5928109E-006  0.1601970E+03  0.7546771E-02  0.1195970E+00
         -2   -1    0    0    0  501 -0.00000000000E+00  0.00000000000E+00  0.25259155080E+03  0.25259155080E+03  0.00000000000E+00 0. -1.
          2   -1    0    0  501    0  0.00000000000E+00 -0.00000000000E+00 -0.86954829451E+02  0.86954829451E+02  0.00000000000E+00 0.  1.
         23    2    1    2    0    0  0.65667496212E+02 -0.75672089675E+02  0.98113278953E+02  0.18785447843E+03  0.12499841736E+03 0.  0.
          5    1    3    3  502    0  0.98757265550E+02 -0.50848312281E+02  0.43974515917E+02  0.11955917535E+03  0.47000000000E+01 0. -1.
         -5    1    3    3    0  502 -0.33089769338E+02 -0.24823777394E+02  0.54138763036E+02  0.68295303074E+02  0.47000000000E+01 0. -1.
        -11    1    1    2    0    0 -0.10200684983E+02  0.33662880248E+02  0.73876360101E+02  0.81822735609E+02  0.00000000000E+00 0.  1.
         11    1    1    2    0    0 -0.55466811229E+02  0.42009209428E+02 -0.63529177038E+01  0.69869166218E+02  0.00000000000E+00 0. -1.
<mgrwt>
<rscale>  0 0.15372461E+03</rscale>
<asrwt>0</asrwt>
<pdfrwt beam="2">  1        2 0.13377666E-01 0.16019703E+03</pdfrwt>
<pdfrwt beam="1">  1       -2 0.38860238E-01 0.16019703E+03</pdfrwt>
<totfact> 0.27380546E+03</totfact>
</mgrwt>
</event>
<event>
 7    1  0.5928109E-006  0.1291876E+03  0.7546771E-02  0.1247656E+00
          2   -1    0    0  501    0  0.00000000000E+00  0.00000000000E+00  0.14048609992E+04  0.14048609992E+04  0.00000000000E+00 0. -1.
         -2   -1    0    0    0  501 -0.00000000000E+00 -0.00000000000E+00 -0.93868598629E+01  0.93868598629E+01  0.00000000000E+00 0.  1.
         23    2    1    2    0    0 -0.32533183992E+02 -0.24154408516E+01  0.10451024548E+04  0.10530567728E+04  0.12500073309E+03 0.  0.
          5    1    3    3  502    0 -0.76130693284E+02  0.21482577773E+02  0.63657190757E+03  0.64148520413E+03  0.47000000000E+01 0. -1.
         -5    1    3    3    0  502  0.43597509292E+02 -0.23898018625E+02  0.40853054721E+03  0.41157156864E+03  0.47000000000E+01 0. -1.
        -11    1    1    2    0    0  0.40467185610E+02  0.33523648435E+02  0.16838112564E+03  0.17639056547E+03  0.00000000000E+00 0.  1.
         11    1    1    2    0    0 -0.79340016183E+01 -0.31108207584E+02  0.18199055888E+03  0.18480052078E+03  0.00000000000E+00 0. -1.
<mgrwt>
<rscale>  0 0.11727828E+03</rscale>
<asrwt>0</asrwt>
<pdfrwt beam="1">  1        2 0.21613229E+00 0.12918756E+03</pdfrwt>
<pdfrwt beam="2">  1       -2 0.14441334E-02 0.12918756E+03</pdfrwt>
<totfact> 0.18410426E+04</totfact>
</mgrwt>
</event>
<event>
 7    1  0.5928109E-006  0.1772106E+03  0.7546771E-02  0.1176256E+00
         -1   -1    0    0    0  501 -0.00000000000E+00  0.00000000000E+00  0.46573549516E+03  0.46573549516E+03  0.00000000000E+00 0.  1.
          1   -1    0    0  501    0  0.00000000000E+00 -0.00000000000E+00 -0.61322091471E+02  0.61322091471E+02  0.00000000000E+00 0. -1.
         23    2    1    2    0    0 -0.12505861429E+03  0.11710964423E+02  0.16897692640E+03  0.24486077660E+03  0.12500717805E+03 0.  0.
          5    1    3    3  502    0 -0.59036702394E+02  0.43687228507E+02  0.15279197093E+03  0.16959181155E+03  0.47000000000E+01 0. -1.
         -5    1    3    3    0  502 -0.66021911899E+02 -0.31976264083E+02  0.16184955465E+02  0.75268965045E+02  0.47000000000E+01 0. -1.
        -11    1    1    2    0    0  0.93114857707E+02 -0.17369035315E+02  0.81739838778E+02  0.12511379363E+03  0.00000000000E+00 0. -1.
         11    1    1    2    0    0  0.31943756586E+02  0.56580708914E+01  0.15369663851E+03  0.15708301640E+03  0.00000000000E+00 0.  1.
<mgrwt>
<rscale>  0 0.17153579E+03</rscale>
<asrwt>0</asrwt>
<pdfrwt beam="2">  1        1 0.94341682E-02 0.17721060E+03</pdfrwt>
<pdfrwt beam="1">  1       -1 0.71651612E-01 0.17721060E+03</pdfrwt>
<totfact> 0.14023995E+03</totfact>
</mgrwt>
</event>
<event>
 7    1  0.5928109E-006  0.1286701E+03  0.7546771E-02  0.1241493E+00
          1   -1    0    0  501    0  0.00000000000E+00  0.00000000000E+00  0.26734088285E+02  0.26734088285E+02  0.00000000000E+00 0. -1.
         -1   -1    0    0    0  501 -0.00000000000E+00 -0.00000000000E+00 -0.51164267075E+03  0.51164267075E+03  0.00000000000E+00 0.  1.
         23    2    1    2    0    0 -0.19864834508E+02 -0.43155672335E+02 -0.21778150921E+03  0.25295214110E+03  0.11957832676E+03 0.  0.
          5    1    3    3  502    0 -0.38410390876E+02 -0.60658239795E+02 -0.21518165827E+03  0.22689208060E+03  0.47000000000E+01 0. -1.
         -5    1    3    3    0  502  0.18545556367E+02  0.17502567459E+02 -0.25998509385E+01  0.26060060505E+02  0.47000000000E+01 0.  1.
        -11    1    1    2    0    0 -0.11484224076E+02  0.57542249360E+02 -0.11123857311E+03  0.12576572669E+03  0.00000000000E+00 0.  1.
         11    1    1    2    0    0  0.31349058584E+02 -0.14386577024E+02 -0.15588850015E+03  0.15965889124E+03  0.00000000000E+00 0. -1.
<mgrwt>
<rscale>  0 0.12097733E+03</rscale>
<asrwt>0</asrwt>
<pdfrwt beam="1">  1        1 0.41129368E-02 0.12867012E+03</pdfrwt>
<pdfrwt beam="2">  1       -1 0.78714255E-01 0.12867012E+03</pdfrwt>
<totfact> 0.35328992E+03</totfact>
</mgrwt>
</event>
<event>
 7    1  0.5928109E-006  0.1310911E+03  0.7546771E-02  0.1239415E+00
          1   -1    0    0  501    0  0.00000000000E+00  0.00000000000E+00  0.80302930043E+03  0.80302930043E+03  0.00000000000E+00 0.  1.
         -1   -1    0    0    0  501 -0.00000000000E+00 -0.00000000000E+00 -0.19274817574E+02  0.19274817574E+02  0.00000000000E+00 0. -1.
         23    2    1    2    0    0  0.36023399526E+02 -0.16204459901E+02  0.59289746602E+03  0.60721683316E+03  0.12499842970E+03 0.  0.
          5    1    3    3  502    0  0.95540546167E+00 -0.67975243278E+02  0.29035091542E+03  0.29824032353E+03  0.47000000000E+01 0.  1.
         -5    1    3    3    0  502  0.35067994064E+02  0.51770783377E+02  0.30254655060E+03  0.30897650962E+03  0.47000000000E+01 0.  1.
        -11    1    1    2    0    0 -0.65557667796E+02  0.18493071909E+02  0.14874862242E+03  0.16360303844E+03  0.00000000000E+00 0.  1.
         11    1    1    2    0    0  0.29534268270E+02 -0.22886120080E+01  0.42108394418E+02  0.51484246402E+02  0.00000000000E+00 0. -1.
<mgrwt>
<rscale>  0 0.12225961E+03</rscale>
<asrwt>0</asrwt>
<pdfrwt beam="1">  1        1 0.12354294E+00 0.13109110E+03</pdfrwt>
<pdfrwt beam="2">  1       -1 0.29653572E-02 0.13109110E+03</pdfrwt>
<totfact> 0.84499848E+03</totfact>
</mgrwt>
</event>
<event>
 7    1  0.5928109E-006  0.1291047E+03  0.7546771E-02  0.1243754E+00
          2   -1    0    0  501    0  0.00000000000E+00  0.00000000000E+00  0.16052289154E+03  0.16052289154E+03  0.00000000000E+00 0. -1.
         -2   -1    0    0    0  501 -0.00000000000E+00 -0.00000000000E+00 -0.81131846256E+02  0.81131846256E+02  0.00000000000E+00 0.  1.
         23    2    1    2    0    0 -0.20275301419E+02  0.25050427973E+02  0.67902472699E+02  0.14587245031E+03  0.12501765544E+03 0.  0.
          5    1    3    3  502    0 -0.40900309174E+02 -0.40795309016E+02  0.18355013196E+02  0.60795468891E+02  0.47000000000E+01 0.  1.
         -5    1    3    3    0  502  0.20625007755E+02  0.65845736990E+02  0.49547459503E+02  0.85076981422E+02  0.47000000000E+01 0.  1.
        -11    1    1    2    0    0  0.95669064226E+01  0.17475192696E+02  0.39154467012E+02  0.43931541577E+02  0.00000000000E+00 0. -1.
         11    1    1    2    0    0  0.10708394996E+02 -0.42525620670E+02 -0.27665894427E+02  0.51850745908E+02  0.00000000000E+00 0.  1.
<mgrwt>
<rscale>  0 0.11960275E+03</rscale>
<asrwt>0</asrwt>
<pdfrwt beam="1">  1        2 0.24695829E-01 0.12910471E+03</pdfrwt>
<pdfrwt beam="2">  1       -2 0.12481823E-01 0.12910471E+03</pdfrwt>
<totfact> 0.94947202E+03</totfact>
</mgrwt>
</event>
<event>
 7    1  0.5928109E-006  0.2887027E+03  0.7546771E-02  0.1092575E+00
         -2   -1    0    0    0  501 -0.00000000000E+00  0.00000000000E+00  0.58524744701E+02  0.58524744701E+02  0.00000000000E+00 0.  1.
          2   -1    0    0  501    0  0.00000000000E+00 -0.00000000000E+00 -0.14346007881E+04  0.14346007881E+04  0.00000000000E+00 0. -1.
         23    2    1    2    0    0 -0.24786523549E+03  0.79304951967E+02 -0.86237742550E+03  0.90941963911E+03  0.12499122214E+03 0.  0.
          5    1    3    3  502    0 -0.11753108827E+02  0.22121067415E+02 -0.19144409422E+02  0.31875940814E+02  0.47000000000E+01 0.  1.
         -5    1    3    3    0  502 -0.23611212667E+03  0.57183884552E+02 -0.84323301607E+03  0.87754369829E+03  0.47000000000E+01 0.  1.
        -11    1    1    2    0    0  0.11249882145E+03  0.76049121844E+01 -0.25872958945E+03  0.28223185499E+03  0.00000000000E+00 0. -1.
         11    1    1    2    0    0  0.13536641404E+03 -0.86909864151E+02 -0.25496902842E+03  0.30147403867E+03  0.00000000000E+00 0.  1.
<mgrwt>
<rscale>  0 0.28577675E+03</rscale>
<asrwt>0</asrwt>
<pdfrwt beam="2">  1        2 0.22070780E+00 0.28870271E+03</pdfrwt>
<pdfrwt beam="1">  1       -2 0.90038073E-02 0.28870271E+03</pdfrwt>
<totfact> 0.11612045E+03</totfact>
</mgrwt>
</event>
<event>
 7    1  0.5928109E-006  0.1454930E+03  0.7546771E-02  0.1212305E+00
          1   -1    0    0  501    0  0.00000000000E+00  0.00000000000E+00  0.12410616463E+04  0.12410616463E+04  0.00000000000E+00 0. -1.
         -1   -1    0    0    0  501 -0.00000000000E+00 -0.00000000000E+00 -0.20078931485E+02  0.20078931485E+02  0.00000000000E+00 0.  1.
         23    2    1    2    0    0  0.70749604439E+02 -0.57130247072E+02  0.95691733995E+03  0.96791477953E+03  0.11357311863E+03 0.  0.
          5    1    3    3  502    0  0.61171638824E+02 -0.90028036092E+02  0.78779860682E+03  0.79529601507E+03  0.47000000000E+01 0. -1.
         -5    1    3    3    0  502  0.95779656143E+01  0.32897789020E+02  0.16911873313E+03  0.17261876446E+03  0.47000000000E+01 0.  1.
        -11    1    1    2    0    0 -0.44525515224E+02  0.16047361802E+02  0.34564672388E+02  0.58606790597E+02  0.00000000000E+00 0.  1.
         11    1    1    2    0    0 -0.26224089215E+02  0.41082885270E+02  0.22950070246E+03  0.23461900764E+03  0.00000000000E+00 0. -1.
<mgrwt>
<rscale>  0 0.14076386E+03</rscale>
<asrwt>0</asrwt>
<pdfrwt beam="1">  1        1 0.19093250E+00 0.14549304E+03</pdfrwt>
<pdfrwt beam="2">  1       -1 0.30890674E-02 0.14549304E+03</pdfrwt>
<totfact> 0.38192882E+03</totfact>
</mgrwt>
</event>
<event>
 7    1  0.5928109E-006  0.1373593E+03  0.7546771E-02  0.1222458E+00
         -1   -1    0    0    0  501 -0.00000000000E+00  0.00000000000E+00  0.28243542907E+02  0.28243542907E+02  0.00000000000E+00 0.  1.
          1   -1    0    0  501    0  0.00000000000E+00 -0.00000000000E+00 -0.60893850122E+03  0.60893850122E+03  0.00000000000E+00 0. -1.
         23    2    1    2    0    0 -0.36167310600E+02 -0.43899131312E+02 -0.35184633833E+03  0.37770812393E+03  0.12502948851E+03 0.  0.
          5    1    3    3  502    0  0.38002026884E+01 -0.81486231059E+02 -0.19285023761E+03  0.20944629751E+03  0.47000000000E+01 0.  1.
         -5    1    3    3    0  502 -0.39967513288E+02  0.37587099747E+02 -0.15899610072E+03  0.16826182642E+03  0.47000000000E+01 0.  1.
        -11    1    1    2    0    0  0.59585498070E+02  0.62009148404E+02 -0.20185655447E+03  0.21941202029E+03  0.00000000000E+00 0.  1.
         11    1    1    2    0    0 -0.23418187471E+02 -0.18110017093E+02 -0.26992065505E+02  0.40061899902E+02  0.00000000000E+00 0. -1.
<mgrwt>
<rscale>  0 0.13342646E+03</rscale>
<asrwt>0</asrwt>
<pdfrwt beam="2">  1        1 0.93682847E-01 0.13735931E+03</pdfrwt>
<pdfrwt beam="1">  1       -1 0.43451604E-02 0.13735931E+03</pdfrwt>
<totfact> 0.71980882E+03</totfact>
</mgrwt>
</event>
<event>
 7    1  0.5928109E-006  0.1836174E+03  0.7546771E-02  0.1168417E+00
         -1   -1    0    0    0  501 -0.00000000000E+00  0.00000000000E+00  0.11023400585E+03  0.11023400585E+03  0.00000000000E+00 0.  1.
          1   -1    0    0  501    0  0.00000000000E+00 -0.00000000000E+00 -0.27913614817E+03  0.27913614817E+03  0.00000000000E+00 0. -1.
         23    2    1    2    0    0  0.11744310176E+02  0.13398708134E+03 -0.86727000131E+02  0.20306878684E+03  0.12499957141E+03 0.  0.
          5    1    3    3  502    0 -0.48384797603E+02  0.10692436465E+03 -0.53097669634E+02  0.12890058539E+03  0.47000000000E+01 0.  1.
         -5    1    3    3    0  502  0.60129107779E+02  0.27062716690E+02 -0.33629330497E+02  0.74168201452E+02  0.47000000000E+01 0.  1.
        -11    1    1    2    0    0 -0.32959461964E+02 -0.11247535634E+03 -0.97469163913E+02  0.15243775724E+03  0.00000000000E+00 0.  1.
         11    1    1    2    0    0  0.21215151787E+02 -0.21511724994E+02  0.15294021728E+02  0.33863609941E+02  0.00000000000E+00 0. -1.
<mgrwt>
<rscale>  0 0.17936749E+03</rscale>
<asrwt>0</asrwt>
<pdfrwt beam="2">  1        1 0.42944023E-01 0.18361743E+03</pdfrwt>
<pdfrwt beam="1">  1       -1 0.16959078E-01 0.18361743E+03</pdfrwt>
<totfact> 0.24927486E+03</totfact>
</mgrwt>
</event>
<event>
 6    1  0.5928109E-006  0.3926443E+03  0.7546771E-02  0.1046357E+00
         -2   -1    0    0    0  501 -0.00000000000E+00  0.00000000000E+00  0.11119675317E+03  0.11119675317E+03  0.00000000000E+00 0.  1.
          2   -1    0    0  501    0  0.00000000000E+00 -0.00000000000E+00 -0.34661433349E+03  0.34661433349E+03  0.00000000000E+00 0. -1.
          5    1    1    2  502    0 -0.19194312037E+02  0.13314920445E+03 -0.22231269243E+03  0.25988873672E+03  0.47000000000E+01 0. -1.
         -5    1    1    2    0  502 -0.27841014511E+01  0.55559177832E+01  0.25523876873E+02  0.26686658351E+02  0.47000000000E+01 0.  1.
        -11    1    1    2    0    0 -0.17323959968E+02 -0.11740349308E+03 -0.12191033428E+02  0.11929929200E+03  0.00000000000E+00 0. -1.
         11    1    1    2    0    0  0.39302373456E+02 -0.21301629154E+02 -0.26437731335E+02  0.51936399587E+02  0.00000000000E+00 0.  1.
<mgrwt>
<rscale>  0 0.39264431E+03</rscale>
<asrwt>0</asrwt>
<pdfrwt beam="2">  1        2 0.53325282E-01 0.39264431E+03</pdfrwt>
<pdfrwt beam="1">  1       -2 0.17107193E-01 0.39264431E+03</pdfrwt>
<totfact> 0.25795618E+03</totfact>
</mgrwt>
</event>
<event>
 7    1  0.5928109E-006  0.1432371E+03  0.7546771E-02  0.1216406E+00
         -1   -1    0    0    0  501 -0.00000000000E+00  0.00000000000E+00  0.30430283389E+03  0.30430283389E+03  0.00000000000E+00 0.  1.
          1   -1    0    0  501    0  0.00000000000E+00 -0.00000000000E+00 -0.58029891041E+02  0.58029891041E+02  0.00000000000E+00 0. -1.
         23    2    1    2    0    0  0.60651005587E+02 -0.34777942100E+02  0.12886842382E+03  0.19267573358E+03  0.12501527075E+03 0.  0.
          5    1    3    3  502    0  0.96347544496E+02 -0.34201391037E+02  0.71156353063E+02  0.12465111737E+03  0.47000000000E+01 0. -1.
         -5    1    3    3    0  502 -0.35696538908E+02 -0.57655106312E+00  0.57712070752E+02  0.68024616218E+02  0.47000000000E+01 0. -1.
        -11    1    1    2    0    0  0.18327505182E+02  0.35613695223E+02  0.21645258306E+02  0.45527463588E+02  0.00000000000E+00 0. -1.
         11    1    1    2    0    0 -0.78978510769E+02 -0.83575312371E+00  0.95759260730E+02  0.12412952776E+03  0.00000000000E+00 0.  1.
<mgrwt>
<rscale>  0 0.13773740E+03</rscale>
<asrwt>0</asrwt>
<pdfrwt beam="2">  1        1 0.89276757E-02 0.14323710E+03</pdfrwt>
<pdfrwt beam="1">  1       -1 0.46815820E-01 0.14323710E+03</pdfrwt>
<totfact> 0.33512936E+03</totfact>
</mgrwt>
</event>
<event>
 7    1  0.5928109E-006  0.1121588E+03  0.7546771E-02  0.1266815E+00
          1   -1    0    0  501    0  0.00000000000E+00  0.00000000000E+00  0.36246555668E+03  0.36246555668E+03  0.00000000000E+00 0. -1.
         -1   -1    0    0    0  501 -0.00000000000E+00 -0.00000000000E+00 -0.32950962499E+02  0.32950962499E+02  0.00000000000E+00 0.  1.
         23    2    1    2    0    0  0.13631171051E+02 -0.70826028467E+01  0.24970099208E+03  0.27373376218E+03  0.11110182278E+03 0.  0.
          5    1    3    3  502    0  0.48928395182E+02 -0.82895305191E+01  0.49012950177E+02  0.69907535048E+02  0.47000000000E+01 0. -1.
         -5    1    3    3    0  502 -0.35297224132E+02  0.12069276724E+01  0.20068804190E+03  0.20382622713E+03  0.47000000000E+01 0.  1.
        -11    1    1    2    0    0 -0.91878400158E+01  0.38733126654E+02  0.47401999333E+01  0.40089163124E+02  0.00000000000E+00 0. -1.
         11    1    1    2    0    0 -0.44433310349E+01 -0.31650523807E+02  0.75073402171E+02  0.81593593875E+02  0.00000000000E+00 0.  1.
<mgrwt>
<rscale>  0 0.10669525E+03</rscale>
<asrwt>0</asrwt>
<pdfrwt beam="1">  1        1 0.55763929E-01 0.11215876E+03</pdfrwt>
<pdfrwt beam="2">  1       -1 0.50693791E-02 0.11215876E+03</pdfrwt>
<totfact> 0.11052233E+04</totfact>
</mgrwt>
</event>
<event>
 7    1  0.5928109E-006  0.1501013E+03  0.7546771E-02  0.1208704E+00
         -2   -1    0    0    0  501 -0.00000000000E+00  0.00000000000E+00  0.38736404244E+02  0.38736404244E+02  0.00000000000E+00 0.  1.
          2   -1    0    0  501    0  0.00000000000E+00 -0.00000000000E+00 -0.49142713546E+03  0.49142713546E+03  0.00000000000E+00 0. -1.
         23    2    1    2    0    0  0.73165217643E+02 -0.39403614799E+02 -0.26213465689E+03  0.30206783772E+03  0.12499842523E+03 0.  0.
          5    1    3    3  502    0  0.29952226503E+02  0.19779573628E+01  0.27142267094E+01  0.30504183556E+02  0.47000000000E+01 0. -1.
         -5    1    3    3    0  502  0.43212991140E+02 -0.41381572162E+02 -0.26484888360E+03  0.27156365416E+03  0.47000000000E+01 0. -1.
        -11    1    1    2    0    0 -0.79078278119E+02 -0.29116573196E+01 -0.14779968721E+03  0.16765022922E+03  0.00000000000E+00 0. -1.
         11    1    1    2    0    0  0.59130604753E+01  0.42315272119E+02 -0.42756387125E+02  0.60445472772E+02  0.00000000000E+00 0.  1.
<mgrwt>
<rscale>  0 0.14349316E+03</rscale>
<asrwt>0</asrwt>
<pdfrwt beam="2">  1        2 0.75604180E-01 0.15010130E+03</pdfrwt>
<pdfrwt beam="1">  1       -2 0.59594464E-02 0.15010130E+03</pdfrwt>
<totfact> 0.91136611E+03</totfact>
</mgrwt>
</event>
<event>
 7    1  0.5928109E-006  0.1251138E+03  0.7546771E-02  0.1252439E+00
         -1   -1    0    0    0  501 -0.00000000000E+00  0.00000000000E+00  0.11115868264E+02  0.11115868264E+02  0.00000000000E+00 0.  1.
          1   -1    0    0  501    0  0.00000000000E+00 -0.00000000000E+00 -0.21632570071E+04  0.21632570071E+04  0.00000000000E+00 0. -1.
         23    2    1    2    0    0  0.27090489219E+00  0.53338348253E+01 -0.19497546194E+04  0.19537647071E+04  0.12499972658E+03 0.  0.
          5    1    3    3  502    0  0.67650307008E+01 -0.26735089391E+02 -0.10349828981E+03  0.10721248360E+03  0.47000000000E+01 0. -1.
         -5    1    3    3    0  502 -0.64941258086E+01  0.32068924216E+02 -0.18462563295E+04  0.18465522235E+04  0.47000000000E+01 0. -1.
        -11    1    1    2    0    0 -0.11760484886E+01  0.29894327722E+02 -0.17043182620E+03  0.17303774531E+03  0.00000000000E+00 0. -1.
         11    1    1    2    0    0  0.90514359640E+00 -0.35228162547E+02 -0.31954693266E+02  0.47570422987E+02  0.00000000000E+00 0.  1.
<mgrwt>
<rscale>  0 0.11451019E+03</rscale>
<asrwt>0</asrwt>
<pdfrwt beam="2">  1        1 0.33280871E+00 0.12511377E+03</pdfrwt>
<pdfrwt beam="1">  1       -1 0.17101339E-02 0.12511377E+03</pdfrwt>
<totfact> 0.22822070E+03</totfact>
</mgrwt>
</event>
<event>
 7    1  0.5928109E-006  0.1626344E+03  0.7546771E-02  0.1194536E+00
         -2   -1    0    0    0  501 -0.00000000000E+00  0.00000000000E+00  0.57175023200E+03  0.57175023200E+03  0.00000000000E+00 0.  1.
          2   -1    0    0  501    0  0.00000000000E+00 -0.00000000000E+00 -0.38691583864E+02  0.38691583864E+02  0.00000000000E+00 0. -1.
         23    2    1    2    0    0 -0.10378430144E+03 -0.72190204802E+01  0.26884017286E+03  0.31420531537E+03  0.12500658456E+03 0.  0.
          5    1    3    3  502    0  0.79755493152E+01  0.33551589863E+02  0.11207659879E+03  0.11735660427E+03  0.47000000000E+01 0. -1.
         -5    1    3    3    0  502 -0.11175985075E+03 -0.40770610343E+02  0.15676357407E+03  0.19684871110E+03  0.47000000000E+01 0. -1.
        -11    1    1    2    0    0  0.37143635620E+02 -0.37210458828E+02  0.85179623159E+02  0.10009913144E+03  0.00000000000E+00 0.  1.
         11    1    1    2    0    0  0.66640665816E+02  0.44429479308E+02  0.17903885212E+03  0.19613736905E+03  0.00000000000E+00 0. -1.
<mgrwt>
<rscale>  0 0.15493559E+03</rscale>
<asrwt>0</asrwt>
<pdfrwt beam="2">  1        2 0.59525518E-02 0.16263438E+03</pdfrwt>
<pdfrwt beam="1">  1       -2 0.87961568E-01 0.16263438E+03</pdfrwt>
<totfact> 0.14034053E+03</totfact>
</mgrwt>
</event>
<event>
 7    1  0.5928109E-006  0.1260639E+03  0.7546771E-02  0.1248204E+00
          2   -1    0    0  501    0  0.00000000000E+00  0.00000000000E+00  0.37414918486E+03  0.37414918486E+03  0.00000000000E+00 0. -1.
         -2   -1    0    0    0  501 -0.00000000000E+00 -0.00000000000E+00 -0.32237192443E+02  0.32237192443E+02  0.00000000000E+00 0.  1.
         23    2    1    2    0    0 -0.14937310858E+02 -0.66685670796E+01  0.18797568841E+03  0.22633376599E+03  0.12499808458E+03 0.  0.
          5    1    3    3  502    0 -0.60706993931E+01 -0.64448538323E+02  0.12102467219E+03  0.13732999950E+03  0.47000000000E+01 0. -1.
         -5    1    3    3    0  502 -0.88666114651E+01  0.57779971243E+02  0.66951016222E+02  0.89003766487E+02  0.47000000000E+01 0. -1.
        -11    1    1    2    0    0 -0.18361575605E+02 -0.35260652805E+02  0.61572121673E+02  0.73291113120E+02  0.00000000000E+00 0. -1.
         11    1    1    2    0    0  0.33298886463E+02  0.41929219885E+02  0.92364182329E+02  0.10676149820E+03  0.00000000000E+00 0.  1.
<mgrwt>
<rscale>  0 0.11695630E+03</rscale>
<asrwt>0</asrwt>
<pdfrwt beam="1">  1        2 0.57561410E-01 0.12606393E+03</pdfrwt>
<pdfrwt beam="2">  1       -2 0.49595683E-02 0.12606393E+03</pdfrwt>
<totfact> 0.15918851E+04</totfact>
</mgrwt>
</event>
<event>
 7    1  0.5928109E-006  0.1674706E+03  0.7546771E-02  0.1188318E+00
         -2   -1    0    0    0  501 -0.00000000000E+00  0.00000000000E+00  0.45342986957E+02  0.45342986957E+02  0.00000000000E+00 0.  1.
          2   -1    0    0  501    0  0.00000000000E+00 -0.00000000000E+00 -0.52627744794E+03  0.52627744794E+03  0.00000000000E+00 0. -1.
         23    2    1    2    0    0 -0.10837552419E+03  0.26066732479E+02 -0.28142549407E+03  0.32748543953E+03  0.12498670173E+03 0.  0.
          5    1    3    3  502    0 -0.20055546647E+02 -0.28539950432E+02 -0.17581376396E+03  0.17930232380E+03  0.47000000000E+01 0. -1.
         -5    1    3    3    0  502 -0.88319977544E+02  0.54606682910E+02 -0.10561173011E+03  0.14818311573E+03  0.47000000000E+01 0. -1.
        -11    1    1    2    0    0  0.11034766787E+03 -0.13083998655E+01 -0.18487690105E+03  0.21530858844E+03  0.00000000000E+00 0. -1.
         11    1    1    2    0    0 -0.19721436774E+01 -0.24758332613E+02 -0.14632065856E+02  0.28826406916E+02  0.00000000000E+00 0.  1.
<mgrwt>
<rscale>  0 0.16033628E+03</rscale>
<asrwt>0</asrwt>
<pdfrwt beam="2">  1        2 0.80965760E-01 0.16747061E+03</pdfrwt>
<pdfrwt beam="1">  1       -2 0.69758442E-02 0.16747061E+03</pdfrwt>
<totfact> 0.66831930E+03</totfact>
</mgrwt>
</event>
<event>
 7    1  0.5928109E-006  0.1662665E+03  0.7546771E-02  0.1188604E+00
         -1   -1    0    0    0  501 -0.00000000000E+00  0.00000000000E+00  0.25596554242E+02  0.25596554242E+02  0.00000000000E+00 0.  1.
          1   -1    0    0  501    0  0.00000000000E+00 -0.00000000000E+00 -0.93714647479E+03  0.93714647479E+03  0.00000000000E+00 0. -1.
         23    2    1    2    0    0  0.71621115548E+02  0.83012056844E+02 -0.52037421740E+03  0.54629100520E+03  0.12499580173E+03 0.  0.
          5    1    3    3  502    0 -0.11247364406E+02 -0.20201808254E+02 -0.29034202457E+02  0.37412446794E+02  0.47000000000E+01 0. -1.
         -5    1    3    3    0  502  0.82868479953E+02  0.10321386510E+03 -0.49134001495E+03  0.50887855841E+03  0.47000000000E+01 0. -1.
        -11    1    1    2    0    0 -0.24508297790E+02 -0.77745529900E+02 -0.15056598304E+03  0.17121664443E+03  0.00000000000E+00 0.  1.
         11    1    1    2    0    0 -0.47112817758E+02 -0.52665269438E+01 -0.24060972010E+03  0.24523537940E+03  0.00000000000E+00 0. -1.
<mgrwt>
<rscale>  0 0.16008260E+03</rscale>
<asrwt>0</asrwt>
<pdfrwt beam="2">  1        1 0.14417637E+00 0.16626646E+03</pdfrwt>
<pdfrwt beam="1">  1       -1 0.39379316E-02 0.16626646E+03</pdfrwt>
<totfact> 0.44246193E+03</totfact>
</mgrwt>
</event>
<event>
 7    1  0.5928109E-006  0.1334789E+03  0.7546771E-02  0.1234474E+00
         -4   -1    0    0    0  501 -0.00000000000E+00  0.00000000000E+00  0.18245568036E+02  0.18245568036E+02  0.00000000000E+00 0.  1.
          4   -1    0    0  501    0  0.00000000000E+00 -0.00000000000E+00 -0.77878275842E+03  0.77878275842E+03  0.00000000000E+00 0. -1.
         23    2    1    2    0    0 -0.45269326759E+02  0.12332254921E+02 -0.46353226186E+03  0.48236788545E+03  0.12496088457E+03 0.  0.
          5    1    3    3  502    0 -0.42161227854E+02 -0.51634525138E+02 -0.28209527723E+03  0.28990261944E+03  0.47000000000E+01 0.  1.
         -5    1    3    3    0  502 -0.31080989058E+01  0.63966780060E+02 -0.18143698463E+03  0.19246526602E+03  0.47000000000E+01 0.  1.
        -11    1    1    2    0    0 -0.94874051312E+01  0.31688614073E+02 -0.11121798727E+03  0.11603283936E+03  0.00000000000E+00 0.  1.
         11    1    1    2    0    0  0.54756731891E+02 -0.44020868994E+02 -0.18578694125E+03  0.19862760164E+03  0.00000000000E+00 0. -1.
<mgrwt>
<rscale>  0 0.12538159E+03</rscale>
<asrwt>0</asrwt>
<pdfrwt beam="2">  1        4 0.11981276E+00 0.13347891E+03</pdfrwt>
<pdfrwt beam="1">  1       -4 0.28070099E-02 0.13347891E+03</pdfrwt>
<totfact> 0.55304718E+02</totfact>
</mgrwt>
</event>
<event>
 7    1  0.5928109E-006  0.1701921E+03  0.7546771E-02  0.1183488E+00
          2   -1    0    0  501    0  0.00000000000E+00  0.00000000000E+00  0.47771297505E+02  0.47771297505E+02  0.00000000000E+00 0. -1.
         -2   -1    0    0    0  501 -0.00000000000E+00 -0.00000000000E+00 -0.72265808862E+03  0.72265808862E+03  0.00000000000E+00 0.  1.
         23    2    1    2    0    0 -0.98201155382E+02 -0.60801637757E+02 -0.15731381239E+03  0.23176063468E+03  0.12500020059E+03 0.  0.
          5    1    3    3  502    0  0.10750806408E+02  0.22724695147E+02 -0.39589137470E+01  0.25879617578E+02  0.47000000000E+01 0.  1.
         -5    1    3    3    0  502 -0.10895196179E+03 -0.83526332903E+02 -0.15335489864E+03  0.20588101710E+03  0.47000000000E+01 0.  1.
        -11    1    1    2    0    0  0.24275805025E+02  0.53470148601E+02 -0.11316175780E+03  0.12749099940E+03  0.00000000000E+00 0. -1.
         11    1    1    2    0    0  0.73925350357E+02  0.73314891555E+01 -0.40441122093E+03  0.41117775204E+03  0.00000000000E+00 0.  1.
<mgrwt>
<rscale>  0 0.16470221E+03</rscale>
<asrwt>0</asrwt>
<pdfrwt beam="1">  1        2 0.73494301E-02 0.17019212E+03</pdfrwt>
<pdfrwt beam="2">  1       -2 0.11117817E+00 0.17019212E+03</pdfrwt>
<totfact> 0.62498267E+02</totfact>
</mgrwt>
</event>
<event>
 6    1  0.5928109E-006  0.1619526E+03  0.7546771E-02  0.1219600E+00
          2   -1    0    0  501    0  0.00000000000E+00  0.00000000000E+00  0.66168570142E+03  0.66168570142E+03  0.00000000000E+00 0. -1.
         -2   -1    0    0    0  501 -0.00000000000E+00 -0.00000000000E+00 -0.32374238299E+02  0.32374238299E+02  0.00000000000E+00 0.  1.
          5    1    1    2  502    0  0.24470197590E+02 -0.51657727642E+01  0.57031528246E+03  0.57088272630E+03  0.47000000000E+01 0. -1.
         -5    1    1    2    0  502 -0.15903072820E+02  0.21693570507E+02  0.62711314694E+01  0.28016706022E+02  0.47000000000E+01 0.  1.
        -11    1    1    2    0    0  0.46571322145E+01  0.28538691757E+02  0.73062587132E+01  0.29824942985E+02  0.00000000000E+00 0. -1.
         11    1    1    2    0    0 -0.13224256985E+02 -0.45066489500E+02  0.45418790478E+02  0.65335564413E+02  0.00000000000E+00 0.  1.
<mgrwt>
<rscale>  0 0.13544024E+03</rscale>
<asrwt>0</asrwt>
<pdfrwt beam="1">  1        2 0.10179779E+00 0.16195258E+03</pdfrwt>
<pdfrwt beam="2">  1       -2 0.49806526E-02 0.16195258E+03</pdfrwt>
<totfact> 0.85748554E+03</totfact>
</mgrwt>
</event>
<event>
 7    1  0.5928109E-006  0.1682794E+03  0.7546771E-02  0.1186487E+00
         -2   -1    0    0    0  501 -0.00000000000E+00  0.00000000000E+00  0.72616637612E+02  0.72616637612E+02  0.00000000000E+00 0.  1.
          2   -1    0    0  501    0  0.00000000000E+00 -0.00000000000E+00 -0.33895620313E+03  0.33895620313E+03  0.00000000000E+00 0. -1.
         23    2    1    2    0    0 -0.95915358725E+02 -0.59103692627E+02 -0.12640303929E+03  0.21046542811E+03  0.12499986227E+03 0.  0.
          5    1    3    3  502    0 -0.96196167567E+02 -0.15158985259E+02 -0.26210774485E+02  0.10095836859E+03  0.47000000000E+01 0.  1.
         -5    1    3    3    0  502  0.28080884165E+00 -0.43944707368E+02 -0.10019226480E+03  0.10950705952E+03  0.47000000000E+01 0.  1.
        -11    1    1    2    0    0 -0.11372729920E+02  0.29946700946E+02 -0.42879431720E+02  0.53523728832E+02  0.00000000000E+00 0. -1.
         11    1    1    2    0    0  0.10728808865E+03  0.29156991681E+02 -0.97057094507E+02  0.14758368380E+03  0.00000000000E+00 0.  1.
<mgrwt>
<rscale>  0 0.16197302E+03</rscale>
<asrwt>0</asrwt>
<pdfrwt beam="2">  1        2 0.52147108E-01 0.16827943E+03</pdfrwt>
<pdfrwt beam="1">  1       -2 0.11171790E-01 0.16827943E+03</pdfrwt>
<totfact> 0.51592827E+03</totfact>
</mgrwt>
</event>
<event>
 7    1  0.5928109E-006  0.1313761E+03  0.7546771E-02  0.1238132E+00
         -2   -1    0    0    0  501 -0.00000000000E+00  0.00000000000E+00  0.13013989916E+02  0.13013989916E+02  0.00000000000E+00 0.  1.
          2   -1    0    0  501    0  0.00000000000E+00 -0.00000000000E+00 -0.11910987959E+04  0.11910987959E+04  0.00000000000E+00 0. -1.
         23    2    1    2    0    0  0.35616540578E+02  0.19175274679E+02 -0.86968509196E+03  0.87955207039E+03  0.12499382474E+03 0.  0.
          5    1    3    3  502    0  0.79928428718E+02  0.25201667383E+02 -0.64248404161E+03  0.64794406508E+03  0.47000000000E+01 0. -1.
         -5    1    3    3    0  502 -0.44311888140E+02 -0.60263927035E+01 -0.22720105035E+03  0.23160800530E+03  0.47000000000E+01 0. -1.
        -11    1    1    2    0    0  0.47926446247E+00  0.24975108318E+02 -0.24496790435E+02  0.34986832831E+02  0.00000000000E+00 0.  1.
         11    1    1    2    0    0 -0.36095805041E+02 -0.44150382998E+02 -0.28390292361E+03  0.28957388262E+03  0.00000000000E+00 0. -1.
<mgrwt>
<rscale>  0 0.12306029E+03</rscale>
<asrwt>0</asrwt>
<pdfrwt beam="2">  1        2 0.18324597E+00 0.13137612E+03</pdfrwt>
<pdfrwt beam="1">  1       -2 0.20021523E-02 0.13137612E+03</pdfrwt>
<totfact> 0.14989272E+04</totfact>
</mgrwt>
</event>
<event>
 7    1  0.5928109E-006  0.1380113E+03  0.7546771E-02  0.1226455E+00
          1   -1    0    0  501    0  0.00000000000E+00  0.00000000000E+00  0.95002356724E+02  0.95002356724E+02  0.00000000000E+00 0. -1.
         -1   -1    0    0    0  501 -0.00000000000E+00 -0.00000000000E+00 -0.16480849546E+03  0.16480849546E+03  0.00000000000E+00 0.  1.
         23    2    1    2    0    0  0.36562759884E+02  0.45603533229E+02 -0.25429230378E+02  0.14033445609E+03  0.12502238262E+03 0.  0.
          5    1    3    3  502    0  0.62443929153E+02 -0.14506430733E+02  0.11111453597E+02  0.65232164013E+02  0.47000000000E+01 0. -1.
         -5    1    3    3    0  502 -0.25881169270E+02  0.60109963962E+02 -0.36540683975E+02  0.75102292080E+02  0.47000000000E+01 0. -1.
        -11    1    1    2    0    0 -0.42858580312E+02 -0.42931237407E+01  0.16085704044E+02  0.45978676497E+02  0.00000000000E+00 0. -1.
         11    1    1    2    0    0  0.62958204281E+01 -0.41310409488E+02 -0.60462612404E+02  0.73497719595E+02  0.00000000000E+00 0.  1.
<mgrwt>
<rscale>  0 0.13067649E+03</rscale>
<asrwt>0</asrwt>
<pdfrwt beam="1">  1        1 0.14615747E-01 0.13801128E+03</pdfrwt>
<pdfrwt beam="2">  1       -1 0.25355153E-01 0.13801128E+03</pdfrwt>
<totfact> 0.50093413E+03</totfact>
</mgrwt>
</event>
<event>
 7    1  0.5928109E-006  0.1581281E+03  0.7546771E-02  0.1198132E+00
          1   -1    0    0  501    0  0.00000000000E+00  0.00000000000E+00  0.84930000838E+03  0.84930000838E+03  0.00000000000E+00 0. -1.
         -1   -1    0    0    0  501 -0.00000000000E+00 -0.00000000000E+00 -0.26298907613E+02  0.26298907613E+02  0.00000000000E+00 0.  1.
         23    2    1    2    0    0  0.62124238360E+02  0.74294260608E+02  0.53044048823E+03  0.55350846520E+03  0.12500180535E+03 0.  0.
          5    1    3    3  502    0  0.45788266093E+02  0.10601867815E+03  0.46132539164E+03  0.47558357037E+03  0.47000000000E+01 0. -1.
         -5    1    3    3    0  502  0.16335972266E+02 -0.31724417542E+02  0.69115096591E+02  0.77924894835E+02  0.47000000000E+01 0. -1.
        -11    1    1    2    0    0 -0.19206955479E+02 -0.55340875439E+02  0.56408522270E+02  0.81323065718E+02  0.00000000000E+00 0.  1.
         11    1    1    2    0    0 -0.42917282880E+02 -0.18953385169E+02  0.23615209027E+03  0.24076738508E+03  0.00000000000E+00 0. -1.
<mgrwt>
<rscale>  0 0.15192110E+03</rscale>
<asrwt>0</asrwt>
<pdfrwt beam="1">  1        1 0.13066152E+00 0.15812814E+03</pdfrwt>
<pdfrwt beam="2">  1       -1 0.40459864E-02 0.15812814E+03</pdfrwt>
<totfact> 0.49658643E+03</totfact>
</mgrwt>
</event>
<event>
 7    1  0.5928109E-006  0.1262461E+03  0.7546771E-02  0.1247699E+00
         -3   -1    0    0    0  501 -0.00000000000E+00  0.00000000000E+00  0.48049706309E+03  0.48049706309E+03  0.00000000000E+00 0.  1.
          3   -1    0    0  501    0  0.00000000000E+00 -0.00000000000E+00 -0.26288380988E+02  0.26288380988E+02  0.00000000000E+00 0. -1.
         23    2    1    2    0    0  0.15319994793E+02  0.88618242343E+01  0.20863392300E+03  0.24385692903E+03  0.12499941535E+03 0.  0.
          5    1    3    3  502    0 -0.19624865120E+02  0.59603233992E+02  0.12417013561E+03  0.13920486130E+03  0.47000000000E+01 0.  1.
         -5    1    3    3    0  502  0.34944859913E+02 -0.50741409758E+02  0.84463787395E+02  0.10465206773E+03  0.47000000000E+01 0.  1.
        -11    1    1    2    0    0 -0.27873313538E+02  0.23989581946E+02  0.20891675634E+03  0.21212881165E+03  0.00000000000E+00 0.  1.
         11    1    1    2    0    0  0.12553318745E+02 -0.32851406180E+02  0.36658002752E+02  0.50799703397E+02  0.00000000000E+00 0. -1.
<mgrwt>
<rscale>  0 0.11725314E+03</rscale>
<asrwt>0</asrwt>
<pdfrwt beam="2">  1        3 0.40443667E-02 0.12624614E+03</pdfrwt>
<pdfrwt beam="1">  1       -3 0.73922618E-01 0.12624614E+03</pdfrwt>
<totfact> 0.12849120E+03</totfact>
</mgrwt>
</event>
<event>
 7    1  0.5928109E-006  0.1433037E+03  0.7546771E-02  0.1219139E+00
         -1   -1    0    0    0  501 -0.00000000000E+00  0.00000000000E+00  0.17528233747E+03  0.17528233747E+03  0.00000000000E+00 0.  1.
          1   -1    0    0  501    0  0.00000000000E+00 -0.00000000000E+00 -0.13407746540E+03  0.13407746540E+03  0.00000000000E+00 0. -1.
         23    2    1    2    0    0 -0.67460387003E+02 -0.18961494982E+02 -0.60447161478E+02  0.15553075878E+03  0.12500206194E+03 0.  0.
          5    1    3    3  502    0 -0.37960901878E+02  0.46370865343E+02 -0.58182572689E+02  0.83657569823E+02  0.47000000000E+01 0. -1.
         -5    1    3    3    0  502 -0.29499485125E+02 -0.65332360324E+02 -0.22645887893E+01  0.71873188955E+02  0.47000000000E+01 0. -1.
        -11    1    1    2    0    0  0.33439536693E+02 -0.29481634506E+01  0.10779400414E+03  0.11290013999E+03  0.00000000000E+00 0.  1.
         11    1    1    2    0    0  0.34020850310E+02  0.21909658432E+02 -0.61419705937E+01  0.40928904105E+02  0.00000000000E+00 0. -1.
<mgrwt>
<rscale>  0 0.13576813E+03</rscale>
<asrwt>0</asrwt>
<pdfrwt beam="2">  1        1 0.20627302E-01 0.14330372E+03</pdfrwt>
<pdfrwt beam="1">  1       -1 0.26966514E-01 0.14330372E+03</pdfrwt>
<totfact> 0.29131531E+03</totfact>
</mgrwt>
</event>
<event>
 7    1  0.5928109E-006  0.1292212E+03  0.7546771E-02  0.1244255E+00
         -2   -1    0    0    0  501 -0.00000000000E+00  0.00000000000E+00  0.86857154503E+02  0.86857154503E+02  0.00000000000E+00 0.  1.
          2   -1    0    0  501    0  0.00000000000E+00 -0.00000000000E+00 -0.16880999620E+03  0.16880999620E+03  0.00000000000E+00 0. -1.
         23    2    1    2    0    0 -0.19734904997E+02  0.26124674680E+02 -0.95681739625E+02  0.16078904106E+03  0.12500462121E+03 0.  0.
          5    1    3    3  502    0  0.33523235345E+02  0.13233042560E+02 -0.99230416926E+02  0.10567727460E+03  0.47000000000E+01 0. -1.
         -5    1    3    3    0  502 -0.53258140343E+02  0.12891632120E+02  0.35486773007E+01  0.55111766458E+02  0.47000000000E+01 0. -1.
        -11    1    1    2    0    0 -0.32354512458E+02  0.54700757175E+01  0.23103241653E+01  0.32894890218E+02  0.00000000000E+00 0. -1.
         11    1    1    2    0    0  0.52089417455E+02 -0.31594750398E+02  0.11418573765E+02  0.61983219425E+02  0.00000000000E+00 0.  1.
<mgrwt>
<rscale>  0 0.11930073E+03</rscale>
<asrwt>0</asrwt>
<pdfrwt beam="2">  1        2 0.25970768E-01 0.12922121E+03</pdfrwt>
<pdfrwt beam="1">  1       -2 0.13362639E-01 0.12922121E+03</pdfrwt>
<totfact> 0.80517895E+03</totfact>
</mgrwt>
</event>
<event>
 7    1  0.5928109E-006  0.1474687E+03  0.7546771E-02  0.1215833E+00
         -1   -1    0    0    0  501 -0.00000000000E+00  0.00000000000E+00  0.28420609803E+02  0.28420609803E+02  0.00000000000E+00 0.  1.
          1   -1    0    0  501    0  0.00000000000E+00 -0.00000000000E+00 -0.76343427918E+03  0.76343427918E+03  0.00000000000E+00 0. -1.
         23    2    1    2    0    0 -0.58867952855E+02 -0.51525343672E+02 -0.58718472905E+03  0.60541962568E+03  0.12500688065E+03 0.  0.
          5    1    3    3  502    0 -0.75743474936E+02  0.15963233157E+02 -0.29366018421E+03  0.30372733265E+03  0.47000000000E+01 0. -1.
         -5    1    3    3    0  502  0.16875522082E+02 -0.67488576828E+02 -0.29352454484E+03  0.30169229302E+03  0.47000000000E+01 0. -1.
        -11    1    1    2    0    0  0.87052176414E+01 -0.13397407917E+02  0.15048503857E+01  0.16047925965E+02  0.00000000000E+00 0.  1.
         11    1    1    2    0    0  0.50162735213E+02  0.64922751589E+02 -0.14933379071E+03  0.17038733734E+03  0.00000000000E+00 0. -1.
<mgrwt>
<rscale>  0 0.13815558E+03</rscale>
<asrwt>0</asrwt>
<pdfrwt beam="2">  1        1 0.11745141E+00 0.14746870E+03</pdfrwt>
<pdfrwt beam="1">  1       -1 0.43724022E-02 0.14746870E+03</pdfrwt>
<totfact> 0.51914991E+03</totfact>
</mgrwt>
</event>
<event>
 7    1  0.5928109E-006  0.2473892E+03  0.7546771E-02  0.1117524E+00
         -1   -1    0    0    0  501 -0.00000000000E+00  0.00000000000E+00  0.77876577297E+02  0.77876577297E+02  0.00000000000E+00 0.  1.
          1   -1    0    0  501    0  0.00000000000E+00 -0.00000000000E+00 -0.75031698921E+03  0.75031698921E+03  0.00000000000E+00 0. -1.
         23    2    1    2    0    0  0.60008174930E+02 -0.20488083227E+03 -0.29299726528E+03  0.38346942224E+03  0.12499705534E+03 0.  0.
          5    1    3    3  502    0 -0.18910484110E+02 -0.31270239188E+02 -0.12145271094E+03  0.12691841971E+03  0.47000000000E+01 0. -1.
         -5    1    3    3    0  502  0.78918659040E+02 -0.17361059308E+03 -0.17154455434E+03  0.25655100252E+03  0.47000000000E+01 0. -1.
        -11    1    1    2    0    0 -0.65881712591E+02  0.17897771259E+03 -0.37048688525E+03  0.41669407700E+03  0.00000000000E+00 0. -1.
         11    1    1    2    0    0  0.58735376609E+01  0.25903119671E+02 -0.89562613830E+01  0.28030067272E+02  0.00000000000E+00 0.  1.
<mgrwt>
<rscale>  0 0.24343655E+03</rscale>
<asrwt>0</asrwt>
<pdfrwt beam="2">  1        1 0.11543338E+00 0.24738917E+03</pdfrwt>
<pdfrwt beam="1">  1       -1 0.11981012E-01 0.24738917E+03</pdfrwt>
<totfact> 0.11684947E+03</totfact>
</mgrwt>
</event>
<event>
 7    1  0.5928109E-006  0.1659710E+03  0.7546771E-02  0.1188867E+00
         -1   -1    0    0    0  501 -0.00000000000E+00  0.00000000000E+00  0.90156152280E+02  0.90156152280E+02  0.00000000000E+00 0.  1.
          1   -1    0    0  501    0  0.00000000000E+00 -0.00000000000E+00 -0.34446548787E+03  0.34446548787E+03  0.00000000000E+00 0. -1.
         23    2    1    2    0    0  0.59591613227E+02 -0.91495929008E+02 -0.23902863428E+03  0.29100009181E+03  0.12499480004E+03 0.  0.
          5    1    3    3  502    0  0.95261973841E+02 -0.86404346668E+02 -0.17281158142E+03  0.21546806598E+03  0.47000000000E+01 0. -1.
         -5    1    3    3    0  502 -0.35670360614E+02 -0.50915823395E+01 -0.66217052855E+02  0.75532025829E+02  0.47000000000E+01 0. -1.
        -11    1    1    2    0    0 -0.28369171951E+02  0.30983734121E+02  0.38398990511E+02  0.56914709606E+02  0.00000000000E+00 0.  1.
         11    1    1    2    0    0 -0.31222441277E+02  0.60512194886E+02 -0.53679691824E+02  0.86706838736E+02  0.00000000000E+00 0. -1.
<mgrwt>
<rscale>  0 0.15984939E+03</rscale>
<asrwt>0</asrwt>
<pdfrwt beam="2">  1        1 0.52994691E-01 0.16597098E+03</pdfrwt>
<pdfrwt beam="1">  1       -1 0.13870177E-01 0.16597098E+03</pdfrwt>
<totfact> 0.26238512E+03</totfact>
</mgrwt>
</event>
<event>
 6    1  0.5928109E-006  0.1349895E+03  0.7546771E-02  0.1238199E+00
         -1   -1    0    0    0  501 -0.00000000000E+00  0.00000000000E+00  0.13661929400E+03  0.13661929400E+03  0.00000000000E+00 0.  1.
          1   -1    0    0  501    0  0.00000000000E+00 -0.00000000000E+00 -0.20372937757E+04  0.20372937757E+04  0.00000000000E+00 0. -1.
          5    1    1    2  502    0 -0.55734733354E+02  0.21802498948E+02 -0.17433222801E+04  0.17443555749E+04  0.47000000000E+01 0. -1.
         -5    1    1    2    0  502  0.40378707318E+02 -0.16571940162E+02 -0.27558831193E+03  0.27906285470E+03  0.47000000000E+01 0.  1.
        -11    1    1    2    0    0  0.52604717173E+02  0.85470271932E+01  0.71130213300E+02  0.88880904511E+02  0.00000000000E+00 0.  1.
         11    1    1    2    0    0 -0.37248691137E+02 -0.13777585979E+02  0.47105897069E+02  0.61613735526E+02  0.00000000000E+00 0. -1.
<mgrwt>
<rscale>  0 0.12301844E+03</rscale>
<asrwt>0</asrwt>
<pdfrwt beam="2">  1        1 0.31342981E+00 0.13498949E+03</pdfrwt>
<pdfrwt beam="1">  1       -1 0.21018353E-01 0.13498949E+03</pdfrwt>
<totfact> 0.63615479E+01</totfact>
</mgrwt>
</event>
<event>
 7    1  0.5928109E-006  0.1679291E+03  0.7546771E-02  0.1186975E+00
          1   -1    0    0  501    0  0.00000000000E+00  0.00000000000E+00  0.52762497816E+03  0.52762497816E+03  0.00000000000E+00 0. -1.
         -1   -1    0    0    0  501 -0.00000000000E+00 -0.00000000000E+00 -0.46680855664E+02  0.46680855664E+02  0.00000000000E+00 0.  1.
         23    2    1    2    0    0 -0.58494837030E+02  0.95697540377E+02  0.22520367746E+03  0.28092146013E+03  0.12498201962E+03 0.  0.
          5    1    3    3  502    0 -0.50015425681E+02 -0.14580071286E+02  0.10622934423E+03  0.11840981742E+03  0.47000000000E+01 0. -1.
         -5    1    3    3    0  502 -0.84794113496E+01  0.11027761166E+03  0.11897433323E+03  0.16251164271E+03  0.47000000000E+01 0. -1.
        -11    1    1    2    0    0  0.42041878015E+02 -0.86634778921E+02  0.25710892144E+03  0.27455072739E+03  0.00000000000E+00 0. -1.
         11    1    1    2    0    0  0.16452959015E+02 -0.90627614556E+01 -0.13684764004E+01  0.18833646307E+02  0.00000000000E+00 0.  1.
<mgrwt>
<rscale>  0 0.16153445E+03</rscale>
<asrwt>0</asrwt>
<pdfrwt beam="1">  1        1 0.81173070E-01 0.16792906E+03</pdfrwt>
<pdfrwt beam="2">  1       -1 0.71816704E-02 0.16792906E+03</pdfrwt>
<totfact> 0.41714292E+03</totfact>
</mgrwt>
</event>
<event>
 7    1  0.5928109E-006  0.1430767E+03  0.7546771E-02  0.1219542E+00
          2   -1    0    0  501    0  0.00000000000E+00  0.00000000000E+00  0.58926699015E+03  0.58926699015E+03  0.00000000000E+00 0. -1.
         -2   -1    0    0    0  501 -0.00000000000E+00 -0.00000000000E+00 -0.29796630224E+02  0.29796630224E+02  0.00000000000E+00 0.  1.
         23    2    1    2    0    0 -0.56787996636E+02  0.40275570431E+02  0.23874732615E+03  0.27833654553E+03  0.12499579471E+03 0.  0.
          5    1    3    3  502    0 -0.74058505195E+02  0.27182206287E+02  0.62653480382E+02  0.10085178796E+03  0.47000000000E+01 0. -1.
         -5    1    3    3    0  502  0.17270508558E+02  0.13093364144E+02  0.17609384577E+03  0.17748475757E+03  0.47000000000E+01 0. -1.
        -11    1    1    2    0    0  0.18181636770E+02 -0.62811825761E+02  0.23652952757E+03  0.24540194535E+03  0.00000000000E+00 0.  1.
         11    1    1    2    0    0  0.38606359867E+02  0.22536255330E+02  0.84193506210E+02  0.95325129501E+02  0.00000000000E+00 0. -1.
<mgrwt>
<rscale>  0 0.13548106E+03</rscale>
<asrwt>0</asrwt>
<pdfrwt beam="1">  1        2 0.90656451E-01 0.14307672E+03</pdfrwt>
<pdfrwt beam="2">  1       -2 0.45840974E-02 0.14307672E+03</pdfrwt>
<totfact> 0.11019338E+04</totfact>
</mgrwt>
</event>
<event>
 7    1  0.5928109E-006  0.1252291E+03  0.7546771E-02  0.1251898E+00
         -3   -1    0    0    0  501 -0.00000000000E+00  0.00000000000E+00  0.91826745380E+02  0.91826745380E+02  0.00000000000E+00 0.  1.
          3   -1    0    0  501    0  0.00000000000E+00 -0.00000000000E+00 -0.15263398336E+03  0.15263398336E+03  0.00000000000E+00 0. -1.
         23    2    1    2    0    0  0.24228574593E+01  0.71673075447E+01 -0.86629335983E+02  0.15227271040E+03  0.12500038377E+03 0.  0.
          5    1    3    3  502    0 -0.24091818448E+02 -0.25067137962E+02 -0.10175243130E+03  0.10763096393E+03  0.47000000000E+01 0. -1.
         -5    1    3    3    0  502  0.26514675908E+02  0.32234445507E+02  0.15123095314E+02  0.44641746466E+02  0.47000000000E+01 0. -1.
        -11    1    1    2    0    0 -0.13541685945E+02  0.66821932280E+01  0.55546093692E+02  0.57562118524E+02  0.00000000000E+00 0.  1.
         11    1    1    2    0    0  0.11118828485E+02 -0.13849500773E+02 -0.29723995685E+02  0.34625899816E+02  0.00000000000E+00 0. -1.
<mgrwt>
<rscale>  0 0.11481856E+03</rscale>
<asrwt>0</asrwt>
<pdfrwt beam="2">  1        3 0.23482151E-01 0.12522914E+03</pdfrwt>
<pdfrwt beam="1">  1       -3 0.14127192E-01 0.12522914E+03</pdfrwt>
<totfact> 0.15692227E+03</totfact>
</mgrwt>
</event>
<event>
 7    1  0.5928109E-006  0.1314909E+03  0.7546771E-02  0.1233873E+00
          1   -1    0    0  501    0  0.00000000000E+00  0.00000000000E+00  0.17406013778E+03  0.17406013778E+03  0.00000000000E+00 0. -1.
         -1   -1    0    0    0  501 -0.00000000000E+00 -0.00000000000E+00 -0.84591818449E+02  0.84591818449E+02  0.00000000000E+00 0.  1.
         23    2    1    2    0    0 -0.20978157204E+02  0.35004944867E+02  0.61146614790E+02  0.14501296685E+03  0.12499769122E+03 0.  0.
          5    1    3    3  502    0 -0.45033156404E+02  0.65334606355E+02  0.91448427617E+01  0.80014461896E+02  0.47000000000E+01 0. -1.
         -5    1    3    3    0  502  0.24054999200E+02 -0.30329661488E+02  0.52001772028E+02  0.64998504956E+02  0.47000000000E+01 0. -1.
        -11    1    1    2    0    0 -0.38279558817E+02 -0.70108464124E+01 -0.64522216279E+01  0.39447531666E+02  0.00000000000E+00 0.  1.
         11    1    1    2    0    0  0.59257716020E+02 -0.27994098455E+02  0.34773926174E+02  0.74191457714E+02  0.00000000000E+00 0. -1.
<mgrwt>
<rscale>  0 0.12576864E+03</rscale>
<asrwt>0</asrwt>
<pdfrwt beam="1">  1        1 0.26778483E-01 0.13149088E+03</pdfrwt>
<pdfrwt beam="2">  1       -1 0.13014126E-01 0.13149088E+03</pdfrwt>
<totfact> 0.66893998E+03</totfact>
</mgrwt>
</event>
<event>
 7    1  0.5928109E-006  0.1468063E+03  0.7546771E-02  0.1214831E+00
         -2   -1    0    0    0  501 -0.00000000000E+00  0.00000000000E+00  0.22108356276E+03  0.22108356276E+03  0.00000000000E+00 0. -1.
          2   -1    0    0  501    0  0.00000000000E+00 -0.00000000000E+00 -0.10310510391E+03  0.10310510391E+03  0.00000000000E+00 0.  1.
         23    2    1    2    0    0 -0.38589910005E+02 -0.66625240477E+02 -0.13927333555E+02  0.14746544785E+03  0.12499593540E+03 0.  0.
          5    1    3    3  502    0 -0.29982950973E+02 -0.79912691007E+02  0.37578444491E+02  0.93376897696E+02  0.47000000000E+01 0. -1.
         -5    1    3    3    0  502 -0.86069590321E+01  0.13287450530E+02 -0.51505778046E+02  0.54088550151E+02  0.47000000000E+01 0. -1.
        -11    1    1    2    0    0  0.23941321770E+02 -0.10807201870E+02  0.75145625175E+02  0.79604318245E+02  0.00000000000E+00 0. -1.
         11    1    1    2    0    0  0.14648588235E+02  0.77432442347E+02  0.56760167226E+02  0.97118900574E+02  0.00000000000E+00 0.  1.
<mgrwt>
<rscale>  0 0.13888936E+03</rscale>
<asrwt>0</asrwt>
<pdfrwt beam="2">  1        2 0.15862324E-01 0.14680629E+03</pdfrwt>
<pdfrwt beam="1">  1       -2 0.34012856E-01 0.14680629E+03</pdfrwt>
<totfact> 0.28580565E+03</totfact>
</mgrwt>
</event>
<event>
 7    1  0.5928109E-006  0.1856648E+03  0.7546771E-02  0.1165370E+00
         -2   -1    0    0    0  501 -0.00000000000E+00  0.00000000000E+00  0.27130321850E+03  0.27130321850E+03  0.00000000000E+00 0.  1.
          2   -1    0    0  501    0  0.00000000000E+00 -0.00000000000E+00 -0.13896366291E+03  0.13896366291E+03  0.00000000000E+00 0. -1.
         23    2    1    2    0    0  0.84701169898E+02 -0.10803140274E+03 -0.99154834960E+01  0.18592940875E+03  0.12500542414E+03 0.  0.
          5    1    3    3  502    0  0.85237583272E+02 -0.55184682200E+02  0.43566628194E+02  0.11059356149E+03  0.47000000000E+01 0. -1.
         -5    1    3    3    0  502 -0.53641337375E+00 -0.52846720536E+02 -0.53482111690E+02  0.75335847254E+02  0.47000000000E+01 0. -1.
        -11    1    1    2    0    0 -0.39430659900E+02 -0.11748467554E+02  0.57787492243E+02  0.70937984816E+02  0.00000000000E+00 0.  1.
         11    1    1    2    0    0 -0.45270509998E+02  0.11977987029E+03  0.84467546839E+02  0.15339948784E+03  0.00000000000E+00 0. -1.
<mgrwt>
<rscale>  0 0.18253723E+03</rscale>
<asrwt>0</asrwt>
<pdfrwt beam="2">  1        2 0.21379025E-01 0.18566483E+03</pdfrwt>
<pdfrwt beam="1">  1       -2 0.41738957E-01 0.18566483E+03</pdfrwt>
<totfact> 0.13944039E+03</totfact>
</mgrwt>
</event>
<event>
 7    1  0.5928109E-006  0.2305292E+03  0.7546771E-02  0.1129195E+00
         -1   -1    0    0    0  501 -0.00000000000E+00  0.00000000000E+00  0.94208260814E+02  0.94208260814E+02  0.00000000000E+00 0.  1.
          1   -1    0    0  501    0  0.00000000000E+00 -0.00000000000E+00 -0.53863094708E+03  0.53863094708E+03  0.00000000000E+00 0. -1.
         23    2    1    2    0    0 -0.17476857806E+03  0.83499662465E+02 -0.27939712161E+03  0.36222430288E+03  0.12500977771E+03 0.  0.
          5    1    3    3  502    0 -0.15582170509E+02  0.65524260966E+02 -0.58642352925E+02  0.89427335695E+02  0.47000000000E+01 0.  1.
         -5    1    3    3    0  502 -0.15918640755E+03  0.17975401499E+02 -0.22075476868E+03  0.27279696718E+03  0.47000000000E+01 0.  1.
        -11    1    1    2    0    0  0.41468546367E+02  0.19434984841E+02 -0.29937184681E+02  0.54713745989E+02  0.00000000000E+00 0.  1.
         11    1    1    2    0    0  0.13330003169E+03 -0.10293464731E+03 -0.13508837998E+03  0.21590115903E+03  0.00000000000E+00 0. -1.
<mgrwt>
<rscale>  0 0.22640600E+03</rscale>
<asrwt>0</asrwt>
<pdfrwt beam="2">  1        1 0.82866299E-01 0.23052916E+03</pdfrwt>
<pdfrwt beam="1">  1       -1 0.14493579E-01 0.23052916E+03</pdfrwt>
<totfact> 0.13843388E+03</totfact>
</mgrwt>
</event>
<event>
 7    1  0.5928109E-006  0.1754005E+03  0.7546771E-02  0.1178930E+00
          1   -1    0    0  501    0  0.00000000000E+00  0.00000000000E+00  0.50432317136E+03  0.50432317136E+03  0.00000000000E+00 0. -1.
         -1   -1    0    0    0  501 -0.00000000000E+00 -0.00000000000E+00 -0.58316481771E+02  0.58316481771E+02  0.00000000000E+00 0.  1.
         23    2    1    2    0    0  0.12070934431E+03  0.24019056214E+02  0.32417098292E+03  0.36858130440E+03  0.12497076027E+03 0.  0.
          5    1    3    3  502    0  0.47178657956E+01 -0.25730456955E+02  0.15609604046E+03  0.15834259857E+03  0.47000000000E+01 0.  1.
         -5    1    3    3    0  502  0.11599147852E+03  0.49749513169E+02  0.16807494246E+03  0.21023870584E+03  0.47000000000E+01 0.  1.
        -11    1    1    2    0    0 -0.12748472465E+02 -0.36638617396E+02  0.14834701251E+02  0.41532880903E+02  0.00000000000E+00 0.  1.
         11    1    1    2    0    0 -0.10796087185E+03  0.12619561182E+02  0.10700100541E+03  0.15252546782E+03  0.00000000000E+00 0. -1.
<mgrwt>
<rscale>  0 0.16896629E+03</rscale>
<asrwt>0</asrwt>
<pdfrwt beam="1">  1        1 0.77588177E-01 0.17540055E+03</pdfrwt>
<pdfrwt beam="2">  1       -1 0.89717668E-02 0.17540055E+03</pdfrwt>
<totfact> 0.31642594E+03</totfact>
</mgrwt>
</event>
<event>
 7    1  0.5928109E-006  0.1496654E+03  0.7546771E-02  0.1210135E+00
          2   -1    0    0  501    0  0.00000000000E+00  0.00000000000E+00  0.20763873456E+03  0.20763873456E+03  0.00000000000E+00 0. -1.
         -2   -1    0    0    0  501 -0.00000000000E+00 -0.00000000000E+00 -0.10203681317E+03  0.10203681317E+03  0.00000000000E+00 0.  1.
         23    2    1    2    0    0 -0.13702944684E+02  0.81170732257E+02  0.28853616060E+01  0.14969324721E+03  0.12499313773E+03 0.  0.
          5    1    3    3  502    0  0.29297251672E+02 -0.16088226456E+02 -0.22114834056E+02  0.40352396105E+02  0.47000000000E+01 0. -1.
         -5    1    3    3    0  502 -0.43000196356E+02  0.97258958713E+02  0.25000195662E+02  0.10934085110E+03  0.47000000000E+01 0. -1.
        -11    1    1    2    0    0 -0.37772298473E+02 -0.49025254184E+02  0.54671649955E+02  0.82578516508E+02  0.00000000000E+00 0. -1.
         11    1    1    2    0    0  0.51475243158E+02 -0.32145478073E+02  0.48044909833E+02  0.77403784013E+02  0.00000000000E+00 0.  1.
<mgrwt>
<rscale>  0 0.14240009E+03</rscale>
<asrwt>0</asrwt>
<pdfrwt beam="1">  1        2 0.31944420E-01 0.14966544E+03</pdfrwt>
<pdfrwt beam="2">  1       -2 0.15697971E-01 0.14966544E+03</pdfrwt>
<totfact> 0.49928337E+03</totfact>
</mgrwt>
</event>
<event>
 7    1  0.5928109E-006  0.1739955E+03  0.7546771E-02  0.1179986E+00
          1   -1    0    0  501    0  0.00000000000E+00  0.00000000000E+00  0.20705873628E+03  0.20705873628E+03  0.00000000000E+00 0. -1.
         -1   -1    0    0    0  501 -0.00000000000E+00 -0.00000000000E+00 -0.13873129374E+03  0.13873129374E+03  0.00000000000E+00 0.  1.
         23    2    1    2    0    0  0.20965643432E+02 -0.11917897775E+03  0.85225052677E+02  0.19374659752E+03  0.12502498751E+03 0.  0.
          5    1    3    3  502    0 -0.27517122632E+02 -0.18686832138E+02  0.74296447300E+02  0.81537977745E+02  0.47000000000E+01 0. -1.
         -5    1    3    3    0  502  0.48482766064E+02 -0.10049214562E+03  0.10928605377E+02  0.11220861977E+03  0.47000000000E+01 0. -1.
        -11    1    1    2    0    0  0.44661013301E+01  0.31432037291E+02  0.34772750895E+02  0.47085700952E+02  0.00000000000E+00 0. -1.
         11    1    1    2    0    0 -0.25431744762E+02  0.87746940464E+02 -0.51670361031E+02  0.10495773155E+03  0.00000000000E+00 0.  1.
<mgrwt>
<rscale>  0 0.16796575E+03</rscale>
<asrwt>0</asrwt>
<pdfrwt beam="1">  1        1 0.31855190E-01 0.17399550E+03</pdfrwt>
<pdfrwt beam="2">  1       -1 0.21343276E-01 0.17399550E+03</pdfrwt>
<totfact> 0.24945683E+03</totfact>
</mgrwt>
</event>
<event>
 7    1  0.5928109E-006  0.1572408E+03  0.7546771E-02  0.1197362E+00
          3   -1    0    0  501    0  0.00000000000E+00  0.00000000000E+00  0.43910520537E+03  0.43910520537E+03  0.00000000000E+00 0. -1.
         -3   -1    0    0    0  501 -0.00000000000E+00 -0.00000000000E+00 -0.51744731487E+02  0.51744731487E+02  0.00000000000E+00 0.  1.
         23    2    1    2    0    0 -0.36024733724E+02  0.95853250586E+02  0.24895976872E+03  0.29445819130E+03  0.11932741888E+03 0.  0.
          5    1    3    3  502    0 -0.34595887820E+02  0.11877095476E+03  0.23865926096E+03  0.26885637056E+03  0.47000000000E+01 0. -1.
         -5    1    3    3    0  502 -0.14288459037E+01 -0.22917704172E+02  0.10300507753E+02  0.25601820738E+02  0.47000000000E+01 0.  1.
        -11    1    1    2    0    0  0.61355865125E+02 -0.87856743982E+02  0.85107404856E+02  0.13684524109E+03  0.00000000000E+00 0.  1.
         11    1    1    2    0    0 -0.25331131401E+02 -0.79965066048E+01  0.53293300310E+02  0.59546504464E+02  0.00000000000E+00 0. -1.
<mgrwt>
<rscale>  0 0.15256009E+03</rscale>
<asrwt>0</asrwt>
<pdfrwt beam="1">  1        3 0.67554645E-01 0.15724077E+03</pdfrwt>
<pdfrwt beam="2">  1       -3 0.79607282E-02 0.15724077E+03</pdfrwt>
<totfact> 0.54681455E+02</totfact>
</mgrwt>
</event>
<event>
 7    1  0.5928109E-006  0.1849437E+03  0.7546771E-02  0.1169067E+00
          1   -1    0    0  501    0  0.00000000000E+00  0.00000000000E+00  0.14717083287E+03  0.14717083287E+03  0.00000000000E+00 0. -1.
         -1   -1    0    0    0  501 -0.00000000000E+00 -0.00000000000E+00 -0.21403292409E+03  0.21403292409E+03  0.00000000000E+00 0.  1.
         23    2    1    2    0    0  0.13574564839E+03 -0.12343131134E+02  0.42871355124E+01  0.18499339755E+03  0.12499977465E+03 0.  0.
          5    1    3    3  502    0  0.39809482113E+02 -0.91759055123E+01  0.60878087629E+02  0.73465799264E+02  0.47000000000E+01 0.  1.
         -5    1    3    3    0  502  0.95936166279E+02 -0.31672256218E+01 -0.56590952116E+02  0.11152759829E+03  0.47000000000E+01 0.  1.
        -11    1    1    2    0    0 -0.70726392838E+02  0.42798262991E+02 -0.63028035093E+02  0.10395406277E+03  0.00000000000E+00 0.  1.
         11    1    1    2    0    0 -0.65019255553E+02 -0.30455131856E+02 -0.81211916403E+01  0.72256296631E+02  0.00000000000E+00 0. -1.
<mgrwt>
<rscale>  0 0.17870061E+03</rscale>
<asrwt>0</asrwt>
<pdfrwt beam="1">  1        1 0.22641667E-01 0.18494371E+03</pdfrwt>
<pdfrwt beam="2">  1       -1 0.32928142E-01 0.18494371E+03</pdfrwt>
<totfact> 0.18662747E+03</totfact>
</mgrwt>
</event>
<event>
 7    1  0.5928109E-006  0.1692908E+03  0.7546771E-02  0.1185666E+00
         -1   -1    0    0    0  501 -0.00000000000E+00  0.00000000000E+00  0.24299913136E+02  0.24299913136E+02  0.00000000000E+00 0.  1.
          1   -1    0    0  501    0  0.00000000000E+00 -0.00000000000E+00 -0.14680836254E+04  0.14680836254E+04  0.00000000000E+00 0. -1.
         23    2    1    2    0    0  0.95078648620E+02  0.60141625519E+02 -0.11758927221E+04  0.11880164467E+04  0.12650066813E+03 0.  0.
          5    1    3    3  502    0 -0.47439456614E+01 -0.92421599272E+01 -0.83014629471E+01  0.14104142215E+02  0.47000000000E+01 0. -1.
         -5    1    3    3    0  502  0.99822594281E+02  0.69383785446E+02 -0.11675912592E+04  0.11739123045E+04  0.47000000000E+01 0. -1.
        -11    1    1    2    0    0 -0.29985665291E+02 -0.13473016118E+02 -0.18937589154E+03  0.19220793580E+03  0.00000000000E+00 0.  1.
         11    1    1    2    0    0 -0.65092983329E+02 -0.46668609400E+02 -0.78515098552E+02  0.11215915604E+03  0.00000000000E+00 0. -1.
<mgrwt>
<rscale>  0 0.16271407E+03</rscale>
<asrwt>0</asrwt>
<pdfrwt beam="2">  1        1 0.22585907E+00 0.16929083E+03</pdfrwt>
<pdfrwt beam="1">  1       -1 0.37384474E-02 0.16929083E+03</pdfrwt>
<totfact> 0.20430359E+03</totfact>
</mgrwt>
</event>
<event>
 7    1  0.5928109E-006  0.1260275E+03  0.7546771E-02  0.1251038E+00
         -1   -1    0    0    0  501 -0.00000000000E+00  0.00000000000E+00  0.89840641250E+02  0.89840641250E+02  0.00000000000E+00 0.  1.
          1   -1    0    0  501    0  0.00000000000E+00 -0.00000000000E+00 -0.15179700394E+03  0.15179700394E+03  0.00000000000E+00 0. -1.
         23    2    1    2    0    0 -0.15879837073E+02 -0.23822728620E+01 -0.82915251775E+02  0.15085709678E+03  0.12500032089E+03 0.  0.
          5    1    3    3  502    0  0.12605206339E+02  0.51686474838E+02 -0.70286258620E+02  0.88275880391E+02  0.47000000000E+01 0.  1.
         -5    1    3    3    0  502 -0.28485043412E+02 -0.54068747700E+02 -0.12628993154E+02  0.62581216384E+02  0.47000000000E+01 0.  1.
        -11    1    1    2    0    0 -0.25118017613E+02 -0.55647283050E+01  0.37822684995E+02  0.45743158069E+02  0.00000000000E+00 0.  1.
         11    1    1    2    0    0  0.40997854686E+02  0.79470011670E+01 -0.16863795908E+02  0.45037390342E+02  0.00000000000E+00 0. -1.
<mgrwt>
<rscale>  0 0.11531174E+03</rscale>
<asrwt>0</asrwt>
<pdfrwt beam="2">  1        1 0.23353385E-01 0.12602748E+03</pdfrwt>
<pdfrwt beam="1">  1       -1 0.13821637E-01 0.12602748E+03</pdfrwt>
<totfact> 0.72102181E+03</totfact>
</mgrwt>
</event>
<event>
 7    1  0.5928109E-006  0.1322340E+03  0.7546771E-02  0.1237169E+00
          3   -1    0    0  501    0  0.00000000000E+00  0.00000000000E+00  0.10044372506E+03  0.10044372506E+03  0.00000000000E+00 0. -1.
         -3   -1    0    0    0  501 -0.00000000000E+00 -0.00000000000E+00 -0.13792769795E+03  0.13792769795E+03  0.00000000000E+00 0.  1.
         23    2    1    2    0    0 -0.15678861693E+02 -0.40178275180E+02 -0.57513882509E+01  0.13235902931E+03  0.12500285466E+03 0.  0.
          5    1    3    3  502    0 -0.58263581470E+02  0.86900198024E+01 -0.25605744045E+02  0.64404235094E+02  0.47000000000E+01 0. -1.
         -5    1    3    3    0  502  0.42584719778E+02 -0.48868294983E+02  0.19854355794E+02  0.67954794217E+02  0.47000000000E+01 0. -1.
        -11    1    1    2    0    0  0.29267748070E+02  0.61124638408E+02 -0.28451761635E+01  0.67830063578E+02  0.00000000000E+00 0.  1.
         11    1    1    2    0    0 -0.13588886377E+02 -0.20946363228E+02 -0.28887408471E+02  0.38182330123E+02  0.00000000000E+00 0. -1.
<mgrwt>
<rscale>  0 0.12366611E+03</rscale>
<asrwt>0</asrwt>
<pdfrwt beam="1">  1        3 0.15452881E-01 0.13223401E+03</pdfrwt>
<pdfrwt beam="2">  1       -3 0.21219646E-01 0.13223401E+03</pdfrwt>
<totfact> 0.16281097E+03</totfact>
</mgrwt>
</event>
<event>
 7    1  0.5928109E-006  0.1370011E+03  0.7546771E-02  0.1229933E+00
         -2   -1    0    0    0  501 -0.00000000000E+00  0.00000000000E+00  0.19603151252E+02  0.19603151252E+02  0.00000000000E+00 0. -1.
          2   -1    0    0  501    0  0.00000000000E+00 -0.00000000000E+00 -0.75028308096E+03  0.75028308096E+03  0.00000000000E+00 0.  1.
         23    2    1    2    0    0  0.43534285711E+02  0.35353114332E+02 -0.40658741710E+03  0.42904850628E+03  0.12499686502E+03 0.  0.
          5    1    3    3  502    0 -0.19202394864E+02  0.58284843628E+02 -0.27005644622E+03  0.27698091832E+03  0.47000000000E+01 0. -1.
         -5    1    3    3    0  502  0.62736680575E+02 -0.22931729296E+02 -0.13653097088E+03  0.15206758796E+03  0.47000000000E+01 0. -1.
        -11    1    1    2    0    0 -0.68349353623E+02 -0.29050146228E+02 -0.18396086266E+03  0.19838635065E+03  0.00000000000E+00 0. -1.
         11    1    1    2    0    0  0.24815067912E+02 -0.63029681039E+01 -0.14013164995E+03  0.14245137528E+03  0.00000000000E+00 0.  1.
<mgrwt>
<rscale>  0 0.12834422E+03</rscale>
<asrwt>0</asrwt>
<pdfrwt beam="2">  1        2 0.11542815E+00 0.13700107E+03</pdfrwt>
<pdfrwt beam="1">  1       -2 0.30158697E-02 0.13700107E+03</pdfrwt>
<totfact> 0.15401252E+04</totfact>
</mgrwt>
</event>
<event>
 7    1  0.5928109E-006  0.1599632E+03  0.7546771E-02  0.1196391E+00
          1   -1    0    0  501    0  0.00000000000E+00  0.00000000000E+00  0.10227738532E+04  0.10227738532E+04  0.00000000000E+00 0. -1.
         -1   -1    0    0    0  501 -0.00000000000E+00 -0.00000000000E+00 -0.23132492436E+02  0.23132492436E+02  0.00000000000E+00 0.  1.
         23    2    1    2    0    0  0.20192674775E+01  0.99781191214E+02  0.68545832697E+03  0.70387593385E+03  0.12501139418E+03 0.  0.
          5    1    3    3  502    0  0.14378931763E+02 -0.85726023868E+01  0.36351278538E+03  0.36392839725E+03  0.47000000000E+01 0. -1.
         -5    1    3    3    0  502 -0.12359664286E+02  0.10835379360E+03  0.32194554159E+03  0.33994753660E+03  0.47000000000E+01 0. -1.
        -11    1    1    2    0    0  0.18655846002E+02 -0.38571003616E+02  0.23940079171E+03  0.24320465041E+03  0.00000000000E+00 0. -1.
         11    1    1    2    0    0 -0.20675113480E+02 -0.61210187598E+02  0.74782242130E+02  0.98825761425E+02  0.00000000000E+00 0.  1.
<mgrwt>
<rscale>  0 0.15337114E+03</rscale>
<asrwt>0</asrwt>
<pdfrwt beam="1">  1        1 0.15734979E+00 0.15996316E+03</pdfrwt>
<pdfrwt beam="2">  1       -1 0.35588458E-02 0.15996316E+03</pdfrwt>
<totfact> 0.44293182E+03</totfact>
</mgrwt>
</event>
<event>
 7    1  0.5928109E-006  0.2539461E+03  0.7546771E-02  0.1113184E+00
         -1   -1    0    0    0  501 -0.00000000000E+00  0.00000000000E+00  0.61860286313E+02  0.61860286313E+02  0.00000000000E+00 0.  1.
          1   -1    0    0  501    0  0.00000000000E+00 -0.00000000000E+00 -0.11607378236E+04  0.11607378236E+04  0.00000000000E+00 0. -1.
         23    2    1    2    0    0 -0.13354998054E+03 -0.17616740604E+03 -0.80237641414E+03  0.84160353842E+03  0.12497221155E+03 0.  0.
          5    1    3    3  502    0 -0.11107262693E+03 -0.49263643543E+02 -0.45813624531E+03  0.47399888638E+03  0.47000000000E+01 0. -1.
         -5    1    3    3    0  502 -0.22477353608E+02 -0.12690376249E+03 -0.34424016884E+03  0.36760465204E+03  0.47000000000E+01 0. -1.
        -11    1    1    2    0    0  0.10474452120E+03  0.13154413495E+03 -0.15062532484E+03  0.22575044329E+03  0.00000000000E+00 0.  1.
         11    1    1    2    0    0  0.28805459343E+02  0.44623271088E+02 -0.14587579825E+03  0.15524412816E+03  0.00000000000E+00 0. -1.
<mgrwt>
<rscale>  0 0.25019137E+03</rscale>
<asrwt>0</asrwt>
<pdfrwt beam="2">  1        1 0.17857502E+00 0.25394607E+03</pdfrwt>
<pdfrwt beam="1">  1       -1 0.95169685E-02 0.25394607E+03</pdfrwt>
<totfact> 0.80596777E+02</totfact>
</mgrwt>
</event>
<event>
 7    1  0.5928109E-006  0.1553744E+03  0.7546771E-02  0.1201950E+00
         -3   -1    0    0    0  501 -0.00000000000E+00  0.00000000000E+00  0.78960940290E+02  0.78960940290E+02  0.00000000000E+00 0.  1.
          3   -1    0    0  501    0  0.00000000000E+00 -0.00000000000E+00 -0.39912622055E+03  0.39912622055E+03  0.00000000000E+00 0. -1.
         23    2    1    2    0    0 -0.24448766094E+02 -0.88970592765E+02 -0.31026910499E+03  0.34699874613E+03  0.12501081459E+03 0.  0.
          5    1    3    3  502    0  0.26482917444E+02 -0.75341726928E+02 -0.26670441423E+03  0.27844398952E+03  0.47000000000E+01 0.  1.
         -5    1    3    3    0  502 -0.50931683538E+02 -0.13628865837E+02 -0.43564690758E+02  0.68554756603E+02  0.47000000000E+01 0.  1.
        -11    1    1    2    0    0  0.13327104342E+02  0.51839622319E+02  0.40778552515E+02  0.67289289620E+02  0.00000000000E+00 0.  1.
         11    1    1    2    0    0  0.11121661752E+02  0.37130970445E+02 -0.50674727790E+02  0.63799125095E+02  0.00000000000E+00 0. -1.
<mgrwt>
<rscale>  0 0.14880429E+03</rscale>
<asrwt>0</asrwt>
<pdfrwt beam="2">  1        3 0.61404034E-01 0.15537443E+03</pdfrwt>
<pdfrwt beam="1">  1       -3 0.12147837E-01 0.15537443E+03</pdfrwt>
<totfact> 0.33098019E+02</totfact>
</mgrwt>
</event>
<event>
 7    1  0.5928109E-006  0.1277021E+03  0.7546771E-02  0.1270450E+00
          1   -1    0    0  501    0  0.00000000000E+00  0.00000000000E+00  0.58390242973E+02  0.58390242973E+02  0.00000000000E+00 0. -1.
         -1   -1    0    0    0  501 -0.00000000000E+00 -0.00000000000E+00 -0.15292433268E+03  0.15292433268E+03  0.00000000000E+00 0.  1.
         23    2    1    2    0    0 -0.25631304808E+02 -0.52145183448E+01 -0.46145107805E+02  0.13578361519E+03  0.12499465665E+03 0.  0.
          5    1    3    3  502    0  0.40649657434E+01  0.24447466198E+02  0.35683051074E+02  0.43698657690E+02  0.47000000000E+01 0.  1.
         -5    1    3    3    0  502 -0.29696270552E+02 -0.29661984542E+02 -0.81828158879E+02  0.92084957496E+02  0.47000000000E+01 0.  1.
        -11    1    1    2    0    0  0.39317087491E+01 -0.10079217747E+02 -0.47766233183E+02  0.48976137011E+02  0.00000000000E+00 0.  1.
         11    1    1    2    0    0  0.21699596059E+02  0.15293736092E+02 -0.62274872051E+00  0.26554823455E+02  0.00000000000E+00 0. -1.
<mgrwt>
<rscale>  0 0.10483259E+03</rscale>
<asrwt>0</asrwt>
<pdfrwt beam="1">  1        1 0.89831143E-02 0.12770207E+03</pdfrwt>
<pdfrwt beam="2">  1       -1 0.23526820E-01 0.12770207E+03</pdfrwt>
<totfact> 0.10674461E+04</totfact>
</mgrwt>
</event>
<event>
 7    1  0.5928109E-006  0.1648161E+03  0.7546771E-02  0.1185320E+00
         -4   -1    0    0    0  501 -0.00000000000E+00  0.00000000000E+00  0.21721129728E+03  0.21721129728E+03  0.00000000000E+00 0.  1.
          4   -1    0    0  501    0  0.00000000000E+00 -0.00000000000E+00 -0.14241789741E+03  0.14241789741E+03  0.00000000000E+00 0. -1.
         23    2    1    2    0    0 -0.10125445559E+03 -0.35859099418E+02 -0.33599863627E+02  0.16820614858E+03  0.12500407112E+03 0.  0.
          5    1    3    3  502    0 -0.67983663558E+02  0.19608283518E+02  0.30345466953E+02  0.77131061563E+02  0.47000000000E+01 0. -1.
         -5    1    3    3    0  502 -0.33270792028E+02 -0.55467382936E+02 -0.63945330581E+02  0.91075087016E+02  0.47000000000E+01 0. -1.
        -11    1    1    2    0    0  0.10342282111E+03  0.51000382629E+01  0.30962826204E+02  0.10807861455E+03  0.00000000000E+00 0. -1.
         11    1    1    2    0    0 -0.21683655269E+01  0.30759061155E+02  0.77430437290E+02  0.83344431555E+02  0.00000000000E+00 0.  1.
<mgrwt>
<rscale>  0 0.16302752E+03</rscale>
<asrwt>0</asrwt>
<pdfrwt beam="2">  1        4 0.21910446E-01 0.16481613E+03</pdfrwt>
<pdfrwt beam="1">  1       -4 0.33417123E-01 0.16481613E+03</pdfrwt>
<totfact> 0.28473758E+02</totfact>
</mgrwt>
</event>
<event>
 7    1  0.5928109E-006  0.2175098E+03  0.7546771E-02  0.1139306E+00
          1   -1    0    0  501    0  0.00000000000E+00  0.00000000000E+00  0.65400488306E+03  0.65400488306E+03  0.00000000000E+00 0. -1.
         -1   -1    0    0    0  501 -0.00000000000E+00 -0.00000000000E+00 -0.70135607733E+02  0.70135607733E+02  0.00000000000E+00 0.  1.
         23    2    1    2    0    0  0.12368594118E+03  0.12801102813E+03  0.38624640128E+03  0.44327959323E+03  0.12500191958E+03 0.  0.
          5    1    3    3  502    0 -0.23339820977E+02  0.44823800228E+01  0.30147673733E+02  0.38675718551E+02  0.47000000000E+01 0.  1.
         -5    1    3    3    0  502  0.14702576215E+03  0.12352864811E+03  0.35609872755E+03  0.40460387468E+03  0.47000000000E+01 0.  1.
        -11    1    1    2    0    0 -0.13420342505E+02 -0.29011890878E+02 -0.22523946105E+01  0.32044791882E+02  0.00000000000E+00 0.  1.
         11    1    1    2    0    0 -0.11026559867E+03 -0.98999137257E+02  0.19987526866E+03  0.24881610569E+03  0.00000000000E+00 0. -1.
<mgrwt>
<rscale>  0 0.21287897E+03</rscale>
<asrwt>0</asrwt>
<pdfrwt beam="1">  1        1 0.10061613E+00 0.21750980E+03</pdfrwt>
<pdfrwt beam="2">  1       -1 0.10790094E-01 0.21750980E+03</pdfrwt>
<totfact> 0.16792075E+03</totfact>
</mgrwt>
</event>
<event>
 7    1  0.5928109E-006  0.2340304E+03  0.7546771E-02  0.1126764E+00
         -3   -1    0    0    0  501 -0.00000000000E+00  0.00000000000E+00  0.52895963225E+03  0.52895963225E+03  0.00000000000E+00 0.  1.
          3   -1    0    0  501    0  0.00000000000E+00 -0.00000000000E+00 -0.10723557288E+03  0.10723557288E+03  0.00000000000E+00 0. -1.
         23    2    1    2    0    0 -0.23419844730E+02  0.19646359303E+03  0.11678753776E+03  0.26155217551E+03  0.12499511601E+03 0.  0.
          5    1    3    3  502    0 -0.46007507488E+02  0.20250493541E+03  0.11549442772E+03  0.23766781954E+03  0.47000000000E+01 0. -1.
         -5    1    3    3    0  502  0.22587662758E+02 -0.60413423794E+01  0.12931100340E+01  0.23884355972E+02  0.47000000000E+01 0. -1.
        -11    1    1    2    0    0 -0.29529081595E+02 -0.82839215199E+02  0.90082254442E+02  0.12589326749E+03  0.00000000000E+00 0. -1.
         11    1    1    2    0    0  0.52948926324E+02 -0.11362437783E+03  0.21485426717E+03  0.24874976213E+03  0.00000000000E+00 0.  1.
<mgrwt>
<rscale>  0 0.22982293E+03</rscale>
<asrwt>0</asrwt>
<pdfrwt beam="2">  1        3 0.16497781E-01 0.23403036E+03</pdfrwt>
<pdfrwt beam="1">  1       -3 0.81378403E-01 0.23403036E+03</pdfrwt>
<totfact> 0.11193829E+02</totfact>
</mgrwt>
</event>
<event>
 6    1  0.5928109E-006  0.1507304E+03  0.7546771E-02  0.1222671E+00
          2   -1    0    0  501    0  0.00000000000E+00  0.00000000000E+00  0.11949645971E+04  0.11949645971E+04  0.00000000000E+00 0. -1.
         -2   -1    0    0    0  501 -0.00000000000E+00 -0.00000000000E+00 -0.13387762385E+02  0.13387762385E+02  0.00000000000E+00 0.  1.
          5    1    1    2  502    0  0.67725000268E+02 -0.94408148390E+01  0.50276299959E+03  0.50741356742E+03  0.47000000000E+01 0. -1.
         -5    1    1    2    0  502 -0.76626061408E+02  0.19162430170E+02  0.38380506810E+03  0.39187647584E+03  0.47000000000E+01 0.  1.
        -11    1    1    2    0    0 -0.35042765086E+02 -0.27502199367E+02  0.15276430260E+03  0.15912667440E+03  0.00000000000E+00 0.  1.
         11    1    1    2    0    0  0.43943826225E+02  0.17780584036E+02  0.14224446447E+03  0.14993564187E+03  0.00000000000E+00 0. -1.
<mgrwt>
<rscale>  0 0.13327842E+03</rscale>
<asrwt>0</asrwt>
<pdfrwt beam="1">  1        2 0.18384062E+00 0.15073037E+03</pdfrwt>
<pdfrwt beam="2">  1       -2 0.20596567E-02 0.15073037E+03</pdfrwt>
<totfact> 0.14430299E+04</totfact>
</mgrwt>
</event>
<event>
 7    1  0.5928109E-006  0.2845211E+03  0.7546771E-02  0.1094997E+00
         -2   -1    0    0    0  501 -0.00000000000E+00  0.00000000000E+00  0.15183499484E+03  0.15183499484E+03  0.00000000000E+00 0.  1.
          2   -1    0    0  501    0  0.00000000000E+00 -0.00000000000E+00 -0.52493886093E+03  0.52493886093E+03  0.00000000000E+00 0. -1.
         23    2    1    2    0    0 -0.37494588715E+02  0.25282591303E+03 -0.24875842504E+03  0.37793254879E+03  0.12500188369E+03 0.  0.
          5    1    3    3  502    0  0.45091844207E+02  0.86257482545E+02 -0.70067747171E+02  0.12002169347E+03  0.47000000000E+01 0.  1.
         -5    1    3    3    0  502 -0.82586432923E+02  0.16656843048E+03 -0.17869067787E+03  0.25791085533E+03  0.47000000000E+01 0.  1.
        -11    1    1    2    0    0  0.87511442634E+01 -0.17163025870E+03 -0.12533480672E+03  0.21270247296E+03  0.00000000000E+00 0. -1.
         11    1    1    2    0    0  0.28743444452E+02 -0.81195654330E+02  0.98936568227E+00  0.86138834015E+02  0.00000000000E+00 0.  1.
<mgrwt>
<rscale>  0 0.28127136E+03</rscale>
<asrwt>0</asrwt>
<pdfrwt beam="2">  1        2 0.80759826E-01 0.28452110E+03</pdfrwt>
<pdfrwt beam="1">  1       -2 0.23359230E-01 0.28452110E+03</pdfrwt>
<totfact> 0.94635483E+02</totfact>
</mgrwt>
</event>
<event>
 7    1  0.5928109E-006  0.1510106E+03  0.7546771E-02  0.1207468E+00
         -2   -1    0    0    0  501 -0.00000000000E+00  0.00000000000E+00  0.14745568802E+02  0.14745568802E+02  0.00000000000E+00 0.  1.
          2   -1    0    0  501    0  0.00000000000E+00 -0.00000000000E+00 -0.20066480351E+04  0.20066480351E+04  0.00000000000E+00 0. -1.
         23    2    1    2    0    0 -0.93931510375E+01  0.84202799436E+02 -0.16495306448E+04  0.16564285514E+04  0.12500341961E+03 0.  0.
          5    1    3    3  502    0 -0.50377166224E+02  0.89130729807E+02 -0.13698792287E+04  0.13737078791E+04  0.47000000000E+01 0. -1.
         -5    1    3    3    0  502  0.40984015186E+02 -0.49279303709E+01 -0.27965141610E+03  0.28272067227E+03  0.47000000000E+01 0. -1.
        -11    1    1    2    0    0  0.17142659551E+01 -0.17861163143E+02 -0.19440087417E+01  0.18048241648E+02  0.00000000000E+00 0.  1.
         11    1    1    2    0    0  0.76788850824E+01 -0.66341636292E+02 -0.34042781277E+03  0.34691681090E+03  0.00000000000E+00 0. -1.
<mgrwt>
<rscale>  0 0.14444620E+03</rscale>
<asrwt>0</asrwt>
<pdfrwt beam="2">  1        2 0.30871524E+00 0.15101059E+03</pdfrwt>
<pdfrwt beam="1">  1       -2 0.22685479E-02 0.15101059E+03</pdfrwt>
<totfact> 0.47102180E+03</totfact>
</mgrwt>
</event>
<event>
 7    1  0.5928109E-006  0.1377273E+03  0.7546771E-02  0.1227753E+00
         -1   -1    0    0    0  501 -0.00000000000E+00  0.00000000000E+00  0.49172555363E+02  0.49172555363E+02  0.00000000000E+00 0.  1.
          1   -1    0    0  501    0  0.00000000000E+00 -0.00000000000E+00 -0.35293557684E+03  0.35293557684E+03  0.00000000000E+00 0. -1.
         23    2    1    2    0    0 -0.46268531080E+02  0.34697899246E+02 -0.23836167541E+03  0.27529092656E+03  0.12499633900E+03 0.  0.
          5    1    3    3  502    0 -0.84356145256E+02  0.61058567310E+01 -0.11389948214E+03  0.14194513997E+03  0.47000000000E+01 0. -1.
         -5    1    3    3    0  502  0.38087614176E+02  0.28592042515E+02 -0.12446219327E+03  0.13334578660E+03  0.47000000000E+01 0. -1.
        -11    1    1    2    0    0  0.66373719234E+02 -0.14323435107E+02 -0.70343839689E+02  0.97769561625E+02  0.00000000000E+00 0. -1.
         11    1    1    2    0    0 -0.20105188154E+02 -0.20374464140E+02  0.49424936205E+01  0.29047644016E+02  0.00000000000E+00 0.  1.
<mgrwt>
<rscale>  0 0.12979994E+03</rscale>
<asrwt>0</asrwt>
<pdfrwt beam="2">  1        1 0.54297783E-01 0.13772729E+03</pdfrwt>
<pdfrwt beam="1">  1       -1 0.75650082E-02 0.13772729E+03</pdfrwt>
<totfact> 0.63899609E+03</totfact>
</mgrwt>
</event>
<event>
 7    1  0.5928109E-006  0.1467381E+03  0.7546771E-02  0.1215125E+00
         -1   -1    0    0    0  501 -0.00000000000E+00  0.00000000000E+00  0.24158967119E+02  0.24158967119E+02  0.00000000000E+00 0.  1.
          1   -1    0    0  501    0  0.00000000000E+00 -0.00000000000E+00 -0.76836555152E+03  0.76836555152E+03  0.00000000000E+00 0. -1.
         23    2    1    2    0    0 -0.74364592244E+02 -0.19401468764E+02 -0.51015931677E+03  0.53084328552E+03  0.12500222291E+03 0.  0.
          5    1    3    3  502    0 -0.79609483004E+02 -0.63130946496E+02 -0.33000342303E+03  0.34532236446E+03  0.47000000000E+01 0.  1.
         -5    1    3    3    0  502  0.52448907602E+01  0.43729477732E+02 -0.18015589374E+03  0.18552092106E+03  0.47000000000E+01 0.  1.
        -11    1    1    2    0    0  0.29403773929E+02 -0.13628070748E+02 -0.18368743052E+03  0.18652447123E+03  0.00000000000E+00 0. -1.
         11    1    1    2    0    0  0.44960818315E+02  0.33029539512E+02 -0.50359837115E+02  0.75156761892E+02  0.00000000000E+00 0.  1.
<mgrwt>
<rscale>  0 0.13867335E+03</rscale>
<asrwt>0</asrwt>
<pdfrwt beam="2">  1        1 0.11821006E+00 0.14673808E+03</pdfrwt>
<pdfrwt beam="1">  1       -1 0.37167650E-02 0.14673808E+03</pdfrwt>
<totfact> 0.65294263E+03</totfact>
</mgrwt>
</event>
<event>
 7    1  0.5928109E-006  0.1163695E+03  0.7546771E-02  0.1258812E+00
         -2   -1    0    0    0  501 -0.00000000000E+00  0.00000000000E+00  0.12667790362E+02  0.12667790362E+02  0.00000000000E+00 0.  1.
          2   -1    0    0  501    0  0.00000000000E+00 -0.00000000000E+00 -0.10253678082E+04  0.10253678082E+04  0.00000000000E+00 0. -1.
         23    2    1    2    0    0 -0.19293941621E+02 -0.26217127046E+02 -0.73494398032E+03  0.74409980155E+03  0.11172406422E+03 0.  0.
          5    1    3    3  502    0 -0.50385657304E+02 -0.25862788148E+02 -0.66485434104E+03  0.66727878962E+03  0.47000000000E+01 0. -1.
         -5    1    3    3    0  502  0.31091715682E+02 -0.35433889738E+00 -0.70089639280E+02  0.76821011934E+02  0.47000000000E+01 0.  1.
        -11    1    1    2    0    0  0.49084137970E+02  0.24788728949E+02 -0.10403615130E+03  0.11767435770E+03  0.00000000000E+00 0.  1.
         11    1    1    2    0    0 -0.29790196348E+02  0.14283980962E+01 -0.17371988624E+03  0.17626143933E+03  0.00000000000E+00 0. -1.
<mgrwt>
<rscale>  0 0.11095481E+03</rscale>
<asrwt>0</asrwt>
<pdfrwt beam="2">  1        2 0.15774895E+00 0.11636950E+03</pdfrwt>
<pdfrwt beam="1">  1       -2 0.19488901E-02 0.11636950E+03</pdfrwt>
<totfact> 0.19204136E+04</totfact>
</mgrwt>
</event>
<event>
 7    1  0.5928109E-006  0.1316155E+03  0.7546771E-02  0.1238127E+00
         -2   -1    0    0    0  501 -0.00000000000E+00  0.00000000000E+00  0.15329006752E+03  0.15329006752E+03  0.00000000000E+00 0.  1.
          2   -1    0    0  501    0  0.00000000000E+00 -0.00000000000E+00 -0.90412852835E+02  0.90412852835E+02  0.00000000000E+00 0. -1.
         23    2    1    2    0    0  0.22471064667E+02  0.34502398786E+02  0.15566531871E+02  0.13253282568E+03  0.12500907446E+03 0.  0.
          5    1    3    3  502    0 -0.50885594255E+02  0.23505101525E+02  0.14964097013E+02  0.58205220555E+02  0.47000000000E+01 0.  1.
         -5    1    3    3    0  502  0.73356658923E+02  0.10997297261E+02  0.60243485779E+00  0.74327605121E+02  0.47000000000E+01 0.  1.
        -11    1    1    2    0    0 -0.26790185544E+02 -0.59610138445E+02  0.54059786039E+02  0.84814757640E+02  0.00000000000E+00 0.  1.
         11    1    1    2    0    0  0.43191208761E+01  0.25107739659E+02 -0.67491032278E+01  0.26355337037E+02  0.00000000000E+00 0. -1.
<mgrwt>
<rscale>  0 0.12306382E+03</rscale>
<asrwt>0</asrwt>
<pdfrwt beam="2">  1        2 0.13909670E-01 0.13161547E+03</pdfrwt>
<pdfrwt beam="1">  1       -2 0.23583087E-01 0.13161547E+03</pdfrwt>
<totfact> 0.63621754E+03</totfact>
</mgrwt>
</event>
<event>
 7    1  0.5928109E-006  0.1335535E+03  0.7546771E-02  0.1234633E+00
         -2   -1    0    0    0  501 -0.00000000000E+00  0.00000000000E+00  0.32840706740E+02  0.32840706740E+02  0.00000000000E+00 0. -1.
          2   -1    0    0  501    0  0.00000000000E+00 -0.00000000000E+00 -0.43005790219E+03  0.43005790219E+03  0.00000000000E+00 0.  1.
         23    2    1    2    0    0  0.46464589536E+02 -0.72760307718E+01 -0.24160606944E+03  0.27606164246E+03  0.12499855575E+03 0.  0.
          5    1    3    3  502    0  0.87284383327E+02  0.30026402628E+01 -0.12994959288E+03  0.15664152103E+03  0.47000000000E+01 0.  1.
         -5    1    3    3    0  502 -0.40819793790E+02 -0.10278671035E+02 -0.11165647656E+03  0.11942012143E+03  0.47000000000E+01 0.  1.
        -11    1    1    2    0    0 -0.23739987382E+02 -0.30161707486E+02 -0.17942807890E+02  0.42370508073E+02  0.00000000000E+00 0. -1.
         11    1    1    2    0    0 -0.22724602154E+02  0.37437738258E+02 -0.13766831812E+03  0.14446645840E+03  0.00000000000E+00 0.  1.
<mgrwt>
<rscale>  0 0.12527952E+03</rscale>
<asrwt>0</asrwt>
<pdfrwt beam="2">  1        2 0.66162752E-01 0.13355350E+03</pdfrwt>
<pdfrwt beam="1">  1       -2 0.50524166E-02 0.13355350E+03</pdfrwt>
<totfact> 0.13407537E+04</totfact>
</mgrwt>
</event>
<event>
 7    1  0.5928109E-006  0.1158699E+03  0.7546771E-02  0.1260751E+00
         -2   -1    0    0    0  501 -0.00000000000E+00  0.00000000000E+00  0.30531412798E+02  0.30531412798E+02  0.00000000000E+00 0.  1.
          2   -1    0    0  501    0  0.00000000000E+00 -0.00000000000E+00 -0.62567032186E+03  0.62567032186E+03  0.00000000000E+00 0. -1.
         23    2    1    2    0    0  0.22950711136E+02  0.15544951751E+02 -0.52875853007E+03  0.54130529884E+03  0.11250538992E+03 0.  0.
          5    1    3    3  502    0  0.40481021132E+02 -0.14216992039E+02 -0.47672038908E+03  0.47867029916E+03  0.47000000000E+01 0. -1.
         -5    1    3    3    0  502 -0.17530309996E+02  0.29761943790E+02 -0.52038140994E+02  0.62634999679E+02  0.47000000000E+01 0.  1.
        -11    1    1    2    0    0 -0.49853947495E+02 -0.18546164437E+02 -0.12564389076E+02  0.54655650843E+02  0.00000000000E+00 0.  1.
         11    1    1    2    0    0  0.26903236359E+02  0.30012126861E+01 -0.53815989911E+02  0.60240784974E+02  0.00000000000E+00 0. -1.
<mgrwt>
<rscale>  0 0.10990224E+03</rscale>
<asrwt>0</asrwt>
<pdfrwt beam="2">  1        2 0.96256968E-01 0.11586994E+03</pdfrwt>
<pdfrwt beam="1">  1       -2 0.46971407E-02 0.11586994E+03</pdfrwt>
<totfact> 0.97828862E+03</totfact>
</mgrwt>
</event>
<event>
 7    1  0.5928109E-006  0.1519263E+03  0.7546771E-02  0.1206652E+00
          2   -1    0    0  501    0  0.00000000000E+00  0.00000000000E+00  0.71361469183E+03  0.71361469183E+03  0.00000000000E+00 0.  1.
         -2   -1    0    0    0  501 -0.00000000000E+00 -0.00000000000E+00 -0.30824741186E+02  0.30824741186E+02  0.00000000000E+00 0. -1.
         23    2    1    2    0    0  0.86319699772E+02  0.38140639806E+01  0.49746718958E+03  0.52014922069E+03  0.12496387249E+03 0.  0.
          5    1    3    3  502    0 -0.31488663109E+02  0.11307985056E+02  0.11021152336E+03  0.11527391861E+03  0.47000000000E+01 0. -1.
         -5    1    3    3    0  502  0.11780836288E+03 -0.74939210759E+01  0.38725566622E+03  0.40487530208E+03  0.47000000000E+01 0. -1.
        -11    1    1    2    0    0 -0.64857693471E+02  0.27156800320E+02  0.56895888956E+02  0.90449734030E+02  0.00000000000E+00 0. -1.
         11    1    1    2    0    0 -0.21462006300E+02 -0.30970864300E+02  0.12842687211E+03  0.13384047829E+03  0.00000000000E+00 0.  1.
<mgrwt>
<rscale>  0 0.14508056E+03</rscale>
<asrwt>0</asrwt>
<pdfrwt beam="1">  1        2 0.10978686E+00 0.15192632E+03</pdfrwt>
<pdfrwt beam="2">  1       -2 0.47422684E-02 0.15192632E+03</pdfrwt>
<totfact> 0.84089452E+03</totfact>
</mgrwt>
</event>
<event>
 7    1  0.5928109E-006  0.1894581E+03  0.7546771E-02  0.1163887E+00
         -1   -1    0    0    0  501 -0.00000000000E+00  0.00000000000E+00  0.80893175192E+02  0.80893175192E+02  0.00000000000E+00 0.  1.
          1   -1    0    0  501    0  0.00000000000E+00 -0.00000000000E+00 -0.52015725846E+03  0.52015725846E+03  0.00000000000E+00 0. -1.
         23    2    1    2    0    0 -0.12372091053E+03 -0.70426204069E+02 -0.37529184172E+03  0.42040257655E+03  0.12501058348E+03 0.  0.
          5    1    3    3  502    0 -0.60465168084E+02 -0.83363848899E+01 -0.38979427545E+02  0.72574221568E+02  0.47000000000E+01 0.  1.
         -5    1    3    3    0  502 -0.63255742449E+02 -0.62089819179E+02 -0.33631241418E+03  0.34782835498E+03  0.47000000000E+01 0.  1.
        -11    1    1    2    0    0  0.93444818430E+02  0.92464018547E+02 -0.48258953073E+02  0.14003733563E+03  0.00000000000E+00 0. -1.
         11    1    1    2    0    0  0.30276092103E+02 -0.22037814478E+02 -0.15713288469E+02  0.40610521476E+02  0.00000000000E+00 0.  1.
<mgrwt>
<rscale>  0 0.18410639E+03</rscale>
<asrwt>0</asrwt>
<pdfrwt beam="2">  1        1 0.80024193E-01 0.18945807E+03</pdfrwt>
<pdfrwt beam="1">  1       -1 0.12445104E-01 0.18945807E+03</pdfrwt>
<totfact> 0.18374156E+03</totfact>
</mgrwt>
</event>
<event>
 7    1  0.5928109E-006  0.1837708E+03  0.7546771E-02  0.1169489E+00
         -1   -1    0    0    0  501 -0.00000000000E+00  0.00000000000E+00  0.31199806624E+02  0.31199806624E+02  0.00000000000E+00 0.  1.
          1   -1    0    0  501    0  0.00000000000E+00 -0.00000000000E+00 -0.96342392446E+03  0.96342392446E+03  0.00000000000E+00 0. -1.
         23    2    1    2    0    0  0.75459044305E+02 -0.11159523248E+03 -0.51311106219E+03  0.54502722754E+03  0.12499661331E+03 0.  0.
          5    1    3    3  502    0 -0.25457141014E+02 -0.55664977578E+02 -0.11315962317E+03  0.12873945034E+03  0.47000000000E+01 0. -1.
         -5    1    3    3    0  502  0.10091618532E+03 -0.55930254898E+02 -0.39995143903E+03  0.41628777721E+03  0.47000000000E+01 0. -1.
        -11    1    1    2    0    0 -0.31504414326E+02  0.94236551517E+02 -0.36239714285E+03  0.37577219816E+03  0.00000000000E+00 0. -1.
         11    1    1    2    0    0 -0.43954629979E+02  0.17358680960E+02 -0.56715912788E+02  0.73824305378E+02  0.00000000000E+00 0.  1.
<mgrwt>
<rscale>  0 0.17826856E+03</rscale>
<asrwt>0</asrwt>
<pdfrwt beam="2">  1        1 0.14821904E+00 0.18377083E+03</pdfrwt>
<pdfrwt beam="1">  1       -1 0.47999711E-02 0.18377083E+03</pdfrwt>
<totfact> 0.31613502E+03</totfact>
</mgrwt>
</event>
<event>
 7    1  0.5928109E-006  0.1437247E+03  0.7546771E-02  0.1218309E+00
         -1   -1    0    0    0  501 -0.00000000000E+00  0.00000000000E+00  0.56058960262E+02  0.56058960262E+02  0.00000000000E+00 0.  1.
          1   -1    0    0  501    0  0.00000000000E+00 -0.00000000000E+00 -0.30191383002E+03  0.30191383002E+03  0.00000000000E+00 0. -1.
         23    2    1    2    0    0 -0.58266276679E+02  0.40453586289E+02 -0.13681701616E+03  0.19843308420E+03  0.12500136541E+03 0.  0.
          5    1    3    3  502    0 -0.40972912409E+02  0.12726694002E+01  0.12429021727E+02  0.43092572675E+02  0.47000000000E+01 0.  1.
         -5    1    3    3    0  502 -0.17293364270E+02  0.39180916889E+02 -0.14924603789E+03  0.15534051153E+03  0.47000000000E+01 0.  1.
        -11    1    1    2    0    0  0.82329567030E+01  0.13323634635E+02 -0.78406978257E+02  0.79955956972E+02  0.00000000000E+00 0. -1.
         11    1    1    2    0    0  0.50033319976E+02 -0.53777220924E+02 -0.30630875340E+02  0.79583749109E+02  0.00000000000E+00 0.  1.
<mgrwt>
<rscale>  0 0.13636274E+03</rscale>
<asrwt>0</asrwt>
<pdfrwt beam="2">  1        1 0.46448281E-01 0.14372471E+03</pdfrwt>
<pdfrwt beam="1">  1       -1 0.86244555E-02 0.14372471E+03</pdfrwt>
<totfact> 0.63826721E+03</totfact>
</mgrwt>
</event>
<event>
 7    1  0.5928109E-006  0.1331468E+03  0.7546771E-02  0.1222877E+00
         -4   -1    0    0    0  501 -0.00000000000E+00  0.00000000000E+00  0.92567994430E+02  0.92567994430E+02  0.00000000000E+00 0.  1.
          4   -1    0    0  501    0  0.00000000000E+00 -0.00000000000E+00 -0.28901104482E+03  0.28901104482E+03  0.00000000000E+00 0. -1.
         23    2    1    2    0    0 -0.22315266386E+02 -0.40041768901E+02 -0.20908713035E+03  0.24788204786E+03  0.12500706862E+03 0.  0.
          5    1    3    3  502    0  0.22265652941E+02 -0.73609471730E+02 -0.11638261253E+03  0.13957476895E+03  0.47000000000E+01 0. -1.
         -5    1    3    3    0  502 -0.44580919327E+02  0.33567702829E+02 -0.92704517816E+02  0.10830727891E+03  0.47000000000E+01 0. -1.
        -11    1    1    2    0    0 -0.10634700770E+02  0.35879956875E+02  0.63058042253E+02  0.73326563117E+02  0.00000000000E+00 0.  1.
         11    1    1    2    0    0  0.32949967157E+02  0.41618120259E+01 -0.50413962299E+02  0.60370428271E+02  0.00000000000E+00 0. -1.
<mgrwt>
<rscale>  0 0.13313457E+03</rscale>
<asrwt>0</asrwt>
<pdfrwt beam="2">  1        4 0.44463238E-01 0.13314684E+03</pdfrwt>
<pdfrwt beam="1">  1       -4 0.14241230E-01 0.13314684E+03</pdfrwt>
<totfact> 0.33698403E+02</totfact>
</mgrwt>
</event>
<event>
 7    1  0.5928109E-006  0.2165369E+03  0.7546771E-02  0.1139861E+00
          1   -1    0    0  501    0  0.00000000000E+00  0.00000000000E+00  0.84723661458E+03  0.84723661458E+03  0.00000000000E+00 0. -1.
         -1   -1    0    0    0  501 -0.00000000000E+00 -0.00000000000E+00 -0.90888950034E+02  0.90888950034E+02  0.00000000000E+00 0.  1.
         23    2    1    2    0    0  0.23897727597E+02  0.17519139343E+03  0.69706718597E+03  0.72992525573E+03  0.12500036593E+03 0.  0.
          5    1    3    3  502    0  0.61777545444E+02  0.57485992778E+02  0.38611935727E+03  0.39526111945E+03  0.47000000000E+01 0. -1.
         -5    1    3    3    0  502 -0.37879817848E+02  0.11770540066E+03  0.31094782870E+03  0.33466413628E+03  0.47000000000E+01 0. -1.
        -11    1    1    2    0    0  0.28585078162E+02 -0.76314050004E+02  0.50595815205E+02  0.95921204318E+02  0.00000000000E+00 0. -1.
         11    1    1    2    0    0 -0.52482805758E+02 -0.98877343429E+02  0.86846633720E+01  0.11227910456E+03  0.00000000000E+00 0.  1.
<mgrwt>
<rscale>  0 0.21216783E+03</rscale>
<asrwt>0</asrwt>
<pdfrwt beam="1">  1        1 0.13034409E+00 0.21653687E+03</pdfrwt>
<pdfrwt beam="2">  1       -1 0.13982916E-01 0.21653687E+03</pdfrwt>
<totfact> 0.76118106E+02</totfact>
</mgrwt>
</event>
<event>
 7    1  0.5928109E-006  0.1423119E+03  0.7546771E-02  0.1221242E+00
          1   -1    0    0  501    0  0.00000000000E+00  0.00000000000E+00  0.39747287246E+03  0.39747287246E+03  0.00000000000E+00 0. -1.
         -1   -1    0    0    0  501 -0.00000000000E+00 -0.00000000000E+00 -0.44350046678E+02  0.44350046678E+02  0.00000000000E+00 0.  1.
         23    2    1    2    0    0  0.98431605101E+01  0.67309236980E+02  0.25634009172E+03  0.29319431946E+03  0.12500098059E+03 0.  0.
          5    1    3    3  502    0  0.65950952957E+02  0.41246518617E+02  0.16854655638E+03  0.18569015903E+03  0.47000000000E+01 0. -1.
         -5    1    3    3    0  502 -0.56107792447E+02  0.26062718362E+02  0.87793535338E+02  0.10750416043E+03  0.47000000000E+01 0. -1.
        -11    1    1    2    0    0 -0.30792948375E+02 -0.15337157106E+02 -0.26398068886E+01  0.34502212076E+02  0.00000000000E+00 0.  1.
         11    1    1    2    0    0  0.20949787865E+02 -0.51972079874E+02  0.99422540956E+02  0.11412638761E+03  0.00000000000E+00 0. -1.
<mgrwt>
<rscale>  0 0.13427864E+03</rscale>
<asrwt>0</asrwt>
<pdfrwt beam="1">  1        1 0.61149670E-01 0.14231186E+03</pdfrwt>
<pdfrwt beam="2">  1       -1 0.68230844E-02 0.14231186E+03</pdfrwt>
<totfact> 0.64408211E+03</totfact>
</mgrwt>
</event>
<event>
 7    1  0.6835423E-006  0.1902743E+03  0.7546771E-02  0.1163313E+00
         -1   -1    0    0    0  501 -0.00000000000E+00  0.00000000000E+00  0.52438816360E+02  0.52438816360E+02  0.00000000000E+00 0.  1.
          1   -1    0    0  501    0  0.00000000000E+00 -0.00000000000E+00 -0.61647417642E+03  0.61647417642E+03  0.00000000000E+00 0. -1.
         23    2    1    2    0    0  0.14005322155E+03 -0.31056366338E+02 -0.28472552551E+03  0.34245137836E+03  0.12499967562E+03 0.  0.
          5    1    3    3  502    0  0.84606907860E+02 -0.37938563660E+02 -0.59316328050E+02  0.11017340988E+03  0.47000000000E+01 0. -1.
         -5    1    3    3    0  502  0.55446313688E+02  0.68821973218E+01 -0.22540919746E+03  0.23227796848E+03  0.47000000000E+01 0. -1.
        -11    1    1    2    0    0 -0.53681451092E+02  0.22877020969E+02 -0.20198743027E+03  0.21024742155E+03  0.00000000000E+00 0. -1.
         11    1    1    2    0    0 -0.86371770457E+02  0.81793453693E+01 -0.77322404273E+02  0.11621419287E+03  0.00000000000E+00 0.  1.
<mgrwt>
<rscale>  0 0.18471877E+03</rscale>
<asrwt>0</asrwt>
<pdfrwt beam="2">  1        1 0.94842186E-01 0.19027433E+03</pdfrwt>
<pdfrwt beam="1">  1       -1 0.80675098E-02 0.19027433E+03</pdfrwt>
<totfact> 0.28439876E+03</totfact>
</mgrwt>
</event>
<event>
 7    1  0.5928109E-006  0.1528510E+03  0.7546771E-02  0.1205067E+00
          1   -1    0    0  501    0  0.00000000000E+00  0.00000000000E+00  0.20815019862E+03  0.20815019862E+03  0.00000000000E+00 0. -1.
         -1   -1    0    0    0  501 -0.00000000000E+00 -0.00000000000E+00 -0.15132613362E+03  0.15132613362E+03  0.00000000000E+00 0.  1.
         23    2    1    2    0    0  0.73842245735E+02 -0.47801932938E+02  0.13938228360E+03  0.20685952434E+03  0.12500295909E+03 0.  0.
          5    1    3    3  502    0  0.58092021222E+01 -0.36049964960E+02 -0.13365785856E+02  0.39167346533E+02  0.47000000000E+01 0. -1.
         -5    1    3    3    0  502  0.68033043613E+02 -0.11751967978E+02  0.15274806946E+03  0.16769217781E+03  0.47000000000E+01 0. -1.
        -11    1    1    2    0    0 -0.17455823225E+02 -0.85935364603E+01  0.16454496227E+02  0.25481465410E+02  0.00000000000E+00 0. -1.
         11    1    1    2    0    0 -0.56386422510E+02  0.56395469398E+02 -0.99012714828E+02  0.12713534249E+03  0.00000000000E+00 0.  1.
<mgrwt>
<rscale>  0 0.14632141E+03</rscale>
<asrwt>0</asrwt>
<pdfrwt beam="1">  1        1 0.32023108E-01 0.15285104E+03</pdfrwt>
<pdfrwt beam="2">  1       -1 0.23280944E-01 0.15285104E+03</pdfrwt>
<totfact> 0.21407182E+03</totfact>
</mgrwt>
</event>
<event>
 7    1  0.5928109E-006  0.2162764E+03  0.7546771E-02  0.1138322E+00
          2   -1    0    0  501    0  0.00000000000E+00  0.00000000000E+00  0.20785996087E+03  0.20785996087E+03  0.00000000000E+00 0.  1.
         -2   -1    0    0    0  501 -0.00000000000E+00 -0.00000000000E+00 -0.22075809016E+03  0.22075809016E+03  0.00000000000E+00 0. -1.
         23    2    1    2    0    0  0.96136393836E+02  0.14801579353E+03  0.23555162338E+02  0.21755532049E+03  0.12499836176E+03 0.  0.
          5    1    3    3  502    0  0.20148690943E+02  0.57942609124E+02  0.67833346658E+02  0.91579302343E+02  0.47000000000E+01 0. -1.
         -5    1    3    3    0  502  0.75987702894E+02  0.90073184409E+02 -0.44278184319E+02  0.12597601814E+03  0.47000000000E+01 0. -1.
        -11    1    1    2    0    0 -0.77012888488E+00 -0.96456495316E+02  0.69801909739E+00  0.96462095239E+02  0.00000000000E+00 0.  1.
         11    1    1    2    0    0 -0.95366264951E+02 -0.51559298216E+02 -0.37151310727E+02  0.11460063530E+03  0.00000000000E+00 0. -1.
<mgrwt>
<rscale>  0 0.21414882E+03</rscale>
<asrwt>0</asrwt>
<pdfrwt beam="1">  1        2 0.31978456E-01 0.21627638E+03</pdfrwt>
<pdfrwt beam="2">  1       -2 0.33962783E-01 0.21627638E+03</pdfrwt>
<totfact> 0.13206421E+03</totfact>
</mgrwt>
</event>
<event>
 7    1  0.5928109E-006  0.1327958E+03  0.7546771E-02  0.1245215E+00
          2   -1    0    0  501    0  0.00000000000E+00  0.00000000000E+00  0.14554906586E+03  0.14554906586E+03  0.00000000000E+00 0. -1.
         -2   -1    0    0    0  501 -0.00000000000E+00 -0.00000000000E+00 -0.82624629386E+02  0.82624629386E+02  0.00000000000E+00 0.  1.
         23    2    1    2    0    0  0.28661075441E+02 -0.34462316762E+02  0.52063697881E+02  0.14263715362E+03  0.12500248171E+03 0.  0.
          5    1    3    3  502    0  0.46035360663E+02 -0.42361363813E+01  0.83434713681E+02  0.95502045684E+02  0.47000000000E+01 0. -1.
         -5    1    3    3    0  502 -0.17374285223E+02 -0.30226180381E+02 -0.31371015801E+02  0.47135107932E+02  0.47000000000E+01 0. -1.
        -11    1    1    2    0    0  0.12430362861E+02 -0.15683758055E+02  0.26574075179E+01  0.20188016304E+02  0.00000000000E+00 0.  1.
         11    1    1    2    0    0 -0.41091438302E+02  0.50146074817E+02  0.82033310743E+01  0.65348525324E+02  0.00000000000E+00 0. -1.
<mgrwt>
<rscale>  0 0.11872547E+03</rscale>
<asrwt>0</asrwt>
<pdfrwt beam="1">  1        2 0.22392164E-01 0.13279582E+03</pdfrwt>
<pdfrwt beam="2">  1       -2 0.12711481E-01 0.13279582E+03</pdfrwt>
<totfact> 0.10302902E+04</totfact>
</mgrwt>
</event>
<event>
 7    1  0.5928109E-006  0.1689792E+03  0.7546771E-02  0.1185597E+00
          1   -1    0    0  501    0  0.00000000000E+00  0.00000000000E+00  0.11165298695E+04  0.11165298695E+04  0.00000000000E+00 0. -1.
         -1   -1    0    0    0  501 -0.00000000000E+00 -0.00000000000E+00 -0.23710014067E+02  0.23710014067E+02  0.00000000000E+00 0.  1.
         23    2    1    2    0    0 -0.90950793256E+02  0.68239784426E+02  0.73063678657E+03  0.74992271120E+03  0.12500097566E+03 0.  0.
          5    1    3    3  502    0 -0.42673917972E+01 -0.34151611448E+02  0.14823619224E+03  0.15225177138E+03  0.47000000000E+01 0.  1.
         -5    1    3    3    0  502 -0.86683401459E+02  0.10239139587E+03  0.58240059432E+03  0.59767093982E+03  0.47000000000E+01 0.  1.
        -11    1    1    2    0    0  0.79755645502E+02 -0.88847722491E+02  0.27041381269E+03  0.29559856372E+03  0.00000000000E+00 0.  1.
         11    1    1    2    0    0  0.11195147755E+02  0.20607938065E+02  0.91769256207E+02  0.94718608675E+02  0.00000000000E+00 0. -1.
<mgrwt>
<rscale>  0 0.16277674E+03</rscale>
<asrwt>0</asrwt>
<pdfrwt beam="1">  1        1 0.17177379E+00 0.16897917E+03</pdfrwt>
<pdfrwt beam="2">  1       -1 0.36476953E-02 0.16897917E+03</pdfrwt>
<totfact> 0.36643191E+03</totfact>
</mgrwt>
</event>
<event>
 7    1  0.5928109E-006  0.1343754E+03  0.7546771E-02  0.1233975E+00
         -1   -1    0    0    0  501 -0.00000000000E+00  0.00000000000E+00  0.22693484755E+03  0.22693484755E+03  0.00000000000E+00 0.  1.
          1   -1    0    0  501    0  0.00000000000E+00 -0.00000000000E+00 -0.14132687147E+03  0.14132687147E+03  0.00000000000E+00 0. -1.
         23    2    1    2    0    0 -0.34969599839E+02  0.34745239941E+02 -0.92102304155E+02  0.16290970445E+03  0.12500653088E+03 0.  0.
          5    1    3    3  502    0 -0.79040467389E+02  0.29928420385E+02 -0.37945399746E+02  0.92763404388E+02  0.47000000000E+01 0.  1.
         -5    1    3    3    0  502  0.44070867550E+02  0.48168195557E+01 -0.54156904409E+02  0.70146300062E+02  0.47000000000E+01 0.  1.
        -11    1    1    2    0    0  0.59567378980E+02 -0.31713043682E+02  0.16327361033E+03  0.17666992277E+03  0.00000000000E+00 0.  1.
         11    1    1    2    0    0 -0.24597779141E+02 -0.30321962583E+01  0.14436669903E+02  0.28682091812E+02  0.00000000000E+00 0. -1.
<mgrwt>
<rscale>  0 0.12570254E+03</rscale>
<asrwt>0</asrwt>
<pdfrwt beam="2">  1        1 0.21742596E-01 0.13437536E+03</pdfrwt>
<pdfrwt beam="1">  1       -1 0.34913054E-01 0.13437536E+03</pdfrwt>
<totfact> 0.17583408E+03</totfact>
</mgrwt>
</event>
<event>
 7    1  0.5928109E-006  0.1292242E+03  0.7546771E-02  0.1243263E+00
         -1   -1    0    0    0  501 -0.00000000000E+00  0.00000000000E+00  0.12459682220E+03  0.12459682220E+03  0.00000000000E+00 0.  1.
          1   -1    0    0  501    0  0.00000000000E+00 -0.00000000000E+00 -0.15729903323E+03  0.15729903323E+03  0.00000000000E+00 0. -1.
         23    2    1    2    0    0  0.13862128554E+02 -0.29823996277E+02 -0.10121265192E+03  0.16414290305E+03  0.12496904557E+03 0.  0.
          5    1    3    3  502    0  0.64073599711E+02 -0.40123772688E+02 -0.74114391313E+02  0.10597346986E+03  0.47000000000E+01 0.  1.
         -5    1    3    3    0  502 -0.50211471157E+02  0.10299776411E+02 -0.27098260603E+02  0.58169433189E+02  0.47000000000E+01 0.  1.
        -11    1    1    2    0    0  0.11297399018E+02  0.30310586367E+02  0.82744001612E+02  0.88842178458E+02  0.00000000000E+00 0.  1.
         11    1    1    2    0    0 -0.25159527571E+02 -0.48659009002E+00 -0.14233560731E+02  0.28910773919E+02  0.00000000000E+00 0. -1.
<mgrwt>
<rscale>  0 0.11989921E+03</rscale>
<asrwt>0</asrwt>
<pdfrwt beam="2">  1        1 0.24199851E-01 0.12922419E+03</pdfrwt>
<pdfrwt beam="1">  1       -1 0.19168742E-01 0.12922419E+03</pdfrwt>
<totfact> 0.41262579E+03</totfact>
</mgrwt>
</event>
<event>
 7    1  0.5928109E-006  0.1285052E+03  0.7546771E-02  0.1249747E+00
          2   -1    0    0  501    0  0.00000000000E+00  0.00000000000E+00  0.11484582614E+04  0.11484582614E+04  0.00000000000E+00 0. -1.
         -2   -1    0    0    0  501 -0.00000000000E+00 -0.00000000000E+00 -0.11410938085E+02  0.11410938085E+02  0.00000000000E+00 0.  1.
         23    2    1    2    0    0 -0.23398405466E+02  0.18485180431E+02  0.87086138473E+03  0.88029150893E+03  0.12499760806E+03 0.  0.
          5    1    3    3  502    0  0.40514799077E+02  0.13562333528E+02  0.61428579372E+03  0.61578771683E+03  0.47000000000E+01 0.  1.
         -5    1    3    3    0  502 -0.63913204543E+02  0.49228469034E+01  0.25657559101E+03  0.26450379210E+03  0.47000000000E+01 0.  1.
        -11    1    1    2    0    0  0.21153812834E+02 -0.44416205204E+02  0.22876425704E+03  0.23399437681E+03  0.00000000000E+00 0. -1.
         11    1    1    2    0    0  0.22445926325E+01  0.25931024773E+02  0.37421681593E+02  0.45583313779E+02  0.00000000000E+00 0.  1.
<mgrwt>
<rscale>  0 0.11605686E+03</rscale>
<asrwt>0</asrwt>
<pdfrwt beam="1">  1        2 0.17668579E+00 0.12850521E+03</pdfrwt>
<pdfrwt beam="2">  1       -2 0.17555298E-02 0.12850521E+03</pdfrwt>
<totfact> 0.19123715E+04</totfact>
</mgrwt>
</event>
<event>
 7    1  0.5928109E-006  0.3551788E+03  0.7546771E-02  0.1061572E+00
          2   -1    0    0  501    0  0.00000000000E+00  0.00000000000E+00  0.21160399833E+04  0.21160399833E+04  0.00000000000E+00 0. -1.
         -2   -1    0    0    0  501 -0.00000000000E+00 -0.00000000000E+00 -0.58124197611E+02  0.58124197611E+02  0.00000000000E+00 0.  1.
         23    2    1    2    0    0  0.17522803357E+03  0.28252988716E+03  0.97468618361E+03  0.10373837972E+04  0.12499594073E+03 0.  0.
          5    1    3    3  502    0 -0.25839533684E+01 -0.97768021688E+01  0.54705850805E+02  0.55830840832E+02  0.47000000000E+01 0. -1.
         -5    1    3    3    0  502  0.17781198693E+03  0.29230668933E+03  0.91998033281E+03  0.98155295633E+03  0.47000000000E+01 0. -1.
        -11    1    1    2    0    0 -0.10003967657E+03 -0.21779518913E+03  0.85413597541E+03  0.88712510154E+03  0.00000000000E+00 0.  1.
         11    1    1    2    0    0 -0.75188356998E+02 -0.64734698033E+02  0.22909362671E+03  0.24965528225E+03  0.00000000000E+00 0. -1.
<mgrwt>
<rscale>  0 0.35255378E+03</rscale>
<asrwt>0</asrwt>
<pdfrwt beam="1">  1        2 0.32554455E+00 0.35517881E+03</pdfrwt>
<pdfrwt beam="2">  1       -2 0.89421859E-02 0.35517881E+03</pdfrwt>
<totfact> 0.50551175E+02</totfact>
</mgrwt>
</event>
<event>
 6    1  0.5928109E-006  0.2167099E+03  0.7546771E-02  0.1142744E+00
          1   -1    0    0  501    0  0.00000000000E+00  0.00000000000E+00  0.10043660179E+04  0.10043660179E+04  0.00000000000E+00 0. -1.
         -1   -1    0    0    0  501 -0.00000000000E+00 -0.00000000000E+00 -0.90286318396E+02  0.90286318396E+02  0.00000000000E+00 0.  1.
          5    1    1    2  502    0 -0.17728252801E+03 -0.21014036781E+01  0.80796607080E+03  0.82720298126E+03  0.47000000000E+01 0. -1.
         -5    1    1    2    0  502  0.18949980197E+02  0.26053304820E+02  0.71401299998E+02  0.78473639414E+02  0.47000000000E+01 0.  1.
        -11    1    1    2    0    0  0.13653940075E+03 -0.50322310155E+02  0.82965646575E+01  0.14575381930E+03  0.00000000000E+00 0.  1.
         11    1    1    2    0    0  0.21793147066E+02  0.26370409013E+02  0.26415764010E+02  0.43221896289E+02  0.00000000000E+00 0. -1.
<mgrwt>
<rscale>  0 0.20851976E+03</rscale>
<asrwt>0</asrwt>
<pdfrwt beam="1">  1        1 0.15451784E+00 0.21670987E+03</pdfrwt>
<pdfrwt beam="2">  1       -1 0.13890204E-01 0.21670987E+03</pdfrwt>
<totfact> 0.58164595E+02</totfact>
</mgrwt>
</event>
<event>
 7    1  0.5928109E-006  0.1704077E+03  0.7546771E-02  0.1183959E+00
          3   -1    0    0  501    0  0.00000000000E+00  0.00000000000E+00  0.55635992333E+03  0.55635992333E+03  0.00000000000E+00 0. -1.
         -3   -1    0    0    0  501 -0.00000000000E+00 -0.00000000000E+00 -0.45322173924E+02  0.45322173924E+02  0.00000000000E+00 0.  1.
         23    2    1    2    0    0 -0.84662059257E+02  0.79029826658E+02  0.27025115285E+03  0.31949094372E+03  0.12500159888E+03 0.  0.
          5    1    3    3  502    0 -0.69263030488E+02 -0.16129935578E+02  0.87801698836E+02  0.11308744640E+03  0.47000000000E+01 0.  1.
         -5    1    3    3    0  502 -0.15399028768E+02  0.95159762237E+02  0.18244945402E+03  0.20640349732E+03  0.47000000000E+01 0.  1.
        -11    1    1    2    0    0  0.29684453172E+01 -0.61644769695E+02  0.12520855221E+03  0.13959251715E+03  0.00000000000E+00 0.  1.
         11    1    1    2    0    0  0.81693613939E+02 -0.17385056963E+02  0.11557804435E+03  0.14259863639E+03  0.00000000000E+00 0. -1.
<mgrwt>
<rscale>  0 0.16427001E+03</rscale>
<asrwt>0</asrwt>
<pdfrwt beam="1">  1        3 0.85593829E-01 0.17040768E+03</pdfrwt>
<pdfrwt beam="2">  1       -3 0.69726425E-02 0.17040768E+03</pdfrwt>
<totfact> 0.41140815E+02</totfact>
</mgrwt>
</event>
<event>
 7    1  0.5928109E-006  0.1422582E+03  0.7546771E-02  0.1220552E+00
         -1   -1    0    0    0  501 -0.00000000000E+00  0.00000000000E+00  0.10014625727E+03  0.10014625727E+03  0.00000000000E+00 0.  1.
          1   -1    0    0  501    0  0.00000000000E+00 -0.00000000000E+00 -0.18446177089E+03  0.18446177089E+03  0.00000000000E+00 0. -1.
         23    2    1    2    0    0 -0.49987722126E+02  0.45985133377E+02 -0.92593605204E+02  0.16973794144E+03  0.12499595267E+03 0.  0.
          5    1    3    3  502    0 -0.65204848592E+02 -0.23487760373E+02 -0.33350928394E+02  0.77056612902E+02  0.47000000000E+01 0. -1.
         -5    1    3    3    0  502  0.15217126466E+02  0.69472893750E+02 -0.59242676809E+02  0.92681328537E+02  0.47000000000E+01 0. -1.
        -11    1    1    2    0    0  0.20132134957E+02 -0.40689284240E+02  0.47228253489E+02  0.65508996615E+02  0.00000000000E+00 0.  1.
         11    1    1    2    0    0  0.29855587169E+02 -0.52958491362E+01 -0.38950161905E+02  0.49361090098E+02  0.00000000000E+00 0. -1.
<mgrwt>
<rscale>  0 0.13476498E+03</rscale>
<asrwt>0</asrwt>
<pdfrwt beam="2">  1        1 0.28378734E-01 0.14225819E+03</pdfrwt>
<pdfrwt beam="1">  1       -1 0.15407117E-01 0.14225819E+03</pdfrwt>
<totfact> 0.48044680E+03</totfact>
</mgrwt>
</event>
<event>
 7    1  0.5928109E-006  0.2351790E+03  0.7546771E-02  0.1125500E+00
         -1   -1    0    0    0  501 -0.00000000000E+00  0.00000000000E+00  0.63049347190E+02  0.63049347190E+02  0.00000000000E+00 0.  1.
          1   -1    0    0  501    0  0.00000000000E+00 -0.00000000000E+00 -0.83579811737E+03  0.83579811737E+03  0.00000000000E+00 0. -1.
         23    2    1    2    0    0 -0.19791538409E+03 -0.22644491122E+02 -0.34982912962E+03  0.42153242350E+03  0.12500356752E+03 0.  0.
          5    1    3    3  502    0 -0.11079895004E+03 -0.32839695214E+02 -0.87906382086E+02  0.14527379297E+03  0.47000000000E+01 0.  1.
         -5    1    3    3    0  502 -0.87116434049E+02  0.10195204092E+02 -0.26192274754E+03  0.27625863054E+03  0.47000000000E+01 0.  1.
        -11    1    1    2    0    0  0.16167623896E+02  0.23293910354E+02 -0.18292349523E+02  0.33743271523E+02  0.00000000000E+00 0.  1.
         11    1    1    2    0    0  0.18174776019E+03 -0.64941923195E+00 -0.40462729103E+03  0.44357176954E+03  0.00000000000E+00 0. -1.
<mgrwt>
<rscale>  0 0.23162672E+03</rscale>
<asrwt>0</asrwt>
<pdfrwt beam="2">  1        1 0.12858431E+00 0.23517900E+03</pdfrwt>
<pdfrwt beam="1">  1       -1 0.96999006E-02 0.23517900E+03</pdfrwt>
<totfact> 0.13751966E+03</totfact>
</mgrwt>
</event>
<event>
 7    1  0.5928109E-006  0.1252873E+03  0.7546771E-02  0.1249070E+00
          2   -1    0    0  501    0  0.00000000000E+00  0.00000000000E+00  0.89058564107E+03  0.89058564107E+03  0.00000000000E+00 0. -1.
         -2   -1    0    0    0  501 -0.00000000000E+00 -0.00000000000E+00 -0.14419340806E+02  0.14419340806E+02  0.00000000000E+00 0.  1.
         23    2    1    2    0    0  0.84942123913E+01 -0.39751274377E+00  0.61425480499E+03  0.62690181115E+03  0.12499842283E+03 0.  0.
          5    1    3    3  502    0  0.59252772402E+02 -0.21786982641E+02  0.42666943908E+03  0.43134031100E+03  0.47000000000E+01 0. -1.
         -5    1    3    3    0  502 -0.50758560010E+02  0.21389469898E+02  0.18758536591E+03  0.19556150015E+03  0.47000000000E+01 0. -1.
        -11    1    1    2    0    0  0.21436273803E+02 -0.27979051365E+02  0.20390305678E+03  0.20692703476E+03  0.00000000000E+00 0. -1.
         11    1    1    2    0    0 -0.29930486195E+02  0.28376564108E+02  0.58008438484E+02  0.71176135957E+02  0.00000000000E+00 0.  1.
<mgrwt>
<rscale>  0 0.11645082E+03</rscale>
<asrwt>0</asrwt>
<pdfrwt beam="1">  1        2 0.13701313E+00 0.12528733E+03</pdfrwt>
<pdfrwt beam="2">  1       -2 0.22183608E-02 0.12528733E+03</pdfrwt>
<totfact> 0.19330391E+04</totfact>
</mgrwt>
</event>
<event>
 7    1  0.5928109E-006  0.1252887E+03  0.7546771E-02  0.1249956E+00
          1   -1    0    0  501    0  0.00000000000E+00  0.00000000000E+00  0.89573531494E+02  0.89573531494E+02  0.00000000000E+00 0. -1.
         -1   -1    0    0    0  501 -0.00000000000E+00 -0.00000000000E+00 -0.18937809464E+03  0.18937809464E+03  0.00000000000E+00 0.  1.
         23    2    1    2    0    0  0.40694893895E+01 -0.74915493616E+01  0.21157078148E+02  0.12706252989E+03  0.12499832196E+03 0.  0.
          5    1    3    3  502    0  0.63650433383E+02  0.56425101329E+01  0.95814221373E+01  0.64785100452E+02  0.47000000000E+01 0. -1.
         -5    1    3    3    0  502 -0.59580943993E+02 -0.13134059495E+02  0.11575656010E+02  0.62277429443E+02  0.47000000000E+01 0. -1.
        -11    1    1    2    0    0 -0.26628954766E+02  0.30846390583E+02 -0.11049945189E+03  0.11777406299E+03  0.00000000000E+00 0.  1.
         11    1    1    2    0    0  0.22559465376E+02 -0.23354841221E+02 -0.10462189397E+02  0.34115033248E+02  0.00000000000E+00 0. -1.
<mgrwt>
<rscale>  0 0.11593582E+03</rscale>
<asrwt>0</asrwt>
<pdfrwt beam="1">  1        1 0.13780544E-01 0.12528872E+03</pdfrwt>
<pdfrwt beam="2">  1       -1 0.29135091E-01 0.12528872E+03</pdfrwt>
<totfact> 0.42681966E+03</totfact>
</mgrwt>
</event>
<event>
 6    1  0.5928109E-006  0.2476305E+03  0.7546771E-02  0.1144483E+00
          2   -1    0    0  501    0  0.00000000000E+00  0.00000000000E+00  0.54357162814E+03  0.54357162814E+03  0.00000000000E+00 0. -1.
         -2   -1    0    0    0  501 -0.00000000000E+00 -0.00000000000E+00 -0.16446382613E+03  0.16446382613E+03  0.00000000000E+00 0.  1.
          5    1    1    2  502    0 -0.90155433396E+02 -0.12568470244E+03  0.24076205168E+03  0.28620465078E+03  0.47000000000E+01 0. -1.
         -5    1    1    2    0  502  0.30349149485E+02  0.77983488571E+02  0.24672009428E+03  0.26056743904E+03  0.47000000000E+01 0.  1.
        -11    1    1    2    0    0  0.61421286683E+02  0.70765660104E+02 -0.99002494733E+02  0.13631524886E+03  0.00000000000E+00 0.  1.
         11    1    1    2    0    0 -0.16150027724E+01 -0.23064446234E+02 -0.93718492110E+01  0.24948115593E+02  0.00000000000E+00 0. -1.
<mgrwt>
<rscale>  0 0.20635804E+03</rscale>
<asrwt>0</asrwt>
<pdfrwt beam="1">  1        2 0.83626404E-01 0.24763052E+03</pdfrwt>
<pdfrwt beam="2">  1       -2 0.25302127E-01 0.24763052E+03</pdfrwt>
<totfact> 0.78986922E+02</totfact>
</mgrwt>
</event>
<event>
 7    1  0.5928109E-006  0.1291114E+03  0.7546771E-02  0.1239141E+00
          1   -1    0    0  501    0  0.00000000000E+00  0.00000000000E+00  0.23688127095E+03  0.23688127095E+03  0.00000000000E+00 0. -1.
         -1   -1    0    0    0  501 -0.00000000000E+00 -0.00000000000E+00 -0.27275963832E+03  0.27275963832E+03  0.00000000000E+00 0.  1.
         23    2    1    2    0    0  0.53715427347E+01 -0.50554021816E+02  0.20774360677E+03  0.24459588905E+03  0.11868100181E+03 0.  0.
          5    1    3    3  502    0  0.44772765596E+01 -0.33272354511E+02  0.22017954815E+03  0.22277391904E+03  0.47000000000E+01 0. -1.
         -5    1    3    3    0  502  0.89426617513E+00 -0.17281667306E+02 -0.12435941382E+02  0.21821970006E+02  0.47000000000E+01 0.  1.
        -11    1    1    2    0    0  0.23745354904E+02  0.33166701272E+02 -0.21991765392E+03  0.22366860857E+03  0.00000000000E+00 0.  1.
         11    1    1    2    0    0 -0.29116897639E+02  0.17387320544E+02 -0.23704320220E+02  0.41376411649E+02  0.00000000000E+00 0. -1.
<mgrwt>
<rscale>  0 0.12242995E+03</rscale>
<asrwt>0</asrwt>
<pdfrwt beam="1">  1        1 0.36443273E-01 0.12911136E+03</pdfrwt>
<pdfrwt beam="2">  1       -1 0.41963021E-01 0.12911136E+03</pdfrwt>
<totfact> 0.66984242E+02</totfact>
</mgrwt>
</event>
<event>
 7    1  0.5928109E-006  0.1443922E+03  0.7546771E-02  0.1217539E+00
         -1   -1    0    0    0  501 -0.00000000000E+00  0.00000000000E+00  0.26791777424E+03  0.26791777424E+03  0.00000000000E+00 0.  1.
          1   -1    0    0  501    0  0.00000000000E+00 -0.00000000000E+00 -0.68507864935E+02  0.68507864935E+02  0.00000000000E+00 0. -1.
         23    2    1    2    0    0  0.71984949861E+02  0.65671988912E+01  0.64843630506E+02  0.15828393179E+03  0.12499658210E+03 0.  0.
          5    1    3    3  502    0  0.78479562395E+02  0.23947966591E+02 -0.83680787027E+01  0.82611509844E+02  0.47000000000E+01 0.  1.
         -5    1    3    3    0  502 -0.64946125336E+01 -0.17380767700E+02  0.73211709208E+02  0.75672421945E+02  0.47000000000E+01 0.  1.
        -11    1    1    2    0    0  0.17282383293E+02  0.95965935108E+01  0.51400349506E+02  0.55070602944E+02  0.00000000000E+00 0.  1.
         11    1    1    2    0    0 -0.89267333154E+02 -0.16163792402E+02  0.83165929291E+02  0.12307110444E+03  0.00000000000E+00 0. -1.
<mgrwt>
<rscale>  0 0.13691637E+03</rscale>
<asrwt>0</asrwt>
<pdfrwt beam="2">  1        1 0.10539672E-01 0.14439220E+03</pdfrwt>
<pdfrwt beam="1">  1       -1 0.41218119E-01 0.14439220E+03</pdfrwt>
<totfact> 0.33744252E+03</totfact>
</mgrwt>
</event>
<event>
 7    1  0.5928109E-006  0.3379107E+03  0.7546771E-02  0.1068899E+00
          2   -1    0    0  501    0  0.00000000000E+00  0.00000000000E+00  0.27286082576E+04  0.27286082576E+04  0.00000000000E+00 0. -1.
         -2   -1    0    0    0  501 -0.00000000000E+00 -0.00000000000E+00 -0.44136710423E+02  0.44136710423E+02  0.00000000000E+00 0.  1.
         23    2    1    2    0    0 -0.50217178533E+02 -0.30988430950E+03  0.17613987678E+04  0.17935186734E+04  0.12503424506E+03 0.  0.
          5    1    3    3  502    0 -0.15401610943E+02 -0.40414997805E+02  0.87651671493E+02  0.97854418310E+02  0.47000000000E+01 0.  1.
         -5    1    3    3    0  502 -0.34815567590E+02 -0.26946931169E+03  0.16737470963E+04  0.16956642551E+04  0.47000000000E+01 0.  1.
        -11    1    1    2    0    0  0.70448517300E+02  0.28139158827E+03  0.78762760619E+03  0.83934585575E+03  0.00000000000E+00 0. -1.
         11    1    1    2    0    0 -0.20231338767E+02  0.28492721230E+02  0.13544517322E+03  0.13988043887E+03  0.00000000000E+00 0.  1.
<mgrwt>
<rscale>  0 0.33510691E+03</rscale>
<asrwt>0</asrwt>
<pdfrwt beam="1">  1        2 0.41978575E+00 0.33791066E+03</pdfrwt>
<pdfrwt beam="2">  1       -2 0.67902653E-02 0.33791066E+03</pdfrwt>
<totfact> 0.36035298E+02</totfact>
</mgrwt>
</event>
<event>
 7    1  0.5928109E-006  0.1371232E+03  0.7546771E-02  0.1229264E+00
         -1   -1    0    0    0  501 -0.00000000000E+00  0.00000000000E+00  0.66298730015E+02  0.66298730015E+02  0.00000000000E+00 0.  1.
          1   -1    0    0  501    0  0.00000000000E+00 -0.00000000000E+00 -0.34291248068E+03  0.34291248068E+03  0.00000000000E+00 0. -1.
         23    2    1    2    0    0 -0.58999819295E+01 -0.56061400953E+02 -0.26936762474E+03  0.30226095228E+03  0.12500030221E+03 0.  0.
          5    1    3    3  502    0 -0.46363063968E+02 -0.72132611657E+02 -0.12698884914E+03  0.15330004948E+03  0.47000000000E+01 0. -1.
         -5    1    3    3    0  502  0.40463082039E+02  0.16071210704E+02 -0.14237877560E+03  0.14896090280E+03  0.47000000000E+01 0. -1.
        -11    1    1    2    0    0  0.83739113309E+01 -0.12811631921E+02  0.26202043375E+02  0.30344808131E+02  0.00000000000E+00 0.  1.
         11    1    1    2    0    0 -0.24739294014E+01  0.68873032874E+02 -0.33448169305E+02  0.76605450288E+02  0.00000000000E+00 0. -1.
<mgrwt>
<rscale>  0 0.12878902E+03</rscale>
<asrwt>0</asrwt>
<pdfrwt beam="2">  1        1 0.52755766E-01 0.13712318E+03</pdfrwt>
<pdfrwt beam="1">  1       -1 0.10199805E-01 0.13712318E+03</pdfrwt>
<totfact> 0.42093439E+03</totfact>
</mgrwt>
</event>
<event>
 7    1  0.5928109E-006  0.1500221E+03  0.7546771E-02  0.1209783E+00
         -3   -1    0    0    0  501 -0.00000000000E+00  0.00000000000E+00  0.29187511078E+02  0.29187511078E+02  0.00000000000E+00 0.  1.
          3   -1    0    0  501    0  0.00000000000E+00 -0.00000000000E+00 -0.64058579974E+03  0.64058579974E+03  0.00000000000E+00 0. -1.
         23    2    1    2    0    0 -0.16425832230E+00 -0.82960828900E+02 -0.36085851818E+03  0.39080110803E+03  0.12499643907E+03 0.  0.
          5    1    3    3  502    0 -0.33009561536E+02 -0.10027770337E+03 -0.20648737212E+03  0.23195769828E+03  0.47000000000E+01 0.  1.
         -5    1    3    3    0  502  0.32845303214E+02  0.17316874470E+02 -0.15437114606E+03  0.15884340975E+03  0.47000000000E+01 0.  1.
        -11    1    1    2    0    0 -0.37090179207E+02  0.81312498732E+01 -0.96726880544E+02  0.10391288677E+03  0.00000000000E+00 0. -1.
         11    1    1    2    0    0  0.37254437529E+02  0.74829579027E+02 -0.15381288994E+03  0.17505931602E+03  0.00000000000E+00 0.  1.
<mgrwt>
<rscale>  0 0.14266837E+03</rscale>
<asrwt>0</asrwt>
<pdfrwt beam="2">  1        3 0.98551660E-01 0.15002212E+03</pdfrwt>
<pdfrwt beam="1">  1       -3 0.44903864E-02 0.15002212E+03</pdfrwt>
<totfact> 0.59622300E+02</totfact>
</mgrwt>
</event>
<event>
 7    1  0.5928109E-006  0.1419935E+03  0.7546771E-02  0.1221026E+00
          2   -1    0    0  501    0  0.00000000000E+00  0.00000000000E+00  0.25078830162E+03  0.25078830162E+03  0.00000000000E+00 0. -1.
         -2   -1    0    0    0  501 -0.00000000000E+00 -0.00000000000E+00 -0.11598574258E+03  0.11598574258E+03  0.00000000000E+00 0.  1.
         23    2    1    2    0    0 -0.65168862203E+02  0.16657806903E+02  0.19228886197E+03  0.23903383379E+03  0.12505080618E+03 0.  0.
          5    1    3    3  502    0 -0.41436939587E+02  0.45674718632E+01 -0.28319900139E+01  0.42047496109E+02  0.47000000000E+01 0. -1.
         -5    1    3    3    0  502 -0.23731922616E+02  0.12090335040E+02  0.19512085199E+03  0.19698633768E+03  0.47000000000E+01 0. -1.
        -11    1    1    2    0    0  0.36640375559E+02 -0.45420546389E+02 -0.64107969012E+02  0.86691261648E+02  0.00000000000E+00 0.  1.
         11    1    1    2    0    0  0.28528486644E+02  0.28762739486E+02  0.66216660696E+01  0.41048948762E+02  0.00000000000E+00 0. -1.
<mgrwt>
<rscale>  0 0.13443061E+03</rscale>
<asrwt>0</asrwt>
<pdfrwt beam="1">  1        2 0.38582816E-01 0.14199355E+03</pdfrwt>
<pdfrwt beam="2">  1       -2 0.17843960E-01 0.14199355E+03</pdfrwt>
<totfact> 0.32876187E+03</totfact>
</mgrwt>
</event>
<event>
 7    1  0.5928109E-006  0.1479171E+03  0.7546771E-02  0.1213302E+00
         -1   -1    0    0    0  501 -0.00000000000E+00  0.00000000000E+00  0.23421707509E+02  0.23421707509E+02  0.00000000000E+00 0.  1.
          1   -1    0    0  501    0  0.00000000000E+00 -0.00000000000E+00 -0.92346015479E+03  0.92346015479E+03  0.00000000000E+00 0. -1.
         23    2    1    2    0    0 -0.69779804387E+02 -0.37219942860E+02 -0.68918229855E+03  0.70487708275E+03  0.12499966363E+03 0.  0.
          5    1    3    3  502    0 -0.51779652924E+02  0.28638673546E+02 -0.14917926203E+03  0.16055481400E+03  0.47000000000E+01 0. -1.
         -5    1    3    3    0  502 -0.18000151464E+02 -0.65858616405E+02 -0.54000303652E+03  0.54432226875E+03  0.47000000000E+01 0. -1.
        -11    1    1    2    0    0  0.17875239640E+02  0.36280974514E+02 -0.17323305253E+03  0.17789188793E+03  0.00000000000E+00 0. -1.
         11    1    1    2    0    0  0.51904564747E+02  0.93896834580E+00 -0.37623096201E+02  0.64112891613E+02  0.00000000000E+00 0.  1.
<mgrwt>
<rscale>  0 0.14001972E+03</rscale>
<asrwt>0</asrwt>
<pdfrwt beam="2">  1        1 0.14207082E+00 0.14791708E+03</pdfrwt>
<pdfrwt beam="1">  1       -1 0.36033390E-02 0.14791708E+03</pdfrwt>
<totfact> 0.51418048E+03</totfact>
</mgrwt>
</event>
<event>
 7    1  0.5928109E-006  0.1459711E+03  0.7546771E-02  0.1215675E+00
          2   -1    0    0  501    0  0.00000000000E+00  0.00000000000E+00  0.20171143714E+04  0.20171143714E+04  0.00000000000E+00 0. -1.
         -2   -1    0    0    0  501 -0.00000000000E+00 -0.00000000000E+00 -0.12577814008E+02  0.12577814008E+02  0.00000000000E+00 0.  1.
         23    2    1    2    0    0 -0.34170925122E+02 -0.67221684988E+02  0.16443758539E+04  0.16508420569E+04  0.12498456198E+03 0.  0.
          5    1    3    3  502    0 -0.76872099990E+02 -0.67759029155E+02  0.12146862312E+04  0.12190099819E+04  0.47000000000E+01 0.  1.
         -5    1    3    3    0  502  0.42701174868E+02  0.53734416646E+00  0.42968962269E+03  0.43183207491E+03  0.47000000000E+01 0.  1.
        -11    1    1    2    0    0  0.54369735057E+02  0.29622337080E+02  0.12111023963E+03  0.13601926734E+03  0.00000000000E+00 0.  1.
         11    1    1    2    0    0 -0.20198809934E+02  0.37599347908E+02  0.23905046388E+03  0.24283086123E+03  0.00000000000E+00 0. -1.
<mgrwt>
<rscale>  0 0.13827093E+03</rscale>
<asrwt>0</asrwt>
<pdfrwt beam="1">  1        2 0.31032503E+00 0.14597105E+03</pdfrwt>
<pdfrwt beam="2">  1       -2 0.19350499E-02 0.14597105E+03</pdfrwt>
<totfact> 0.58625173E+03</totfact>
</mgrwt>
</event>
<event>
 7    1  0.5928109E-006  0.1251950E+03  0.7546771E-02  0.1249473E+00
          2   -1    0    0  501    0  0.00000000000E+00  0.00000000000E+00  0.61962653278E+02  0.61962653278E+02  0.00000000000E+00 0. -1.
         -2   -1    0    0    0  501 -0.00000000000E+00 -0.00000000000E+00 -0.21022025719E+03  0.21022025719E+03  0.00000000000E+00 0.  1.
         23    2    1    2    0    0 -0.11647917007E+01 -0.72788508511E+01 -0.44490904652E+02  0.13286547221E+03  0.12497781683E+03 0.  0.
          5    1    3    3  502    0 -0.54839970900E+02  0.24911169502E+02 -0.33704419534E+02  0.69181404079E+02  0.47000000000E+01 0.  1.
         -5    1    3    3    0  502  0.53675179199E+02 -0.32190020353E+02 -0.10786485117E+02  0.63684068130E+02  0.47000000000E+01 0.  1.
        -11    1    1    2    0    0  0.16788726597E+02  0.28006730044E+02 -0.10816890332E+03  0.11299004343E+03  0.00000000000E+00 0. -1.
         11    1    1    2    0    0 -0.15623934897E+02 -0.20727879193E+02  0.44022040667E+01  0.26327394823E+02  0.00000000000E+00 0.  1.
<mgrwt>
<rscale>  0 0.11621601E+03</rscale>
<asrwt>0</asrwt>
<pdfrwt beam="1">  1        2 0.95327161E-02 0.12519502E+03</pdfrwt>
<pdfrwt beam="2">  1       -2 0.32341577E-01 0.12519502E+03</pdfrwt>
<totfact> 0.57106828E+03</totfact>
</mgrwt>
</event>
<event>
 7    1  0.5928109E-006  0.1382656E+03  0.7546771E-02  0.1226449E+00
         -2   -1    0    0    0  501 -0.00000000000E+00  0.00000000000E+00  0.19239979001E+02  0.19239979001E+02  0.00000000000E+00 0. -1.
          2   -1    0    0  501    0  0.00000000000E+00 -0.00000000000E+00 -0.83577740917E+03  0.83577740917E+03  0.00000000000E+00 0.  1.
         23    2    1    2    0    0 -0.55288103206E+02  0.20590454502E+02 -0.53645197377E+03  0.55398384440E+03  0.12504654544E+03 0.  0.
          5    1    3    3  502    0  0.10008039478E+02  0.59618295311E+02 -0.27758287379E+03  0.28412821720E+03  0.47000000000E+01 0. -1.
         -5    1    3    3    0  502 -0.65296142684E+02 -0.39027840810E+02 -0.25886909998E+03  0.26985562720E+03  0.47000000000E+01 0. -1.
        -11    1    1    2    0    0 -0.45040399138E+01 -0.15251894171E+02 -0.14095611127E+01  0.15965384865E+02  0.00000000000E+00 0. -1.
         11    1    1    2    0    0  0.59792143120E+02 -0.53385603304E+01 -0.27867589529E+03  0.28506815891E+03  0.00000000000E+00 0.  1.
<mgrwt>
<rscale>  0 0.13068081E+03</rscale>
<asrwt>0</asrwt>
<pdfrwt beam="2">  1        2 0.12858112E+00 0.13826561E+03</pdfrwt>
<pdfrwt beam="1">  1       -2 0.29599973E-02 0.13826561E+03</pdfrwt>
<totfact> 0.13856665E+04</totfact>
</mgrwt>
</event>
<event>
 7    1  0.5928109E-006  0.1486551E+03  0.7546771E-02  0.1210618E+00
          1   -1    0    0  501    0  0.00000000000E+00  0.00000000000E+00  0.13777391764E+03  0.13777391764E+03  0.00000000000E+00 0. -1.
         -1   -1    0    0    0  501 -0.00000000000E+00 -0.00000000000E+00 -0.14545781146E+03  0.14545781146E+03  0.00000000000E+00 0.  1.
         23    2    1    2    0    0 -0.34271681637E+02  0.72792944329E+02 -0.42378353533E+02  0.15457764836E+03  0.12499985448E+03 0.  0.
          5    1    3    3  502    0 -0.43093005580E+01  0.54727357569E+02 -0.83714377427E+02  0.10021896390E+03  0.47000000000E+01 0. -1.
         -5    1    3    3    0  502 -0.29962381079E+02  0.18065586761E+02  0.41336023893E+02  0.54358684460E+02  0.47000000000E+01 0. -1.
        -11    1    1    2    0    0 -0.17060850173E+02 -0.37156288001E+02  0.49731074131E+02  0.64380447971E+02  0.00000000000E+00 0.  1.
         11    1    1    2    0    0  0.51332531810E+02 -0.35636656328E+02 -0.15036614412E+02  0.64273632769E+02  0.00000000000E+00 0. -1.
<mgrwt>
<rscale>  0 0.14203384E+03</rscale>
<asrwt>0</asrwt>
<pdfrwt beam="1">  1        1 0.21195987E-01 0.14865505E+03</pdfrwt>
<pdfrwt beam="2">  1       -1 0.22378125E-01 0.14865505E+03</pdfrwt>
<totfact> 0.38302207E+03</totfact>
</mgrwt>
</event>
<event>
 7    1  0.5928109E-006  0.1279191E+03  0.7546771E-02  0.1247192E+00
         -2   -1    0    0    0  501 -0.00000000000E+00  0.00000000000E+00  0.24648922861E+02  0.24648922861E+02  0.00000000000E+00 0.  1.
          2   -1    0    0  501    0  0.00000000000E+00 -0.00000000000E+00 -0.56123421149E+03  0.56123421149E+03  0.00000000000E+00 0. -1.
         23    2    1    2    0    0  0.13458635229E+02  0.23573525510E+02 -0.41246305758E+03  0.43184379651E+03  0.12500577884E+03 0.  0.
          5    1    3    3  502    0  0.13033526965E+02 -0.37543262836E+01  0.36469010013E+01  0.14810728473E+02  0.47000000000E+01 0. -1.
         -5    1    3    3    0  502  0.42510826333E+00  0.27327851794E+02 -0.41610995859E+03  0.41703306804E+03  0.47000000000E+01 0. -1.
        -11    1    1    2    0    0 -0.18975969975E+02 -0.34587530076E+02 -0.13308236313E+03  0.13880670031E+03  0.00000000000E+00 0. -1.
         11    1    1    2    0    0  0.55173347466E+01  0.11014004566E+02  0.89601320868E+01  0.15232637536E+02  0.00000000000E+00 0.  1.
<mgrwt>
<rscale>  0 0.11755161E+03</rscale>
<asrwt>0</asrwt>
<pdfrwt beam="2">  1        2 0.86343716E-01 0.12791908E+03</pdfrwt>
<pdfrwt beam="1">  1       -2 0.37921424E-02 0.12791908E+03</pdfrwt>
<totfact> 0.15313008E+04</totfact>
</mgrwt>
</event>
<event>
 6    1  0.5928109E-006  0.2858864E+03  0.7546771E-02  0.1133506E+00
          2   -1    0    0  501    0  0.00000000000E+00  0.00000000000E+00  0.10522744330E+04  0.10522744330E+04  0.00000000000E+00 0. -1.
         -2   -1    0    0    0  501 -0.00000000000E+00 -0.00000000000E+00 -0.36107207038E+02  0.36107207038E+02  0.00000000000E+00 0.  1.
          5    1    1    2  502    0 -0.34093108372E+02 -0.11309642725E+03  0.56831344753E+03  0.58047860128E+03  0.47000000000E+01 0. -1.
         -5    1    1    2    0  502  0.79560523144E+02  0.11201735105E+03  0.23587678196E+03  0.27301595200E+03  0.47000000000E+01 0.  1.
        -11    1    1    2    0    0 -0.16716331660E+02 -0.44121356777E+02  0.11012018657E+03  0.11980227609E+03  0.00000000000E+00 0. -1.
         11    1    1    2    0    0 -0.28751083112E+02  0.45200432984E+02  0.10185680989E+03  0.11508481065E+03  0.00000000000E+00 0.  1.
<mgrwt>
<rscale>  0 0.22050599E+03</rscale>
<asrwt>0</asrwt>
<pdfrwt beam="1">  1        2 0.16188835E+00 0.28588639E+03</pdfrwt>
<pdfrwt beam="2">  1       -2 0.55549557E-02 0.28588639E+03</pdfrwt>
<totfact> 0.40618671E+03</totfact>
</mgrwt>
</event>
<event>
 7    1  0.5928109E-006  0.2159166E+03  0.7546771E-02  0.1140024E+00
         -2   -1    0    0    0  501 -0.00000000000E+00  0.00000000000E+00  0.52908675494E+02  0.52908675494E+02  0.00000000000E+00 0. -1.
          2   -1    0    0  501    0  0.00000000000E+00 -0.00000000000E+00 -0.97546560554E+03  0.97546560554E+03  0.00000000000E+00 0.  1.
         23    2    1    2    0    0  0.12971902046E+03  0.11905315441E+03 -0.68115152573E+03  0.71455397029E+03  0.12497718838E+03 0.  0.
          5    1    3    3  502    0  0.29949913869E+02  0.11093398179E+03 -0.33504246387E+03  0.35422999344E+03  0.47000000000E+01 0. -1.
         -5    1    3    3    0  502  0.99769106595E+02  0.81191726188E+01 -0.34610906186E+03  0.36032397685E+03  0.47000000000E+01 0. -1.
        -11    1    1    2    0    0 -0.86800017845E+02 -0.11624396094E+03 -0.13152036024E+03  0.19581753423E+03  0.00000000000E+00 0. -1.
         11    1    1    2    0    0 -0.42919002619E+02 -0.28091934716E+01 -0.10988504408E+03  0.11800277652E+03  0.00000000000E+00 0.  1.
<mgrwt>
<rscale>  0 0.21195893E+03</rscale>
<asrwt>0</asrwt>
<pdfrwt beam="2">  1        2 0.15007164E+00 0.21591659E+03</pdfrwt>
<pdfrwt beam="1">  1       -2 0.81397957E-02 0.21591659E+03</pdfrwt>
<totfact> 0.24917637E+03</totfact>
</mgrwt>
</event>
<event>
 7    1  0.5928109E-006  0.1250043E+03  0.7546771E-02  0.1253424E+00
         -1   -1    0    0    0  501 -0.00000000000E+00  0.00000000000E+00  0.12167142193E+02  0.12167142193E+02  0.00000000000E+00 0.  1.
          1   -1    0    0  501    0  0.00000000000E+00 -0.00000000000E+00 -0.13079788145E+04  0.13079788145E+04  0.00000000000E+00 0. -1.
         23    2    1    2    0    0  0.35892529835E+00 -0.99410952508E+00 -0.10874773196E+04  0.10946382898E+04  0.12499979051E+03 0.  0.
          5    1    3    3  502    0 -0.38998132733E+02 -0.45783705766E+02 -0.69717153762E+03  0.69977656787E+03  0.47000000000E+01 0.  1.
         -5    1    3    3    0  502  0.39357058031E+02  0.44789596241E+02 -0.39030578201E+03  0.39486172190E+03  0.47000000000E+01 0.  1.
        -11    1    1    2    0    0 -0.43238416920E+02  0.26976179339E+01 -0.99791843756E+02  0.10878993483E+03  0.00000000000E+00 0.  1.
         11    1    1    2    0    0  0.42879491622E+02 -0.17035084088E+01 -0.10854250890E+03  0.11671773208E+03  0.00000000000E+00 0. -1.
<mgrwt>
<rscale>  0 0.11395065E+03</rscale>
<asrwt>0</asrwt>
<pdfrwt beam="2">  1        1 0.20122746E+00 0.12500426E+03</pdfrwt>
<pdfrwt beam="1">  1       -1 0.18718685E-02 0.12500426E+03</pdfrwt>
<totfact> 0.70756858E+03</totfact>
</mgrwt>
</event>
<event>
 7    1  0.5928109E-006  0.1335871E+03  0.7546771E-02  0.1234021E+00
         -1   -1    0    0    0  501 -0.00000000000E+00  0.00000000000E+00  0.21124178912E+02  0.21124178912E+02  0.00000000000E+00 0.  1.
          1   -1    0    0  501    0  0.00000000000E+00 -0.00000000000E+00 -0.10463703185E+04  0.10463703185E+04  0.00000000000E+00 0. -1.
         23    2    1    2    0    0 -0.30209621278E+02  0.36196499607E+02 -0.87051633448E+03  0.88070664840E+03  0.12499081624E+03 0.  0.
          5    1    3    3  502    0  0.44523179718E+02  0.35967700312E+02 -0.31870886823E+03  0.32384166145E+03  0.47000000000E+01 0. -1.
         -5    1    3    3    0  502 -0.74732800996E+02  0.22879929480E+00 -0.55180746624E+03  0.55686498695E+03  0.47000000000E+01 0. -1.
        -11    1    1    2    0    0 -0.28039652152E+02 -0.28622777147E+02 -0.94565635495E+02  0.10270416195E+03  0.00000000000E+00 0. -1.
         11    1    1    2    0    0  0.58249273430E+02 -0.75737224595E+01 -0.60164169659E+02  0.84083687109E+02  0.00000000000E+00 0.  1.
<mgrwt>
<rscale>  0 0.12567305E+03</rscale>
<asrwt>0</asrwt>
<pdfrwt beam="2">  1        1 0.16098004E+00 0.13358709E+03</pdfrwt>
<pdfrwt beam="1">  1       -1 0.32498738E-02 0.13358709E+03</pdfrwt>
<totfact> 0.48331358E+03</totfact>
</mgrwt>
</event>
<event>
 7    1  0.5928109E-006  0.1271164E+03  0.7546771E-02  0.1247700E+00
          1   -1    0    0  501    0  0.00000000000E+00  0.00000000000E+00  0.40529622520E+02  0.40529622520E+02  0.00000000000E+00 0. -1.
         -1   -1    0    0    0  501 -0.00000000000E+00 -0.00000000000E+00 -0.35563341881E+03  0.35563341881E+03  0.00000000000E+00 0.  1.
         23    2    1    2    0    0  0.87280061559E+01 -0.21660674050E+02 -0.98466564728E+02  0.16079253778E+03  0.12495284288E+03 0.  0.
          5    1    3    3  502    0  0.16882397490E+02  0.13939231415E+02 -0.11731011602E+03  0.11942809903E+03  0.47000000000E+01 0. -1.
         -5    1    3    3    0  502 -0.81543913337E+01 -0.35599905465E+02  0.18843551296E+02  0.41364438744E+02  0.47000000000E+01 0. -1.
        -11    1    1    2    0    0  0.21367901291E+02 -0.13840556076E+02 -0.17565106342E+02  0.30930262832E+02  0.00000000000E+00 0. -1.
         11    1    1    2    0    0 -0.30095907447E+02  0.35501230126E+02 -0.19907212522E+03  0.20444024071E+03  0.00000000000E+00 0.  1.
<mgrwt>
<rscale>  0 0.11725223E+03</rscale>
<asrwt>0</asrwt>
<pdfrwt beam="1">  1        1 0.62353264E-02 0.12711639E+03</pdfrwt>
<pdfrwt beam="2">  1       -1 0.54712835E-01 0.12711639E+03</pdfrwt>
<totfact> 0.40541967E+03</totfact>
</mgrwt>
</event>
<event>
 7    1  0.7346711E-006  0.1948024E+03  0.7546771E-02  0.1158731E+00
          1   -1    0    0  501    0  0.00000000000E+00  0.00000000000E+00  0.27603249419E+03  0.27603249419E+03  0.00000000000E+00 0. -1.
         -1   -1    0    0    0  501 -0.00000000000E+00 -0.00000000000E+00 -0.13729919147E+03  0.13729919147E+03  0.00000000000E+00 0.  1.
         23    2    1    2    0    0 -0.12353934509E+03 -0.84030584326E+02  0.13697442238E+03  0.23813852773E+03  0.12499942845E+03 0.  0.
          5    1    3    3  502    0 -0.11367616081E+03 -0.72636392457E+02  0.41284590859E+02  0.14115531335E+03  0.47000000000E+01 0.  1.
         -5    1    3    3    0  502 -0.98631842782E+01 -0.11394191869E+02  0.95689831526E+02  0.96983214372E+02  0.47000000000E+01 0.  1.
        -11    1    1    2    0    0  0.80984847957E+02  0.10084603558E+03  0.37577415977E+01  0.12939315713E+03  0.00000000000E+00 0. -1.
         11    1    1    2    0    0  0.42554497132E+02 -0.16815451253E+02 -0.19988612615E+01  0.45800000800E+02  0.00000000000E+00 0.  1.
<mgrwt>
<rscale>  0 0.18970095E+03</rscale>
<asrwt>0</asrwt>
<pdfrwt beam="1">  1        1 0.42466538E-01 0.19480238E+03</pdfrwt>
<pdfrwt beam="2">  1       -1 0.21122953E-01 0.19480238E+03</pdfrwt>
<totfact> 0.17780250E+03</totfact>
</mgrwt>
</event>
<event>
 7    1  0.5928109E-006  0.1584361E+03  0.7546771E-02  0.1207168E+00
          1   -1    0    0  501    0  0.00000000000E+00  0.00000000000E+00  0.17901671343E+03  0.17901671343E+03  0.00000000000E+00 0. -1.
         -1   -1    0    0    0  501 -0.00000000000E+00 -0.00000000000E+00 -0.10096158129E+03  0.10096158129E+03  0.00000000000E+00 0.  1.
         23    2    1    2    0    0  0.55262784332E+02 -0.80129154660E+02  0.52226783996E+02  0.16682218350E+03  0.12500938838E+03 0.  0.
          5    1    3    3  502    0  0.66287793180E+02 -0.38497862099E+02 -0.22863475235E+02  0.80131051476E+02  0.47000000000E+01 0.  1.
         -5    1    3    3    0  502 -0.11025008848E+02 -0.41631292561E+02  0.75090259231E+02  0.86691132025E+02  0.47000000000E+01 0.  1.
        -11    1    1    2    0    0 -0.51581721462E+02  0.52880935203E+02 -0.21840310674E+01  0.73904244050E+02  0.00000000000E+00 0.  1.
         11    1    1    2    0    0 -0.36810628707E+01  0.27248219458E+02  0.28012379206E+02  0.39251867169E+02  0.00000000000E+00 0. -1.
<mgrwt>
<rscale>  0 0.14467899E+03</rscale>
<asrwt>0</asrwt>
<pdfrwt beam="1">  1        1 0.27541033E-01 0.15843612E+03</pdfrwt>
<pdfrwt beam="2">  1       -1 0.15532551E-01 0.15843612E+03</pdfrwt>
<totfact> 0.49557828E+03</totfact>
</mgrwt>
</event>
<event>
 7    1  0.5928109E-006  0.3133945E+03  0.7546771E-02  0.1080263E+00
         -4   -1    0    0    0  501 -0.00000000000E+00  0.00000000000E+00  0.87032730011E+02  0.87032730011E+02  0.00000000000E+00 0.  1.
          4   -1    0    0  501    0  0.00000000000E+00 -0.00000000000E+00 -0.12950135349E+04  0.12950135349E+04  0.00000000000E+00 0. -1.
         23    2    1    2    0    0  0.10065859743E+03 -0.26918197085E+03 -0.89380287974E+03  0.94715345870E+03  0.12499999926E+03 0.  0.
          5    1    3    3  502    0  0.74732408035E+02 -0.64401351640E+02 -0.19648713815E+03  0.21991305637E+03  0.47000000000E+01 0. -1.
         -5    1    3    3    0  502  0.25926189391E+02 -0.20478061921E+03 -0.69731574160E+03  0.72724040233E+03  0.47000000000E+01 0. -1.
        -11    1    1    2    0    0 -0.42631614680E+02  0.13240659207E+03 -0.21563796744E+03  0.25661000214E+03  0.00000000000E+00 0.  1.
         11    1    1    2    0    0 -0.58026982746E+02  0.13677537878E+03 -0.98539957712E+02  0.17828280409E+03  0.00000000000E+00 0. -1.
<mgrwt>
<rscale>  0 0.31017296E+03</rscale>
<asrwt>0</asrwt>
<pdfrwt beam="2">  1        4 0.19923284E+00 0.31339446E+03</pdfrwt>
<pdfrwt beam="1">  1       -4 0.13389652E-01 0.31339446E+03</pdfrwt>
<totfact> 0.12329465E+01</totfact>
</mgrwt>
</event>
<event>
 7    1  0.5928109E-006  0.1258940E+03  0.7546771E-02  0.1248538E+00
         -1   -1    0    0    0  501 -0.00000000000E+00  0.00000000000E+00  0.53022700012E+03  0.53022700012E+03  0.00000000000E+00 0.  1.
          1   -1    0    0  501    0  0.00000000000E+00 -0.00000000000E+00 -0.23077906093E+02  0.23077906093E+02  0.00000000000E+00 0. -1.
         23    2    1    2    0    0 -0.15193828975E+02  0.48362073825E+00  0.25228811578E+03  0.28195494992E+03  0.12497285343E+03 0.  0.
          5    1    3    3  502    0 -0.61957542474E+02  0.19018742298E+02  0.83723544107E+02  0.10598193934E+03  0.47000000000E+01 0. -1.
         -5    1    3    3    0  502  0.46763713499E+02 -0.18535121560E+02  0.16856457167E+03  0.17597301058E+03  0.47000000000E+01 0. -1.
        -11    1    1    2    0    0  0.38990025162E+02 -0.11720403386E+02  0.23468362622E+03  0.23818898869E+03  0.00000000000E+00 0.  1.
         11    1    1    2    0    0 -0.23796196187E+02  0.11236782648E+02  0.20177352025E+02  0.33160967597E+02  0.00000000000E+00 0. -1.
<mgrwt>
<rscale>  0 0.11676105E+03</rscale>
<asrwt>0</asrwt>
<pdfrwt beam="2">  1        1 0.35504475E-02 0.12589400E+03</pdfrwt>
<pdfrwt beam="1">  1       -1 0.81573376E-01 0.12589400E+03</pdfrwt>
<totfact> 0.40147419E+03</totfact>
</mgrwt>
</event>
<event>
 7    1  0.5928109E-006  0.1356156E+03  0.7546771E-02  0.1232513E+00
          1   -1    0    0  501    0  0.00000000000E+00  0.00000000000E+00  0.59619800529E+03  0.59619800529E+03  0.00000000000E+00 0. -1.
         -1   -1    0    0    0  501 -0.00000000000E+00 -0.00000000000E+00 -0.29388541236E+02  0.29388541236E+02  0.00000000000E+00 0.  1.
         23    2    1    2    0    0 -0.44248371694E+02 -0.28472442102E+02  0.44882265258E+03  0.46886389580E+03  0.12499192360E+03 0.  0.
          5    1    3    3  502    0 -0.38148648921E+01  0.42064673434E+02  0.25668278190E+03  0.26017711365E+03  0.47000000000E+01 0.  1.
         -5    1    3    3    0  502 -0.40433506802E+02 -0.70537115536E+02  0.19213987068E+03  0.20868678215E+03  0.47000000000E+01 0.  1.
        -11    1    1    2    0    0 -0.94973500627E+01  0.35599853556E+02  0.86514781408E+02  0.94033805801E+02  0.00000000000E+00 0.  1.
         11    1    1    2    0    0  0.53745721757E+02 -0.71274114539E+01  0.31472030074E+02  0.62688844926E+02  0.00000000000E+00 0. -1.
<mgrwt>
<rscale>  0 0.12665008E+03</rscale>
<asrwt>0</asrwt>
<pdfrwt beam="1">  1        1 0.91722761E-01 0.13561556E+03</pdfrwt>
<pdfrwt beam="2">  1       -1 0.45213145E-02 0.13561556E+03</pdfrwt>
<totfact> 0.69820951E+03</totfact>
</mgrwt>
</event>
<event>
 7    1  0.5928109E-006  0.1447949E+03  0.7546771E-02  0.1218624E+00
          2   -1    0    0  501    0  0.00000000000E+00  0.00000000000E+00  0.26378506101E+03  0.26378506101E+03  0.00000000000E+00 0. -1.
         -2   -1    0    0    0  501 -0.00000000000E+00 -0.00000000000E+00 -0.63232331550E+02  0.63232331550E+02  0.00000000000E+00 0.  1.
         23    2    1    2    0    0  0.61204266679E+02  0.39910110348E+02  0.10400074386E+03  0.17827431154E+03  0.12500718484E+03 0.  0.
          5    1    3    3  502    0  0.20127723088E+01 -0.39844509122E+02  0.53066892331E+02  0.66556902130E+02  0.47000000000E+01 0. -1.
         -5    1    3    3    0  502  0.59191494370E+02  0.79754619471E+02  0.50933851531E+02  0.11171740941E+03  0.47000000000E+01 0. -1.
        -11    1    1    2    0    0 -0.47247966744E+02 -0.23582226794E+02  0.31466965674E+01  0.52899843869E+02  0.00000000000E+00 0.  1.
         11    1    1    2    0    0 -0.13956299935E+02 -0.16327883554E+02  0.93405289028E+02  0.95843237152E+02  0.00000000000E+00 0. -1.
<mgrwt>
<rscale>  0 0.13613685E+03</rscale>
<asrwt>0</asrwt>
<pdfrwt beam="1">  1        2 0.40582316E-01 0.14479494E+03</pdfrwt>
<pdfrwt beam="2">  1       -2 0.97280512E-02 0.14479494E+03</pdfrwt>
<totfact> 0.83109793E+03</totfact>
</mgrwt>
</event>
<event>
 7    1  0.5928109E-006  0.1279339E+03  0.7546771E-02  0.1244121E+00
          1   -1    0    0  501    0  0.00000000000E+00  0.00000000000E+00  0.12576202209E+03  0.12576202209E+03  0.00000000000E+00 0. -1.
         -1   -1    0    0    0  501 -0.00000000000E+00 -0.00000000000E+00 -0.10387506084E+03  0.10387506084E+03  0.00000000000E+00 0.  1.
         23    2    1    2    0    0 -0.11020447308E+02 -0.25351290669E+02  0.32660413784E+02  0.13203703798E+03  0.12491172312E+03 0.  0.
          5    1    3    3  502    0 -0.30772918682E+02  0.99862562366E+01 -0.38207914282E+02  0.50285510355E+02  0.47000000000E+01 0.  1.
         -5    1    3    3    0  502  0.19752471374E+02 -0.35337546905E+02  0.70868328066E+02  0.81751527628E+02  0.47000000000E+01 0.  1.
        -11    1    1    2    0    0  0.50465231258E+02  0.99425292049E+00 -0.84967362881E+01  0.51185179811E+02  0.00000000000E+00 0.  1.
         11    1    1    2    0    0 -0.39444783950E+02  0.24357037748E+02 -0.22767162509E+01  0.46414865136E+02  0.00000000000E+00 0. -1.
<mgrwt>
<rscale>  0 0.11938126E+03</rscale>
<asrwt>0</asrwt>
<pdfrwt beam="1">  1        1 0.19348003E-01 0.12793388E+03</pdfrwt>
<pdfrwt beam="2">  1       -1 0.15980779E-01 0.12793388E+03</pdfrwt>
<totfact> 0.72973998E+03</totfact>
</mgrwt>
</event>
<event>
 7    1  0.5928109E-006  0.1370618E+03  0.7546771E-02  0.1227075E+00
          1   -1    0    0  501    0  0.00000000000E+00  0.00000000000E+00  0.12826629113E+03  0.12826629113E+03  0.00000000000E+00 0. -1.
         -1   -1    0    0    0  501 -0.00000000000E+00 -0.00000000000E+00 -0.14099938690E+03  0.14099938690E+03  0.00000000000E+00 0.  1.
         23    2    1    2    0    0  0.16170066553E+02 -0.53833037510E+02  0.43921954277E+02  0.14392735781E+03  0.12500591697E+03 0.  0.
          5    1    3    3  502    0  0.38774647710E+02 -0.85180456305E+02  0.47074086222E+02  0.10486774068E+03  0.47000000000E+01 0.  1.
         -5    1    3    3    0  502 -0.22604581158E+02  0.31347418795E+02 -0.31521319448E+01  0.39059617129E+02  0.47000000000E+01 0.  1.
        -11    1    1    2    0    0  0.39808963237E+02  0.33702507016E+02 -0.23182590791E+02  0.57079287390E+02  0.00000000000E+00 0.  1.
         11    1    1    2    0    0 -0.55979029789E+02  0.20130530494E+02 -0.33472459252E+02  0.68259032827E+02  0.00000000000E+00 0. -1.
<mgrwt>
<rscale>  0 0.13025689E+03</rscale>
<asrwt>0</asrwt>
<pdfrwt beam="1">  1        1 0.19733276E-01 0.13706183E+03</pdfrwt>
<pdfrwt beam="2">  1       -1 0.21692213E-01 0.13706183E+03</pdfrwt>
<totfact> 0.43921101E+03</totfact>
</mgrwt>
</event>
<event>
 7    1  0.5928109E-006  0.1263469E+03  0.7546771E-02  0.1248234E+00
          2   -1    0    0  501    0  0.00000000000E+00  0.00000000000E+00  0.59869390098E+03  0.59869390098E+03  0.00000000000E+00 0. -1.
         -2   -1    0    0    0  501 -0.00000000000E+00 -0.00000000000E+00 -0.20375400162E+02  0.20375400162E+02  0.00000000000E+00 0.  1.
         23    2    1    2    0    0 -0.12599527100E+01 -0.18318148842E+02  0.37216127000E+03  0.39302358380E+03  0.12500553779E+03 0.  0.
          5    1    3    3  502    0 -0.19521668893E+02  0.39002932162E+02  0.27623089919E+03  0.27969255253E+03  0.47000000000E+01 0.  1.
         -5    1    3    3    0  502  0.18261716183E+02 -0.57321081004E+02  0.95930370813E+02  0.11333103127E+03  0.47000000000E+01 0.  1.
        -11    1    1    2    0    0  0.84792577791E+01  0.38602479484E+02  0.19969152106E+03  0.20356510708E+03  0.00000000000E+00 0. -1.
         11    1    1    2    0    0 -0.72193050691E+01 -0.20284330642E+02  0.64657097584E+01  0.22480610266E+02  0.00000000000E+00 0.  1.
<mgrwt>
<rscale>  0 0.11693903E+03</rscale>
<asrwt>0</asrwt>
<pdfrwt beam="1">  1        2 0.92106741E-01 0.12634685E+03</pdfrwt>
<pdfrwt beam="2">  1       -2 0.31346774E-02 0.12634685E+03</pdfrwt>
<totfact> 0.18835298E+04</totfact>
</mgrwt>
</event>
<event>
 7    1  0.5928109E-006  0.1329284E+03  0.7546771E-02  0.1235911E+00
          3   -1    0    0  501    0  0.00000000000E+00  0.00000000000E+00  0.26506351581E+03  0.26506351581E+03  0.00000000000E+00 0. -1.
         -3   -1    0    0    0  501 -0.00000000000E+00 -0.00000000000E+00 -0.68784476664E+02  0.68784476664E+02  0.00000000000E+00 0.  1.
         23    2    1    2    0    0 -0.30180275837E+02 -0.35010445542E+02  0.18947796750E+03  0.23145593715E+03  0.12463294239E+03 0.  0.
          5    1    3    3  502    0 -0.80306517711E+01 -0.77063127537E+02  0.15226454252E+03  0.17090874145E+03  0.47000000000E+01 0. -1.
         -5    1    3    3    0  502 -0.22149624066E+02  0.42052681995E+02  0.37213424980E+02  0.60547195707E+02  0.47000000000E+01 0.  1.
        -11    1    1    2    0    0  0.36746789075E+00  0.52867946069E+02  0.29828426374E+02  0.60703292944E+02  0.00000000000E+00 0.  1.
         11    1    1    2    0    0  0.29812807946E+02 -0.17857500527E+02 -0.23027354729E+02  0.41688762377E+02  0.00000000000E+00 0. -1.
<mgrwt>
<rscale>  0 0.12446286E+03</rscale>
<asrwt>0</asrwt>
<pdfrwt beam="1">  1        3 0.40779002E-01 0.13292837E+03</pdfrwt>
<pdfrwt beam="2">  1       -3 0.10582227E-01 0.13292837E+03</pdfrwt>
<totfact> 0.92388983E+02</totfact>
</mgrwt>
</event>
<event>
 7    1  0.5928109E-006  0.1447409E+03  0.7546771E-02  0.1216840E+00
          2   -1    0    0  501    0  0.00000000000E+00  0.00000000000E+00  0.46743092752E+03  0.46743092752E+03  0.00000000000E+00 0. -1.
         -2   -1    0    0    0  501 -0.00000000000E+00 -0.00000000000E+00 -0.38528585575E+02  0.38528585575E+02  0.00000000000E+00 0.  1.
         23    2    1    2    0    0 -0.35466092638E+02  0.63772080367E+02  0.28875135521E+03  0.32299734149E+03  0.12500086207E+03 0.  0.
          5    1    3    3  502    0 -0.41525128526E+02  0.91212762201E+02  0.27207343053E+03  0.28998300965E+03  0.47000000000E+01 0.  1.
         -5    1    3    3    0  502  0.60590358882E+01 -0.27440681834E+02  0.16677924677E+02  0.33014331842E+02  0.47000000000E+01 0.  1.
        -11    1    1    2    0    0 -0.15421782148E+02 -0.35880618676E+02  0.97815860619E+01  0.40260769827E+02  0.00000000000E+00 0.  1.
         11    1    1    2    0    0  0.50887874786E+02 -0.27891461691E+02  0.13036940068E+03  0.14270140177E+03  0.00000000000E+00 0. -1.
<mgrwt>
<rscale>  0 0.13742239E+03</rscale>
<asrwt>0</asrwt>
<pdfrwt beam="1">  1        2 0.71912446E-01 0.14474093E+03</pdfrwt>
<pdfrwt beam="2">  1       -2 0.59274750E-02 0.14474093E+03</pdfrwt>
<totfact> 0.96825822E+03</totfact>
</mgrwt>
</event>
<event>
 7    1  0.5928109E-006  0.1473930E+03  0.7546771E-02  0.1212193E+00
         -4   -1    0    0    0  501 -0.00000000000E+00  0.00000000000E+00  0.24426984883E+03  0.24426984883E+03  0.00000000000E+00 0.  1.
          4   -1    0    0  501    0  0.00000000000E+00 -0.00000000000E+00 -0.10275913229E+03  0.10275913229E+03  0.00000000000E+00 0. -1.
         23    2    1    2    0    0 -0.78085257874E+02 -0.11928920379E+01 -0.14858444148E+02  0.14814006145E+03  0.12500389576E+03 0.  0.
          5    1    3    3  502    0  0.88656464812E+01 -0.33896217995E+02 -0.38396831965E+02  0.52191570074E+02  0.47000000000E+01 0.  1.
         -5    1    3    3    0  502 -0.86950904355E+02  0.32703325957E+02  0.23538387816E+02  0.95948491378E+02  0.47000000000E+01 0.  1.
        -11    1    1    2    0    0  0.19966914109E+02 -0.38682828855E+02  0.98508979167E+02  0.10769892239E+03  0.00000000000E+00 0.  1.
         11    1    1    2    0    0  0.58118343764E+02  0.39875720892E+02  0.57860181514E+02  0.91189997277E+02  0.00000000000E+00 0. -1.
<mgrwt>
<rscale>  0 0.14084763E+03</rscale>
<asrwt>0</asrwt>
<pdfrwt beam="2">  1        4 0.15809097E-01 0.14739303E+03</pdfrwt>
<pdfrwt beam="1">  1       -4 0.37579977E-01 0.14739303E+03</pdfrwt>
<totfact> 0.39881245E+02</totfact>
</mgrwt>
</event>
<event>
 6    1  0.5928109E-006  0.1672963E+03  0.7546771E-02  0.1200741E+00
         -1   -1    0    0    0  501 -0.00000000000E+00  0.00000000000E+00  0.20188195461E+02  0.20188195461E+02  0.00000000000E+00 0.  1.
          1   -1    0    0  501    0  0.00000000000E+00 -0.00000000000E+00 -0.15248548173E+04  0.15248548173E+04  0.00000000000E+00 0. -1.
          5    1    1    2  502    0  0.42236244940E+02  0.85560727363E+02 -0.88131439756E+03  0.88647712650E+03  0.47000000000E+01 0. -1.
         -5    1    1    2    0  502 -0.52603410079E+02 -0.44691650071E+02 -0.44483594903E+03  0.45018393340E+03  0.47000000000E+01 0.  1.
        -11    1    1    2    0    0  0.48958717564E+02 -0.32979593973E+02 -0.62998671790E+02  0.86333320864E+02  0.00000000000E+00 0.  1.
         11    1    1    2    0    0 -0.38591552425E+02 -0.78894833192E+01 -0.11551760344E+03  0.12204863199E+03  0.00000000000E+00 0. -1.
<mgrwt>
<rscale>  0 0.14978243E+03</rscale>
<asrwt>0</asrwt>
<pdfrwt beam="2">  1        1 0.23459310E+00 0.16729629E+03</pdfrwt>
<pdfrwt beam="1">  1       -1 0.31058755E-02 0.16729629E+03</pdfrwt>
<totfact> 0.24628016E+03</totfact>
</mgrwt>
</event>
<event>
 6    1  0.5928109E-006  0.1759672E+03  0.7546771E-02  0.1200268E+00
          2   -1    0    0  501    0  0.00000000000E+00  0.00000000000E+00  0.16610528573E+04  0.16610528573E+04  0.00000000000E+00 0. -1.
         -2   -1    0    0    0  501 -0.00000000000E+00 -0.00000000000E+00 -0.12943986173E+02  0.12943986173E+02  0.00000000000E+00 0.  1.
          5    1    1    2  502    0 -0.38963865251E+02  0.29707445827E+02  0.12223393943E+04  0.12233300454E+04  0.47000000000E+01 0. -1.
         -5    1    1    2    0  502  0.29470190499E+02 -0.44478801212E+02  0.13293249760E+03  0.14331781049E+03  0.47000000000E+01 0.  1.
        -11    1    1    2    0    0  0.14749654552E+02  0.52843746064E+02  0.16836496190E+03  0.17707844082E+03  0.00000000000E+00 0. -1.
         11    1    1    2    0    0 -0.52559798003E+01 -0.38072390679E+02  0.12447201735E+03  0.13027054678E+03  0.00000000000E+00 0.  1.
<mgrwt>
<rscale>  0 0.15016734E+03</rscale>
<asrwt>0</asrwt>
<pdfrwt beam="1">  1        2 0.25554642E+00 0.17596722E+03</pdfrwt>
<pdfrwt beam="2">  1       -2 0.19913838E-02 0.17596722E+03</pdfrwt>
<totfact> 0.86130018E+03</totfact>
</mgrwt>
</event>
<event>
 7    1  0.5928109E-006  0.1275391E+03  0.7546771E-02  0.1246118E+00
         -1   -1    0    0    0  501 -0.00000000000E+00  0.00000000000E+00  0.18196456087E+02  0.18196456087E+02  0.00000000000E+00 0.  1.
          1   -1    0    0  501    0  0.00000000000E+00 -0.00000000000E+00 -0.78369688297E+03  0.78369688297E+03  0.00000000000E+00 0. -1.
         23    2    1    2    0    0 -0.68187246720E+01  0.24385730992E+02 -0.58066410622E+03  0.59450570893E+03  0.12500029925E+03 0.  0.
          5    1    3    3  502    0 -0.55498516708E+02 -0.51948299194E+01 -0.42527505279E+03  0.42893826146E+03  0.47000000000E+01 0.  1.
         -5    1    3    3    0  502  0.48679792036E+02  0.29580560912E+02 -0.15538905343E+03  0.16556744747E+03  0.47000000000E+01 0.  1.
        -11    1    1    2    0    0  0.46833134772E+02 -0.19218251778E+02 -0.12834395931E+03  0.13796686416E+03  0.00000000000E+00 0. -1.
         11    1    1    2    0    0 -0.40014410100E+02 -0.51674792139E+01 -0.56492361355E+02  0.69420765975E+02  0.00000000000E+00 0.  1.
<mgrwt>
<rscale>  0 0.11818731E+03</rscale>
<asrwt>0</asrwt>
<pdfrwt beam="2">  1        1 0.12056874E+00 0.12753915E+03</pdfrwt>
<pdfrwt beam="1">  1       -1 0.27994551E-02 0.12753915E+03</pdfrwt>
<totfact> 0.95127520E+03</totfact>
</mgrwt>
</event>
<event>
 7    1  0.5928109E-006  0.1146968E+03  0.7546771E-02  0.1262349E+00
         -2   -1    0    0    0  501 -0.00000000000E+00  0.00000000000E+00  0.75147677612E+02  0.75147677612E+02  0.00000000000E+00 0. -1.
          2   -1    0    0  501    0  0.00000000000E+00 -0.00000000000E+00 -0.18315343014E+03  0.18315343014E+03  0.00000000000E+00 0.  1.
         23    2    1    2    0    0  0.66888536687E+01 -0.63826806793E+01 -0.11739770239E+03  0.16412670940E+03  0.11432356203E+03 0.  0.
          5    1    3    3  502    0 -0.44278942807E+02  0.25488443790E+02 -0.73097701633E+02  0.89306492077E+02  0.47000000000E+01 0. -1.
         -5    1    3    3    0  502  0.50967796476E+02 -0.31871124470E+02 -0.44300000760E+02  0.74820217321E+02  0.47000000000E+01 0.  1.
        -11    1    1    2    0    0 -0.16210069696E+02  0.33935554028E+02 -0.27909476946E+02  0.46832970119E+02  0.00000000000E+00 0. -1.
         11    1    1    2    0    0  0.95212160269E+01 -0.27552873349E+02  0.37301426817E+02  0.47341428231E+02  0.00000000000E+00 0.  1.
<mgrwt>
<rscale>  0 0.10904457E+03</rscale>
<asrwt>0</asrwt>
<pdfrwt beam="2">  1        2 0.28177451E-01 0.11469680E+03</pdfrwt>
<pdfrwt beam="1">  1       -2 0.11561181E-01 0.11469680E+03</pdfrwt>
<totfact> 0.91988312E+03</totfact>
</mgrwt>
</event>
<event>
 7    1  0.5928109E-006  0.1693561E+03  0.7546771E-02  0.1185274E+00
         -2   -1    0    0    0  501 -0.00000000000E+00  0.00000000000E+00  0.16949310158E+02  0.16949310158E+02  0.00000000000E+00 0.  1.
          2   -1    0    0  501    0  0.00000000000E+00 -0.00000000000E+00 -0.16393064398E+04  0.16393064398E+04  0.00000000000E+00 0. -1.
         23    2    1    2    0    0  0.67349324120E+02  0.92306585499E+02 -0.11367968176E+04  0.11493426364E+04  0.12500021694E+03 0.  0.
          5    1    3    3  502    0  0.86281775389E+02  0.10476438376E+03 -0.10713671656E+04  0.10799397272E+04  0.47000000000E+01 0. -1.
         -5    1    3    3    0  502 -0.18932451269E+02 -0.12457798256E+02 -0.65429651936E+02  0.69402909168E+02  0.47000000000E+01 0. -1.
        -11    1    1    2    0    0 -0.53006095114E+02 -0.86782294546E+00 -0.17482267990E+03  0.18268379414E+03  0.00000000000E+00 0. -1.
         11    1    1    2    0    0 -0.14343229006E+02 -0.91438762554E+02 -0.31073763217E+03  0.32422931941E+03  0.00000000000E+00 0.  1.
<mgrwt>
<rscale>  0 0.16306936E+03</rscale>
<asrwt>0</asrwt>
<pdfrwt beam="2">  1        2 0.25220094E+00 0.16935611E+03</pdfrwt>
<pdfrwt beam="1">  1       -2 0.26075867E-02 0.16935611E+03</pdfrwt>
<totfact> 0.59481030E+03</totfact>
</mgrwt>
</event>
<event>
 7    1  0.5928109E-006  0.2784975E+03  0.7546771E-02  0.1098541E+00
         -2   -1    0    0    0  501 -0.00000000000E+00  0.00000000000E+00  0.42448382201E+02  0.42448382201E+02  0.00000000000E+00 0.  1.
          2   -1    0    0  501    0  0.00000000000E+00 -0.00000000000E+00 -0.18565218804E+04  0.18565218804E+04  0.00000000000E+00 0. -1.
         23    2    1    2    0    0 -0.22784783060E+03 -0.10010600951E+03 -0.11730057908E+04  0.12056133104E+04  0.12500008780E+03 0.  0.
          5    1    3    3  502    0  0.27778207129E+01  0.73064297992E+01 -0.18964640474E+03  0.18986560782E+03  0.47000000000E+01 0.  1.
         -5    1    3    3    0  502 -0.23062565131E+03 -0.10741243931E+03 -0.98335938602E+03  0.10157477026E+04  0.47000000000E+01 0.  1.
        -11    1    1    2    0    0  0.41569981814E+02  0.10251664155E+02 -0.43605002347E+02  0.61111015665E+02  0.00000000000E+00 0.  1.
         11    1    1    2    0    0  0.18627784878E+03  0.89854345351E+02 -0.59746270512E+03  0.63224593659E+03  0.00000000000E+00 0. -1.
<mgrwt>
<rscale>  0 0.27483960E+03</rscale>
<asrwt>0</asrwt>
<pdfrwt beam="2">  1        2 0.28561884E+00 0.27849752E+03</pdfrwt>
<pdfrwt beam="1">  1       -2 0.65305182E-02 0.27849752E+03</pdfrwt>
<totfact> 0.11469533E+03</totfact>
</mgrwt>
</event>
<event>
 7    1  0.5928109E-006  0.1387219E+03  0.7546771E-02  0.1226588E+00
         -2   -1    0    0    0  501 -0.00000000000E+00  0.00000000000E+00  0.21476899941E+02  0.21476899941E+02  0.00000000000E+00 0.  1.
          2   -1    0    0  501    0  0.00000000000E+00 -0.00000000000E+00 -0.74324571141E+03  0.74324571141E+03  0.00000000000E+00 0. -1.
         23    2    1    2    0    0  0.47088457212E+02  0.37410632091E+02 -0.47797201031E+03  0.49769568703E+03  0.12500750399E+03 0.  0.
          5    1    3    3  502    0 -0.13277085864E+02  0.72021441167E+01 -0.36956876800E+03  0.36990717237E+03  0.47000000000E+01 0.  1.
         -5    1    3    3    0  502  0.60365543076E+02  0.30208487975E+02 -0.10840324231E+03  0.12778851466E+03  0.47000000000E+01 0.  1.
        -11    1    1    2    0    0 -0.46573063011E+02 -0.61502794071E+02 -0.13403784337E+03  0.15465376599E+03  0.00000000000E+00 0.  1.
         11    1    1    2    0    0 -0.51539420074E+00  0.24092161979E+02 -0.10975895779E+03  0.11237315834E+03  0.00000000000E+00 0. -1.
<mgrwt>
<rscale>  0 0.13058672E+03</rscale>
<asrwt>0</asrwt>
<pdfrwt beam="2">  1        2 0.11434551E+00 0.13872186E+03</pdfrwt>
<pdfrwt beam="1">  1       -2 0.33041380E-02 0.13872186E+03</pdfrwt>
<totfact> 0.13630276E+04</totfact>
</mgrwt>
</event>
<event>
 7    1  0.5928109E-006  0.1311525E+03  0.7546771E-02  0.1240155E+00
         -2   -1    0    0    0  501 -0.00000000000E+00  0.00000000000E+00  0.96322969680E+02  0.96322969680E+02  0.00000000000E+00 0.  1.
          2   -1    0    0  501    0  0.00000000000E+00 -0.00000000000E+00 -0.24758137406E+03  0.24758137406E+03  0.00000000000E+00 0. -1.
         23    2    1    2    0    0  0.38241191886E+02  0.10699110200E+02 -0.19659280316E+03  0.23632542602E+03  0.12499646801E+03 0.  0.
          5    1    3    3  502    0  0.76942996752E+02 -0.15556314968E+02 -0.88125048033E+02  0.11811154802E+03  0.47000000000E+01 0.  1.
         -5    1    3    3    0  502 -0.38701804866E+02  0.26255425168E+02 -0.10846775513E+03  0.11821387800E+03  0.47000000000E+01 0.  1.
        -11    1    1    2    0    0 -0.62013670997E+02 -0.21812599021E+02  0.14922882447E+02  0.67410513179E+02  0.00000000000E+00 0. -1.
         11    1    1    2    0    0  0.23772479111E+02  0.11113488821E+02  0.30411516337E+02  0.40168404534E+02  0.00000000000E+00 0.  1.
<mgrwt>
<rscale>  0 0.12180096E+03</rscale>
<asrwt>0</asrwt>
<pdfrwt beam="2">  1        2 0.38089441E-01 0.13115249E+03</pdfrwt>
<pdfrwt beam="1">  1       -2 0.14818919E-01 0.13115249E+03</pdfrwt>
<totfact> 0.45090425E+03</totfact>
</mgrwt>
</event>
<event>
 7    1  0.5928109E-006  0.1654920E+03  0.7546771E-02  0.1187878E+00
         -1   -1    0    0    0  501 -0.00000000000E+00  0.00000000000E+00  0.95425536893E+02  0.95425536893E+02  0.00000000000E+00 0.  1.
          1   -1    0    0  501    0  0.00000000000E+00 -0.00000000000E+00 -0.26183488607E+03  0.26183488607E+03  0.00000000000E+00 0. -1.
         23    2    1    2    0    0 -0.24665342299E+01 -0.10843019649E+03 -0.11406161321E+03  0.20099168640E+03  0.12499766034E+03 0.  0.
          5    1    3    3  502    0  0.28299924603E+02 -0.12405369099E+03 -0.71608404576E+02  0.14608236576E+03  0.47000000000E+01 0. -1.
         -5    1    3    3    0  502 -0.30766458833E+02  0.15623494500E+02 -0.42453208639E+02  0.54909320640E+02  0.47000000000E+01 0. -1.
        -11    1    1    2    0    0 -0.44870571097E+02  0.76624400714E+02 -0.42316341156E+02  0.98363304460E+02  0.00000000000E+00 0.  1.
         11    1    1    2    0    0  0.47337105327E+02  0.31805795771E+02 -0.10031394805E+02  0.57905432103E+02  0.00000000000E+00 0. -1.
<mgrwt>
<rscale>  0 0.16072716E+03</rscale>
<asrwt>0</asrwt>
<pdfrwt beam="2">  1        1 0.40282290E-01 0.16549201E+03</pdfrwt>
<pdfrwt beam="1">  1       -1 0.14680852E-01 0.16549201E+03</pdfrwt>
<totfact> 0.33781568E+03</totfact>
</mgrwt>
</event>
<event>
 7    1  0.5928109E-006  0.2422749E+03  0.7546771E-02  0.1120978E+00
         -1   -1    0    0    0  501 -0.00000000000E+00  0.00000000000E+00  0.75463091342E+02  0.75463091342E+02  0.00000000000E+00 0.  1.
          1   -1    0    0  501    0  0.00000000000E+00 -0.00000000000E+00 -0.89906660215E+03  0.89906660215E+03  0.00000000000E+00 0. -1.
         23    2    1    2    0    0 -0.95254805590E+02 -0.18438685411E+03 -0.63548298128E+03  0.68009982033E+03  0.12500062465E+03 0.  0.
          5    1    3    3  502    0 -0.48209887785E+02 -0.84971496525E+02 -0.47831743830E+03  0.48821512705E+03  0.47000000000E+01 0.  1.
         -5    1    3    3    0  502 -0.47044917806E+02 -0.99415357582E+02 -0.15716554298E+03  0.19188469328E+03  0.47000000000E+01 0.  1.
        -11    1    1    2    0    0  0.79149941093E+02  0.17351582726E+03 -0.19598873066E+03  0.27346670369E+03  0.00000000000E+00 0. -1.
         11    1    1    2    0    0  0.16104864497E+02  0.10871026849E+02  0.78682011277E+01  0.20963169469E+02  0.00000000000E+00 0.  1.
<mgrwt>
<rscale>  0 0.23822955E+03</rscale>
<asrwt>0</asrwt>
<pdfrwt beam="2">  1        1 0.13831793E+00 0.24227494E+03</pdfrwt>
<pdfrwt beam="1">  1       -1 0.11609707E-01 0.24227494E+03</pdfrwt>
<totfact> 0.92587123E+02</totfact>
</mgrwt>
</event>
<event>
 7    1  0.5928109E-006  0.1277803E+03  0.7546771E-02  0.1239777E+00
          2   -1    0    0  501    0  0.00000000000E+00  0.00000000000E+00  0.36498519212E+03  0.36498519212E+03  0.00000000000E+00 0. -1.
         -2   -1    0    0    0  501 -0.00000000000E+00 -0.00000000000E+00 -0.55689341150E+02  0.55689341150E+02  0.00000000000E+00 0.  1.
         23    2    1    2    0    0  0.52435243016E+02 -0.22961961327E+02  0.28397149876E+03  0.31139623327E+03  0.11424139182E+03 0.  0.
          5    1    3    3  502    0  0.52138163287E+02 -0.61520238461E+02  0.13390193163E+03  0.15638076962E+03  0.47000000000E+01 0. -1.
         -5    1    3    3    0  502  0.29707972889E+00  0.38558277133E+02  0.15006956713E+03  0.15501546365E+03  0.47000000000E+01 0.  1.
        -11    1    1    2    0    0 -0.35098860579E+02  0.56215011528E+02  0.46003748274E+01  0.66432077972E+02  0.00000000000E+00 0.  1.
         11    1    1    2    0    0 -0.17336382436E+02 -0.33253050201E+02  0.20723977377E+02  0.42846222027E+02  0.00000000000E+00 0. -1.
<mgrwt>
<rscale>  0 0.12203509E+03</rscale>
<asrwt>0</asrwt>
<pdfrwt beam="1">  1        2 0.56151567E-01 0.12778029E+03</pdfrwt>
<pdfrwt beam="2">  1       -2 0.85675912E-02 0.12778029E+03</pdfrwt>
<totfact> 0.71196424E+03</totfact>
</mgrwt>
</event>
<event>
 7    1  0.5928109E-006  0.1713643E+03  0.7546771E-02  0.1182589E+00
         -1   -1    0    0    0  501 -0.00000000000E+00  0.00000000000E+00  0.14951963638E+03  0.14951963638E+03  0.00000000000E+00 0. -1.
          1   -1    0    0  501    0  0.00000000000E+00 -0.00000000000E+00 -0.17749501347E+03  0.17749501347E+03  0.00000000000E+00 0.  1.
         23    2    1    2    0    0 -0.79674633501E+02  0.85984991442E+02 -0.44094330333E+02  0.17694644170E+03  0.12499706911E+03 0.  0.
          5    1    3    3  502    0  0.14028504123E+02 -0.67663873631E+01  0.23599821759E+02  0.28663993318E+02  0.47000000000E+01 0. -1.
         -5    1    3    3    0  502 -0.93703137624E+02  0.92751378805E+02 -0.67694152091E+02  0.14828244838E+03  0.47000000000E+01 0. -1.
        -11    1    1    2    0    0  0.42892144303E+02  0.11161146525E+02 -0.30999100714E+01  0.44428782080E+02  0.00000000000E+00 0.  1.
         11    1    1    2    0    0  0.36782489198E+02 -0.97146137967E+02  0.19218863308E+02  0.10563942607E+03  0.00000000000E+00 0. -1.
<mgrwt>
<rscale>  0 0.16553222E+03</rscale>
<asrwt>0</asrwt>
<pdfrwt beam="2">  1        1 0.27306925E-01 0.17136433E+03</pdfrwt>
<pdfrwt beam="1">  1       -1 0.23003021E-01 0.17136433E+03</pdfrwt>
<totfact> 0.26764016E+03</totfact>
</mgrwt>
</event>
<event>
 7    1  0.5928109E-006  0.1306904E+03  0.7546771E-02  0.1238884E+00
         -1   -1    0    0    0  501 -0.00000000000E+00  0.00000000000E+00  0.11569815365E+03  0.11569815365E+03  0.00000000000E+00 0. -1.
          1   -1    0    0  501    0  0.00000000000E+00 -0.00000000000E+00 -0.11740044884E+03  0.11740044884E+03  0.00000000000E+00 0.  1.
         23    2    1    2    0    0 -0.12085101495E+02  0.36173224773E+02 -0.12786497563E+02  0.13131442950E+03  0.12500173202E+03 0.  0.
          5    1    3    3  502    0  0.83231185071E+01  0.78746832031E+02  0.75718167838E+01  0.79685383013E+02  0.47000000000E+01 0.  1.
         -5    1    3    3    0  502 -0.20408220002E+02 -0.42573607258E+02 -0.20358314346E+02  0.51629046491E+02  0.47000000000E+01 0.  1.
        -11    1    1    2    0    0  0.42368421472E+02 -0.50714399272E+02 -0.97788270056E+00  0.66090768540E+02  0.00000000000E+00 0.  1.
         11    1    1    2    0    0 -0.30283319977E+02  0.14541174499E+02  0.12062085071E+02  0.35693404445E+02  0.00000000000E+00 0. -1.
<mgrwt>
<rscale>  0 0.12259005E+03</rscale>
<asrwt>0</asrwt>
<pdfrwt beam="2">  1        1 0.18061608E-01 0.13069042E+03</pdfrwt>
<pdfrwt beam="1">  1       -1 0.17799716E-01 0.13069042E+03</pdfrwt>
<totfact> 0.67297448E+03</totfact>
</mgrwt>
</event>
<event>
 7    1  0.5928109E-006  0.1776088E+03  0.7546771E-02  0.1175603E+00
         -1   -1    0    0    0  501 -0.00000000000E+00  0.00000000000E+00  0.87666794770E+02  0.87666794770E+02  0.00000000000E+00 0.  1.
          1   -1    0    0  501    0  0.00000000000E+00 -0.00000000000E+00 -0.33306373833E+03  0.33306373833E+03  0.00000000000E+00 0. -1.
         23    2    1    2    0    0  0.10601654766E+03 -0.68411436659E+02 -0.17318801149E+03  0.24807051680E+03  0.12500104374E+03 0.  0.
          5    1    3    3  502    0  0.85691277535E+02  0.32557813280E+01 -0.14452098591E+03  0.16811305877E+03  0.47000000000E+01 0. -1.
         -5    1    3    3    0  502  0.20325270127E+02 -0.71667217987E+02 -0.28667025576E+02  0.79957458033E+02  0.47000000000E+01 0. -1.
        -11    1    1    2    0    0 -0.10280836475E+03  0.25332706982E+02 -0.74396083147E+02  0.12940665784E+03  0.00000000000E+00 0. -1.
         11    1    1    2    0    0 -0.32081829131E+01  0.43078729677E+02  0.21871510813E+01  0.43253358459E+02  0.00000000000E+00 0.  1.
<mgrwt>
<rscale>  0 0.17217078E+03</rscale>
<asrwt>0</asrwt>
<pdfrwt beam="2">  1        1 0.51240575E-01 0.17760882E+03</pdfrwt>
<pdfrwt beam="1">  1       -1 0.13487199E-01 0.17760882E+03</pdfrwt>
<totfact> 0.28666772E+03</totfact>
</mgrwt>
</event>
<event>
 6    1  0.5928109E-006  0.3022043E+03  0.7546771E-02  0.1125086E+00
         -2   -1    0    0    0  501 -0.00000000000E+00  0.00000000000E+00  0.15810912113E+02  0.15810912113E+02  0.00000000000E+00 0.  1.
          2   -1    0    0  501    0  0.00000000000E+00 -0.00000000000E+00 -0.27971380740E+04  0.27971380740E+04  0.00000000000E+00 0. -1.
          5    1    1    2  502    0 -0.45308835543E+02 -0.75095651171E+02 -0.17759309144E+04  0.17781015017E+04  0.47000000000E+01 0. -1.
         -5    1    1    2    0  502  0.80678877902E+02  0.11378466657E+03 -0.55231062718E+03  0.56967108982E+03  0.47000000000E+01 0.  1.
        -11    1    1    2    0    0 -0.29540682341E+02 -0.67712985605E+02 -0.35980455195E+03  0.36731051705E+03  0.00000000000E+00 0.  1.
         11    1    1    2    0    0 -0.58293600182E+01  0.29023970200E+02 -0.93281068349E+02  0.97865877591E+02  0.00000000000E+00 0. -1.
<mgrwt>
<rscale>  0 0.23222187E+03</rscale>
<asrwt>0</asrwt>
<pdfrwt beam="2">  1        2 0.43032892E+00 0.30220434E+03</pdfrwt>
<pdfrwt beam="1">  1       -2 0.24324481E-02 0.30220434E+03</pdfrwt>
<totfact> 0.15757483E+03</totfact>
</mgrwt>
</event>
<event>
 7    1  0.5928109E-006  0.1528324E+03  0.7546771E-02  0.1207025E+00
          1   -1    0    0  501    0  0.00000000000E+00  0.00000000000E+00  0.29996730522E+03  0.29996730522E+03  0.00000000000E+00 0. -1.
         -1   -1    0    0    0  501 -0.00000000000E+00 -0.00000000000E+00 -0.65285203510E+02  0.65285203510E+02  0.00000000000E+00 0.  1.
         23    2    1    2    0    0  0.14991302940E+02  0.86652894432E+02  0.15996560727E+03  0.22123911558E+03  0.12499714987E+03 0.  0.
          5    1    3    3  502    0  0.82090432020E+01 -0.27062255556E+02  0.53998506600E+01  0.29171946339E+02  0.47000000000E+01 0.  1.
         -5    1    3    3    0  502  0.67822597377E+01  0.11371514999E+03  0.15456575661E+03  0.19206716924E+03  0.47000000000E+01 0.  1.
        -11    1    1    2    0    0  0.18579666862E+02 -0.23936150795E+02 -0.11347372363E+02  0.32355929829E+02  0.00000000000E+00 0.  1.
         11    1    1    2    0    0 -0.33570969802E+02 -0.62716743637E+02  0.86063866801E+02  0.11165746332E+03  0.00000000000E+00 0. -1.
<mgrwt>
<rscale>  0 0.14479027E+03</rscale>
<asrwt>0</asrwt>
<pdfrwt beam="1">  1        1 0.46148815E-01 0.15283243E+03</pdfrwt>
<pdfrwt beam="2">  1       -1 0.10043878E-01 0.15283243E+03</pdfrwt>
<totfact> 0.51196981E+03</totfact>
</mgrwt>
</event>
<event>
 7    1  0.5928109E-006  0.1585466E+03  0.7546771E-02  0.1197655E+00
         -2   -1    0    0    0  501 -0.00000000000E+00  0.00000000000E+00  0.85055784130E+02  0.85055784130E+02  0.00000000000E+00 0.  1.
          2   -1    0    0  501    0  0.00000000000E+00 -0.00000000000E+00 -0.29982775422E+03  0.29982775422E+03  0.00000000000E+00 0. -1.
         23    2    1    2    0    0 -0.40594762746E+01 -0.97381667251E+02 -0.39100646550E+02  0.16329693832E+03  0.12504943438E+03 0.  0.
          5    1    3    3  502    0  0.29840383809E+02 -0.86365708784E+02 -0.70544024559E+02  0.11553369015E+03  0.47000000000E+01 0.  1.
         -5    1    3    3    0  502 -0.33899860084E+02 -0.11015958467E+02  0.31443378008E+02  0.47763248164E+02  0.47000000000E+01 0.  1.
        -11    1    1    2    0    0  0.19409529117E+02  0.71687397493E+02 -0.17666364051E+03  0.19163990883E+03  0.00000000000E+00 0. -1.
         11    1    1    2    0    0 -0.15350052843E+02  0.25694269758E+02  0.99231697044E+00  0.29946691197E+02  0.00000000000E+00 0.  1.
<mgrwt>
<rscale>  0 0.15231633E+03</rscale>
<asrwt>0</asrwt>
<pdfrwt beam="2">  1        2 0.46127347E-01 0.15854662E+03</pdfrwt>
<pdfrwt beam="1">  1       -2 0.13085505E-01 0.15854662E+03</pdfrwt>
<totfact> 0.45484312E+03</totfact>
</mgrwt>
</event>
<event>
 7    1  0.5928109E-006  0.1452817E+03  0.7546771E-02  0.1215142E+00
          1   -1    0    0  501    0  0.00000000000E+00  0.00000000000E+00  0.71847293997E+03  0.71847293997E+03  0.00000000000E+00 0. -1.
         -1   -1    0    0    0  501 -0.00000000000E+00 -0.00000000000E+00 -0.30520344899E+02  0.30520344899E+02  0.00000000000E+00 0.  1.
         23    2    1    2    0    0 -0.68215528917E+02 -0.28769604367E+02  0.53425458938E+03  0.55365578781E+03  0.12500286628E+03 0.  0.
          5    1    3    3  502    0 -0.82938686512E+02  0.78074107068E+01  0.19521437863E+03  0.21229819831E+03  0.47000000000E+01 0.  1.
         -5    1    3    3    0  502  0.14723157595E+02 -0.36577015074E+02  0.33904021075E+03  0.34135758949E+03  0.47000000000E+01 0.  1.
        -11    1    1    2    0    0  0.62533187178E+02  0.61204142505E+02  0.11558912119E+03  0.14497307163E+03  0.00000000000E+00 0. -1.
         11    1    1    2    0    0  0.56823417391E+01 -0.32434538138E+02  0.38108884499E+02  0.50364425437E+02  0.00000000000E+00 0.  1.
<mgrwt>
<rscale>  0 0.13866122E+03</rscale>
<asrwt>0</asrwt>
<pdfrwt beam="1">  1        1 0.11053429E+00 0.14528168E+03</pdfrwt>
<pdfrwt beam="2">  1       -1 0.46954382E-02 0.14528168E+03</pdfrwt>
<totfact> 0.51032848E+03</totfact>
</mgrwt>
</event>
<event>
 7    1  0.5928109E-006  0.1444842E+03  0.7546771E-02  0.1216979E+00
         -2   -1    0    0    0  501 -0.00000000000E+00  0.00000000000E+00  0.31982251586E+02  0.31982251586E+02  0.00000000000E+00 0.  1.
          2   -1    0    0  501    0  0.00000000000E+00 -0.00000000000E+00 -0.55648556882E+03  0.55648556882E+03  0.00000000000E+00 0. -1.
         23    2    1    2    0    0 -0.45109222342E+02  0.56702692607E+02 -0.34111377971E+03  0.37045148417E+03  0.12500261647E+03 0.  0.
          5    1    3    3  502    0  0.43508415595E+02  0.15874268514E+02 -0.10014299423E+03  0.11043407048E+03  0.47000000000E+01 0. -1.
         -5    1    3    3    0  502 -0.88617637938E+02  0.40828424093E+02 -0.24097078548E+03  0.26001741369E+03  0.47000000000E+01 0. -1.
        -11    1    1    2    0    0  0.41507824635E+02 -0.46829373751E+01 -0.19626988512E+02  0.46152443992E+02  0.00000000000E+00 0.  1.
         11    1    1    2    0    0  0.36013977076E+01 -0.52019755231E+02 -0.16376254901E+03  0.17186389225E+03  0.00000000000E+00 0. -1.
<mgrwt>
<rscale>  0 0.13732191E+03</rscale>
<asrwt>0</asrwt>
<pdfrwt beam="2">  1        2 0.85613163E-01 0.14448423E+03</pdfrwt>
<pdfrwt beam="1">  1       -2 0.49203465E-02 0.14448423E+03</pdfrwt>
<totfact> 0.10577406E+04</totfact>
</mgrwt>
</event>
<event>
 7    1  0.5928109E-006  0.1907462E+03  0.7546771E-02  0.1162527E+00
         -1   -1    0    0    0  501 -0.00000000000E+00  0.00000000000E+00  0.59094072307E+02  0.59094072307E+02  0.00000000000E+00 0.  1.
          1   -1    0    0  501    0  0.00000000000E+00 -0.00000000000E+00 -0.55601423170E+03  0.55601423170E+03  0.00000000000E+00 0. -1.
         23    2    1    2    0    0  0.45324144032E+02 -0.13677655964E+03 -0.28427898455E+03  0.34234288527E+03  0.12498801838E+03 0.  0.
          5    1    3    3  502    0  0.41956690036E+01  0.56129584262E+01 -0.12287110994E+03  0.12316049935E+03  0.47000000000E+01 0. -1.
         -5    1    3    3    0  502  0.41128475029E+02 -0.14238951807E+03 -0.16140787460E+03  0.21918238592E+03  0.47000000000E+01 0. -1.
        -11    1    1    2    0    0 -0.67151391915E+02  0.10976825063E+03 -0.12902280357E+03  0.18222311084E+03  0.00000000000E+00 0.  1.
         11    1    1    2    0    0  0.21827247883E+02  0.27008309010E+02 -0.83618371277E+02  0.90542307905E+02  0.00000000000E+00 0. -1.
<mgrwt>
<rscale>  0 0.18556084E+03</rscale>
<asrwt>0</asrwt>
<pdfrwt beam="2">  1        1 0.85540652E-01 0.19074619E+03</pdfrwt>
<pdfrwt beam="1">  1       -1 0.90913956E-02 0.19074619E+03</pdfrwt>
<totfact> 0.27298115E+03</totfact>
</mgrwt>
</event>
<event>
 7    1  0.5928109E-006  0.1304199E+03  0.7546771E-02  0.1242301E+00
         -2   -1    0    0    0  501 -0.00000000000E+00  0.00000000000E+00  0.26998160225E+02  0.26998160225E+02  0.00000000000E+00 0.  1.
          2   -1    0    0  501    0  0.00000000000E+00 -0.00000000000E+00 -0.49477990721E+03  0.49477990721E+03  0.00000000000E+00 0. -1.
         23    2    1    2    0    0 -0.36624923534E+02 -0.58247031056E+01 -0.32596149237E+03  0.35108440246E+03  0.12503619856E+03 0.  0.
          5    1    3    3  502    0  0.42620409613E+02  0.19378156337E+02 -0.11195223974E+03  0.12143889921E+03  0.47000000000E+01 0.  1.
         -5    1    3    3    0  502 -0.79245333148E+02 -0.25202859442E+02 -0.21400925263E+03  0.22964550325E+03  0.47000000000E+01 0.  1.
        -11    1    1    2    0    0  0.56445140985E+02  0.48051766579E+01 -0.46385670456E+02  0.73217307293E+02  0.00000000000E+00 0.  1.
         11    1    1    2    0    0 -0.19820217451E+02  0.10195264476E+01 -0.95434584161E+02  0.97476357687E+02  0.00000000000E+00 0. -1.
<mgrwt>
<rscale>  0 0.12048388E+03</rscale>
<asrwt>0</asrwt>
<pdfrwt beam="2">  1        2 0.76119978E-01 0.13041995E+03</pdfrwt>
<pdfrwt beam="1">  1       -2 0.41535635E-02 0.13041995E+03</pdfrwt>
<totfact> 0.15403498E+04</totfact>
</mgrwt>
</event>
<event>
 7    1  0.5928109E-006  0.1751698E+03  0.7546771E-02  0.1178471E+00
         -3   -1    0    0    0  501 -0.00000000000E+00  0.00000000000E+00  0.58158993356E+02  0.58158993356E+02  0.00000000000E+00 0.  1.
          3   -1    0    0  501    0  0.00000000000E+00 -0.00000000000E+00 -0.48162095132E+03  0.48162095132E+03  0.00000000000E+00 0. -1.
         23    2    1    2    0    0 -0.39232090165E+02 -0.11628357965E+03 -0.27750322264E+03  0.32816532776E+03  0.12499366374E+03 0.  0.
          5    1    3    3  502    0 -0.12814983785E+02 -0.78195605390E+02 -0.45424539091E+02  0.91456302481E+02  0.47000000000E+01 0. -1.
         -5    1    3    3    0  502 -0.26417106380E+02 -0.38087974256E+02 -0.23207868354E+03  0.23670902528E+03  0.47000000000E+01 0. -1.
        -11    1    1    2    0    0 -0.35133160997E+01  0.33317144293E+02 -0.10404277133E+03  0.10930358530E+03  0.00000000000E+00 0. -1.
         11    1    1    2    0    0  0.42745406265E+02  0.82966435354E+02 -0.41915963996E+02  0.10231103161E+03  0.00000000000E+00 0.  1.
<mgrwt>
<rscale>  0 0.16940421E+03</rscale>
<asrwt>0</asrwt>
<pdfrwt beam="2">  1        3 0.74095533E-01 0.17516976E+03</pdfrwt>
<pdfrwt beam="1">  1       -3 0.89475373E-02 0.17516976E+03</pdfrwt>
<totfact> 0.37605403E+02</totfact>
</mgrwt>
</event>
<event>
 7    1  0.5928109E-006  0.1157072E+03  0.7546771E-02  0.1302901E+00
          2   -1    0    0  501    0  0.00000000000E+00  0.00000000000E+00  0.18955282744E+04  0.18955282744E+04  0.00000000000E+00 0. -1.
         -2   -1    0    0    0  501 -0.00000000000E+00 -0.00000000000E+00 -0.13423417560E+02  0.13423417560E+02  0.00000000000E+00 0.  1.
         23    2    1    2    0    0 -0.30363078511E+01 -0.46932465659E+01  0.18552059134E+04  0.18588106773E+04  0.11557208730E+03 0.  0.
          5    1    3    3  502    0 -0.27853537097E+02 -0.53209395971E+02  0.10785026885E+04  0.10801838725E+04  0.47000000000E+01 0. -1.
         -5    1    3    3    0  502  0.24817229246E+02  0.48516149405E+02  0.77670322487E+03  0.77862680479E+03  0.47000000000E+01 0.  1.
        -11    1    1    2    0    0 -0.16954232143E+02  0.10851685016E+02  0.19296215903E+02  0.27884565685E+02  0.00000000000E+00 0. -1.
         11    1    1    2    0    0  0.19990539994E+02 -0.61584384504E+01  0.76027275484E+01  0.22256448943E+02  0.00000000000E+00 0.  1.
<mgrwt>
<rscale>  0 0.89979611E+02</rscale>
<asrwt>0</asrwt>
<pdfrwt beam="1">  1        2 0.29161952E+00 0.11570719E+03</pdfrwt>
<pdfrwt beam="2">  1       -2 0.20651427E-02 0.11570719E+03</pdfrwt>
<totfact> 0.61253518E+03</totfact>
</mgrwt>
</event>
<event>
 7    1  0.5928109E-006  0.1301018E+03  0.7546771E-02  0.1241651E+00
          2   -1    0    0  501    0  0.00000000000E+00  0.00000000000E+00  0.28570727743E+03  0.28570727743E+03  0.00000000000E+00 0. -1.
         -2   -1    0    0    0  501 -0.00000000000E+00 -0.00000000000E+00 -0.61467523273E+02  0.61467523273E+02  0.00000000000E+00 0.  1.
         23    2    1    2    0    0 -0.16902173659E+02  0.31864999777E+02  0.21296970774E+03  0.24956478110E+03  0.12500168745E+03 0.  0.
          5    1    3    3  502    0 -0.28787770026E+02  0.75994572870E+02  0.15948147096E+03  0.17905401528E+03  0.47000000000E+01 0.  1.
         -5    1    3    3    0  502  0.11885596367E+02 -0.44129573093E+02  0.53488236788E+02  0.70510765824E+02  0.47000000000E+01 0.  1.
        -11    1    1    2    0    0  0.14606828109E+02  0.11725510456E+01  0.46799197784E+02  0.49039771783E+02  0.00000000000E+00 0. -1.
         11    1    1    2    0    0  0.22953455502E+01 -0.33037550823E+02 -0.35529151374E+02  0.48570247816E+02  0.00000000000E+00 0.  1.
<mgrwt>
<rscale>  0 0.12088087E+03</rscale>
<asrwt>0</asrwt>
<pdfrwt beam="1">  1        2 0.43954965E-01 0.13010182E+03</pdfrwt>
<pdfrwt beam="2">  1       -2 0.94565422E-02 0.13010182E+03</pdfrwt>
<totfact> 0.79232075E+03</totfact>
</mgrwt>
</event>
<event>
 7    1  0.5928109E-006  0.1257286E+03  0.7546771E-02  0.1270788E+00
          2   -1    0    0  501    0  0.00000000000E+00  0.00000000000E+00  0.74011261476E+03  0.74011261476E+03  0.00000000000E+00 0. -1.
         -2   -1    0    0    0  501 -0.00000000000E+00 -0.00000000000E+00 -0.15184273724E+02  0.15184273724E+02  0.00000000000E+00 0.  1.
         23    2    1    2    0    0 -0.49300272374E+01  0.12531193845E+02  0.63265672092E+03  0.64502884275E+03  0.12500538176E+03 0.  0.
          5    1    3    3  502    0 -0.20396260704E+02  0.40499753926E+02  0.85287420205E+02  0.96707143294E+02  0.47000000000E+01 0. -1.
         -5    1    3    3    0  502  0.15466233467E+02 -0.27968560081E+02  0.54736930071E+03  0.54832169946E+03  0.47000000000E+01 0. -1.
        -11    1    1    2    0    0 -0.23182481701E+02  0.24180020695E+01  0.62392132268E+02  0.66603696299E+02  0.00000000000E+00 0. -1.
         11    1    1    2    0    0  0.28112508938E+02 -0.14949195915E+02  0.29879487844E+02  0.43664349430E+02  0.00000000000E+00 0.  1.
<mgrwt>
<rscale>  0 0.10466166E+03</rscale>
<asrwt>0</asrwt>
<pdfrwt beam="1">  1        2 0.11386345E+00 0.12572860E+03</pdfrwt>
<pdfrwt beam="2">  1       -2 0.23360427E-02 0.12572860E+03</pdfrwt>
<totfact> 0.22595543E+04</totfact>
</mgrwt>
</event>
<event>
 7    1  0.5928109E-006  0.1384842E+03  0.7546771E-02  0.1226907E+00
         -2   -1    0    0    0  501 -0.00000000000E+00  0.00000000000E+00  0.23255132906E+02  0.23255132906E+02  0.00000000000E+00 0.  1.
          2   -1    0    0  501    0  0.00000000000E+00 -0.00000000000E+00 -0.65817040518E+03  0.65817040518E+03  0.00000000000E+00 0. -1.
         23    2    1    2    0    0  0.57708006923E+02 -0.15005593167E+02 -0.36837349920E+03  0.39354405102E+03  0.12499001278E+03 0.  0.
          5    1    3    3  502    0  0.67732058928E+02  0.42356201089E+02 -0.21759683064E+03  0.23184509976E+03  0.47000000000E+01 0.  1.
         -5    1    3    3    0  502 -0.10024052005E+02 -0.57361794255E+02 -0.15077666856E+03  0.16169895126E+03  0.47000000000E+01 0.  1.
        -11    1    1    2    0    0 -0.28301464273E+02  0.37777714723E+02 -0.52366960058E+02  0.70501256126E+02  0.00000000000E+00 0.  1.
         11    1    1    2    0    0 -0.29406542650E+02 -0.22772121556E+02 -0.21417481302E+03  0.21738023094E+03  0.00000000000E+00 0. -1.
<mgrwt>
<rscale>  0 0.13037041E+03</rscale>
<asrwt>0</asrwt>
<pdfrwt beam="2">  1        2 0.10125698E+00 0.13848424E+03</pdfrwt>
<pdfrwt beam="1">  1       -2 0.35777129E-02 0.13848424E+03</pdfrwt>
<totfact> 0.14000201E+04</totfact>
</mgrwt>
</event>
<event>
 7    1  0.5928109E-006  0.1444256E+03  0.7546771E-02  0.1215968E+00
         -2   -1    0    0    0  501 -0.00000000000E+00  0.00000000000E+00  0.91708646514E+02  0.91708646514E+02  0.00000000000E+00 0.  1.
          2   -1    0    0  501    0  0.00000000000E+00 -0.00000000000E+00 -0.21285916687E+03  0.21285916687E+03  0.00000000000E+00 0. -1.
         23    2    1    2    0    0  0.16208515049E+02  0.76537082071E+02 -0.11359470994E+03  0.18374579990E+03  0.12140065882E+03 0.  0.
          5    1    3    3  502    0  0.43204741143E+01 -0.33056644868E+02 -0.32677408374E+02  0.46918133856E+02  0.47000000000E+01 0. -1.
         -5    1    3    3    0  502  0.11888040935E+02  0.10959372694E+03 -0.80917301567E+02  0.13682766604E+03  0.47000000000E+01 0.  1.
        -11    1    1    2    0    0  0.36523063238E+02 -0.46667666911E+02  0.28616311610E+01  0.59329539153E+02  0.00000000000E+00 0.  1.
         11    1    1    2    0    0 -0.52731578287E+02 -0.29869415160E+02 -0.10417441576E+02  0.61492474333E+02  0.00000000000E+00 0. -1.
<mgrwt>
<rscale>  0 0.13805654E+03</rscale>
<asrwt>0</asrwt>
<pdfrwt beam="2">  1        2 0.32747564E-01 0.14442562E+03</pdfrwt>
<pdfrwt beam="1">  1       -2 0.14109023E-01 0.14442562E+03</pdfrwt>
<totfact> 0.57752975E+03</totfact>
</mgrwt>
</event>
<event>
 7    1  0.5928109E-006  0.1390881E+03  0.7546771E-02  0.1229978E+00
          2   -1    0    0  501    0  0.00000000000E+00  0.00000000000E+00  0.57183752585E+02  0.57183752585E+02  0.00000000000E+00 0.  1.
         -2   -1    0    0    0  501 -0.00000000000E+00 -0.00000000000E+00 -0.27102336769E+03  0.27102336769E+03  0.00000000000E+00 0. -1.
         23    2    1    2    0    0 -0.24388335941E+02 -0.55909764439E+02 -0.79230992187E+02  0.16007204923E+03  0.12499927253E+03 0.  0.
          5    1    3    3  502    0  0.34073627480E+02 -0.48421452178E+02 -0.81565476586E+02  0.10089928687E+03  0.47000000000E+01 0.  1.
         -5    1    3    3    0  502 -0.58461963421E+02 -0.74883122601E+01  0.23344843990E+01  0.59172762357E+02  0.47000000000E+01 0.  1.
        -11    1    1    2    0    0  0.68362995437E+01 -0.19119225420E+02 -0.12806281703E+02  0.24005845604E+02  0.00000000000E+00 0.  1.
         11    1    1    2    0    0  0.17552036397E+02  0.75028989859E+02 -0.12180234122E+03  0.14412922544E+03  0.00000000000E+00 0. -1.
<mgrwt>
<rscale>  0 0.12831440E+03</rscale>
<asrwt>0</asrwt>
<pdfrwt beam="1">  1        2 0.87975003E-02 0.13908814E+03</pdfrwt>
<pdfrwt beam="2">  1       -2 0.41695903E-01 0.13908814E+03</pdfrwt>
<totfact> 0.39593937E+03</totfact>
</mgrwt>
</event>
<event>
 7    1  0.5928109E-006  0.1537565E+03  0.7546771E-02  0.1204616E+00
          2   -1    0    0  501    0  0.00000000000E+00  0.00000000000E+00  0.16459889444E+03  0.16459889444E+03  0.00000000000E+00 0. -1.
         -2   -1    0    0    0  501 -0.00000000000E+00 -0.00000000000E+00 -0.12786557150E+03  0.12786557150E+03  0.00000000000E+00 0.  1.
         23    2    1    2    0    0  0.65592935871E+02 -0.60935470953E+02  0.56085288771E+02  0.16366616789E+03  0.12500196014E+03 0.  0.
          5    1    3    3  502    0  0.10556693833E+02 -0.87977171932E+02  0.50037458054E+02  0.10186885576E+03  0.47000000000E+01 0. -1.
         -5    1    3    3    0  502  0.55036242039E+02  0.27041700979E+02  0.60478307174E+01  0.61797312126E+02  0.47000000000E+01 0. -1.
        -11    1    1    2    0    0 -0.52527796717E+02  0.21046454585E+02  0.29969726342E+02  0.64033640968E+02  0.00000000000E+00 0. -1.
         11    1    1    2    0    0 -0.13065139154E+02  0.39889016367E+02 -0.49321692180E+02  0.64764657085E+02  0.00000000000E+00 0.  1.
<mgrwt>
<rscale>  0 0.14667734E+03</rscale>
<asrwt>0</asrwt>
<pdfrwt beam="1">  1        2 0.25322907E-01 0.15375648E+03</pdfrwt>
<pdfrwt beam="2">  1       -2 0.19671626E-01 0.15375648E+03</pdfrwt>
<totfact> 0.44229477E+03</totfact>
</mgrwt>
</event>
<event>
 7    1  0.5928109E-006  0.1809410E+03  0.7546771E-02  0.1172155E+00
          4   -1    0    0  501    0  0.00000000000E+00  0.00000000000E+00  0.77983879133E+02  0.77983879133E+02  0.00000000000E+00 0. -1.
         -4   -1    0    0    0  501 -0.00000000000E+00 -0.00000000000E+00 -0.38167288940E+03  0.38167288940E+03  0.00000000000E+00 0.  1.
         23    2    1    2    0    0  0.32145824153E+02  0.12680943950E+03 -0.12731915829E+03  0.22124607636E+03  0.12500268109E+03 0.  0.
          5    1    3    3  502    0 -0.44371969205E+02  0.35362512874E+02 -0.65731735853E+02  0.86960508658E+02  0.47000000000E+01 0. -1.
         -5    1    3    3    0  502  0.76517793358E+02  0.91446926629E+02 -0.61587422433E+02  0.13428556770E+03  0.47000000000E+01 0. -1.
        -11    1    1    2    0    0 -0.38197382248E+02 -0.50680822305E+02 -0.23771175151E+02  0.67769126659E+02  0.00000000000E+00 0. -1.
         11    1    1    2    0    0  0.60515580954E+01 -0.76128617198E+02 -0.15259867683E+03  0.17064156552E+03  0.00000000000E+00 0.  1.
<mgrwt>
<rscale>  0 0.17557586E+03</rscale>
<asrwt>0</asrwt>
<pdfrwt beam="1">  1        4 0.11997520E-01 0.18094104E+03</pdfrwt>
<pdfrwt beam="2">  1       -4 0.58718906E-01 0.18094104E+03</pdfrwt>
<totfact> 0.27026130E+02</totfact>
</mgrwt>
</event>
<event>
 7    1  0.5928109E-006  0.1260485E+03  0.7546771E-02  0.1271950E+00
         -2   -1    0    0    0  501 -0.00000000000E+00  0.00000000000E+00  0.19487933997E+02  0.19487933997E+02  0.00000000000E+00 0.  1.
          2   -1    0    0  501    0  0.00000000000E+00 -0.00000000000E+00 -0.47022773594E+03  0.47022773594E+03  0.00000000000E+00 0. -1.
         23    2    1    2    0    0 -0.23259870957E+01 -0.16044167924E+02 -0.36256993176E+03  0.38385566063E+03  0.12500154896E+03 0.  0.
          5    1    3    3  502    0  0.53754075451E+02 -0.15240715018E+02 -0.26801873173E+03  0.27382094621E+03  0.47000000000E+01 0. -1.
         -5    1    3    3    0  502 -0.56080062547E+02 -0.80345290640E+00 -0.94551200027E+02  0.11003471442E+03  0.47000000000E+01 0. -1.
        -11    1    1    2    0    0 -0.23630029417E+02 -0.46061613296E+01 -0.48532752142E+02  0.54175852951E+02  0.00000000000E+00 0. -1.
         11    1    1    2    0    0  0.25956016513E+02  0.20650329254E+02 -0.39637118036E+02  0.51684156351E+02  0.00000000000E+00 0.  1.
<mgrwt>
<rscale>  0 0.10407661E+03</rscale>
<asrwt>0</asrwt>
<pdfrwt beam="2">  1        2 0.72342732E-01 0.12604845E+03</pdfrwt>
<pdfrwt beam="1">  1       -2 0.29981435E-02 0.12604845E+03</pdfrwt>
<totfact> 0.26266546E+04</totfact>
</mgrwt>
</event>
<event>
 7    1  0.5928109E-006  0.1630773E+03  0.7546771E-02  0.1188909E+00
         -1   -1    0    0    0  501 -0.00000000000E+00  0.00000000000E+00  0.28064917029E+03  0.28064917029E+03  0.00000000000E+00 0.  1.
          1   -1    0    0  501    0  0.00000000000E+00 -0.00000000000E+00 -0.95143712530E+02  0.95143712530E+02  0.00000000000E+00 0. -1.
         23    2    1    2    0    0 -0.98844274456E+02  0.65913209141E+02  0.43119625033E+02  0.16868168423E+03  0.11171153386E+03 0.  0.
          5    1    3    3  502    0 -0.98576056538E+02  0.75675403161E+02  0.67859359262E+02  0.14167211513E+03  0.47000000000E+01 0. -1.
         -5    1    3    3    0  502 -0.26821791801E+00 -0.97621940201E+01 -0.24739734229E+02  0.27009569095E+02  0.47000000000E+01 0.  1.
        -11    1    1    2    0    0 -0.12816677152E+02  0.26341490798E+00  0.39360200568E+02  0.41395192829E+02  0.00000000000E+00 0. -1.
         11    1    1    2    0    0  0.11166095161E+03 -0.66176624049E+02  0.10302563215E+03  0.16571600576E+03  0.00000000000E+00 0.  1.
<mgrwt>
<rscale>  0 0.15981219E+03</rscale>
<asrwt>0</asrwt>
<pdfrwt beam="2">  1        1 0.14637494E-01 0.16307731E+03</pdfrwt>
<pdfrwt beam="1">  1       -1 0.43176795E-01 0.16307731E+03</pdfrwt>
<totfact> 0.20297653E+03</totfact>
</mgrwt>
</event>
<event>
 7    1  0.5928109E-006  0.1646997E+03  0.7546771E-02  0.1190044E+00
         -1   -1    0    0    0  501 -0.00000000000E+00  0.00000000000E+00  0.30443130261E+03  0.30443130261E+03  0.00000000000E+00 0.  1.
          1   -1    0    0  501    0  0.00000000000E+00 -0.00000000000E+00 -0.10428697287E+03  0.10428697287E+03  0.00000000000E+00 0. -1.
         23    2    1    2    0    0 -0.10453913467E+03 -0.23942189773E+02  0.19886122893E+01  0.16471170171E+03  0.12499732386E+03 0.  0.
          5    1    3    3  502    0 -0.19192114612E+02  0.44923140013E+02  0.20876186930E+02  0.53332269337E+02  0.47000000000E+01 0.  1.
         -5    1    3    3    0  502 -0.85347020057E+02 -0.68865329786E+02 -0.18887574641E+02  0.11137943237E+03  0.47000000000E+01 0.  1.
        -11    1    1    2    0    0  0.29543266593E+02  0.51557428413E+02  0.10995359619E+03  0.12498306422E+03  0.00000000000E+00 0.  1.
         11    1    1    2    0    0  0.74995868076E+02 -0.27615238640E+02  0.88202121256E+02  0.11902350956E+03  0.00000000000E+00 0. -1.
<mgrwt>
<rscale>  0 0.15881289E+03</rscale>
<asrwt>0</asrwt>
<pdfrwt beam="2">  1        1 0.16044150E-01 0.16469970E+03</pdfrwt>
<pdfrwt beam="1">  1       -1 0.46835585E-01 0.16469970E+03</pdfrwt>
<totfact> 0.15570365E+03</totfact>
</mgrwt>
</event>
<event>
 7    1  0.5928109E-006  0.1371532E+03  0.7546771E-02  0.1231847E+00
         -4   -1    0    0    0  501 -0.00000000000E+00  0.00000000000E+00  0.95105129603E+02  0.95105129603E+02  0.00000000000E+00 0.  1.
          4   -1    0    0  501    0  0.00000000000E+00 -0.00000000000E+00 -0.17996912132E+03  0.17996912132E+03  0.00000000000E+00 0. -1.
         23    2    1    2    0    0  0.41016059248E+02  0.38772909321E+02 -0.10406691948E+03  0.17216541492E+03  0.12500140300E+03 0.  0.
          5    1    3    3  502    0  0.39617025519E+02 -0.53107394764E+01  0.16652021262E+02  0.43555625089E+02  0.47000000000E+01 0.  1.
         -5    1    3    3    0  502  0.13990337285E+01  0.44083648797E+02 -0.12071894074E+03  0.12860978983E+03  0.47000000000E+01 0.  1.
        -11    1    1    2    0    0 -0.32976496738E+02 -0.26101645631E+02 -0.29875319097E+02  0.51587594758E+02  0.00000000000E+00 0. -1.
         11    1    1    2    0    0 -0.80395625097E+01 -0.12671263689E+02  0.49078246855E+02  0.51321241248E+02  0.00000000000E+00 0.  1.
<mgrwt>
<rscale>  0 0.12708483E+03</rscale>
<asrwt>0</asrwt>
<pdfrwt beam="2">  1        4 0.27687557E-01 0.13715322E+03</pdfrwt>
<pdfrwt beam="1">  1       -4 0.14631559E-01 0.13715322E+03</pdfrwt>
<totfact> 0.80739627E+02</totfact>
</mgrwt>
</event>
<event>
 7    1  0.5928109E-006  0.1909332E+03  0.7546771E-02  0.1162281E+00
         -2   -1    0    0    0  501 -0.00000000000E+00  0.00000000000E+00  0.96863847534E+02  0.96863847534E+02  0.00000000000E+00 0.  1.
          2   -1    0    0  501    0  0.00000000000E+00 -0.00000000000E+00 -0.33867319683E+03  0.33867319683E+03  0.00000000000E+00 0. -1.
         23    2    1    2    0    0 -0.98748892697E+01  0.14398955596E+03 -0.12687575232E+03  0.22924429985E+03  0.12499994728E+03 0.  0.
          5    1    3    3  502    0 -0.81347950371E+01  0.16592621085E+03 -0.99092825820E+02  0.19349201655E+03  0.47000000000E+01 0.  1.
         -5    1    3    3    0  502 -0.17400942326E+01 -0.21936654895E+02 -0.27782926505E+02  0.35752283299E+02  0.47000000000E+01 0.  1.
        -11    1    1    2    0    0  0.45351665350E+02 -0.42669041831E+02 -0.28554889865E+02  0.68504032115E+02  0.00000000000E+00 0.  1.
         11    1    1    2    0    0 -0.35476776081E+02 -0.10132051413E+03 -0.86378707110E+02  0.13778871241E+03  0.00000000000E+00 0. -1.
<mgrwt>
<rscale>  0 0.18582601E+03</rscale>
<asrwt>0</asrwt>
<pdfrwt beam="2">  1        2 0.52103569E-01 0.19093321E+03</pdfrwt>
<pdfrwt beam="1">  1       -2 0.14902130E-01 0.19093321E+03</pdfrwt>
<totfact> 0.32577963E+03</totfact>
</mgrwt>
</event>
<event>
 6    1  0.5928109E-006  0.1604379E+03  0.7546771E-02  0.1205616E+00
         -2   -1    0    0    0  501 -0.00000000000E+00  0.00000000000E+00  0.44244236083E+03  0.44244236083E+03  0.00000000000E+00 0.  1.
          2   -1    0    0  501    0  0.00000000000E+00 -0.00000000000E+00 -0.63940547002E+03  0.63940547002E+03  0.00000000000E+00 0. -1.
          5    1    1    2  502    0  0.34939117773E+02  0.84120654577E+02 -0.28131384269E+03  0.29573061148E+03  0.47000000000E+01 0. -1.
         -5    1    1    2    0  502  0.17940508704E+02 -0.61131588402E+02 -0.34095773648E+03  0.34689076237E+03  0.47000000000E+01 0.  1.
        -11    1    1    2    0    0  0.12019090947E+02 -0.36054003199E+02  0.22701576146E+03  0.23017494573E+03  0.00000000000E+00 0.  1.
         11    1    1    2    0    0 -0.64898717424E+02  0.13064937023E+02  0.19829270853E+03  0.20905151125E+03  0.00000000000E+00 0. -1.
<mgrwt>
<rscale>  0 0.14588984E+03</rscale>
<asrwt>0</asrwt>
<pdfrwt beam="2">  1        2 0.98370072E-01 0.16043788E+03</pdfrwt>
<pdfrwt beam="1">  1       -2 0.68068056E-01 0.16043788E+03</pdfrwt>
<totfact> 0.98038356E+01</totfact>
</mgrwt>
</event>
<event>
 7    1  0.7740851E-006  0.1277040E+03  0.7546771E-02  0.1247685E+00
          1   -1    0    0  501    0  0.00000000000E+00  0.00000000000E+00  0.16696471899E+03  0.16696471899E+03  0.00000000000E+00 0. -1.
         -1   -1    0    0    0  501 -0.00000000000E+00 -0.00000000000E+00 -0.75269221526E+02  0.75269221526E+02  0.00000000000E+00 0.  1.
         23    2    1    2    0    0  0.63216496304E+01 -0.25363010311E+02  0.80020880204E+02  0.15070385791E+03  0.12500026389E+03 0.  0.
          5    1    3    3  502    0 -0.26923752831E+02 -0.85128187208E+01 -0.25722883793E+02  0.38485234828E+02  0.47000000000E+01 0. -1.
         -5    1    3    3    0  502  0.33245402462E+02 -0.16850191590E+02  0.10574376400E+03  0.11221862308E+03  0.47000000000E+01 0. -1.
        -11    1    1    2    0    0  0.28773178660E+02  0.19825380274E+02  0.34658152305E+02  0.49215130137E+02  0.00000000000E+00 0. -1.
         11    1    1    2    0    0 -0.35094828290E+02  0.55376300363E+01 -0.22983535048E+02  0.42314952469E+02  0.00000000000E+00 0.  1.
<mgrwt>
<rscale>  0 0.11726108E+03</rscale>
<asrwt>0</asrwt>
<pdfrwt beam="1">  1        1 0.25686880E-01 0.12770400E+03</pdfrwt>
<pdfrwt beam="2">  1       -1 0.11579880E-01 0.12770400E+03</pdfrwt>
<totfact> 0.84198762E+03</totfact>
</mgrwt>
</event>
<event>
 7    1  0.5928109E-006  0.1165066E+03  0.7546771E-02  0.1260555E+00
         -1   -1    0    0    0  501 -0.00000000000E+00  0.00000000000E+00  0.10893099683E+03  0.10893099683E+03  0.00000000000E+00 0.  1.
          1   -1    0    0  501    0  0.00000000000E+00 -0.00000000000E+00 -0.47342118178E+03  0.47342118178E+03  0.00000000000E+00 0. -1.
         23    2    1    2    0    0  0.72574504211E+00  0.18401564677E+02 -0.44477986239E+03  0.45978573042E+03  0.11504193852E+03 0.  0.
          5    1    3    3  502    0 -0.46746526277E+02 -0.25444911752E+01 -0.33479235678E+03  0.33808242237E+03  0.47000000000E+01 0. -1.
         -5    1    3    3    0  502  0.47472271319E+02  0.20946055852E+02 -0.10998750561E+03  0.12170330805E+03  0.47000000000E+01 0.  1.
        -11    1    1    2    0    0  0.30804630657E+02  0.22605681637E+02  0.19999689927E+02  0.43126902385E+02  0.00000000000E+00 0. -1.
         11    1    1    2    0    0 -0.31530375699E+02 -0.41007246314E+02  0.60289987522E+02  0.79439545803E+02  0.00000000000E+00 0.  1.
<mgrwt>
<rscale>  0 0.11000798E+03</rscale>
<asrwt>0</asrwt>
<pdfrwt beam="2">  1        1 0.72834029E-01 0.11650662E+03</pdfrwt>
<pdfrwt beam="1">  1       -1 0.16758615E-01 0.11650662E+03</pdfrwt>
<totfact> 0.12908126E+03</totfact>
</mgrwt>
</event>
<event>
 7    1  0.5928109E-006  0.1438427E+03  0.7546771E-02  0.1221452E+00
          3   -1    0    0  501    0  0.00000000000E+00  0.00000000000E+00  0.17052399397E+03  0.17052399397E+03  0.00000000000E+00 0. -1.
         -3   -1    0    0    0  501 -0.00000000000E+00 -0.00000000000E+00 -0.36360435063E+03  0.36360435063E+03  0.00000000000E+00 0.  1.
         23    2    1    2    0    0 -0.24875258153E+02  0.66707453870E+02  0.12959896712E+03  0.19361457584E+03  0.12498819475E+03 0.  0.
          5    1    3    3  502    0 -0.27150483848E+01 -0.43062245430E+01 -0.22872123344E+02  0.23898516352E+02  0.47000000000E+01 0. -1.
         -5    1    3    3    0  502 -0.22160209768E+02  0.71013678413E+02  0.15247109047E+03  0.16971605949E+03  0.47000000000E+01 0. -1.
        -11    1    1    2    0    0 -0.25308149460E+02 -0.17328336882E+02 -0.16505831254E+03  0.16788394869E+03  0.00000000000E+00 0. -1.
         11    1    1    2    0    0  0.50183407613E+02 -0.49379116989E+02 -0.15762101124E+03  0.17262982007E+03  0.00000000000E+00 0.  1.
<mgrwt>
<rscale>  0 0.13413071E+03</rscale>
<asrwt>0</asrwt>
<pdfrwt beam="1">  1        3 0.26234461E-01 0.14384266E+03</pdfrwt>
<pdfrwt beam="2">  1       -3 0.55939130E-01 0.14384266E+03</pdfrwt>
<totfact> 0.10348900E+02</totfact>
</mgrwt>
</event>
<event>
 6    1  0.5928109E-006  0.1713154E+03  0.7546771E-02  0.1187882E+00
          1   -1    0    0  501    0  0.00000000000E+00  0.00000000000E+00  0.13559309022E+04  0.13559309022E+04  0.00000000000E+00 0. -1.
         -1   -1    0    0    0  501 -0.00000000000E+00 -0.00000000000E+00 -0.39146067672E+02  0.39146067672E+02  0.00000000000E+00 0.  1.
          5    1    1    2  502    0  0.54981139741E+02  0.28919242245E+02  0.57277695517E+03  0.57615516892E+03  0.47000000000E+01 0. -1.
         -5    1    1    2    0  502  0.19028723563E+01 -0.10562243607E+03  0.64430826069E+03  0.65292797820E+03  0.47000000000E+01 0.  1.
        -11    1    1    2    0    0 -0.76295480196E+00  0.25192755835E+02 -0.14229509628E+02  0.28943669271E+02  0.00000000000E+00 0.  1.
         11    1    1    2    0    0 -0.56121057295E+02  0.51510437992E+02  0.11392912829E+03  0.13705015347E+03  0.00000000000E+00 0. -1.
<mgrwt>
<rscale>  0 0.16072348E+03</rscale>
<asrwt>0</asrwt>
<pdfrwt beam="1">  1        1 0.20860472E+00 0.17131538E+03</pdfrwt>
<pdfrwt beam="2">  1       -1 0.60224730E-02 0.17131538E+03</pdfrwt>
<totfact> 0.11935103E+03</totfact>
</mgrwt>
</event>
<event>
 7    1  0.5928109E-006  0.1361853E+03  0.7546771E-02  0.1230586E+00
          2   -1    0    0  501    0  0.00000000000E+00  0.00000000000E+00  0.10993306346E+03  0.10993306346E+03  0.00000000000E+00 0. -1.
         -2   -1    0    0    0  501 -0.00000000000E+00 -0.00000000000E+00 -0.13808982232E+03  0.13808982232E+03  0.00000000000E+00 0.  1.
         23    2    1    2    0    0  0.51503409537E+02 -0.16300294771E+02 -0.38515760543E+02  0.14152701743E+03  0.12501252756E+03 0.  0.
          5    1    3    3  502    0 -0.16564050671E+02 -0.54902754420E+02 -0.12051650417E+02  0.58787860101E+02  0.47000000000E+01 0.  1.
         -5    1    3    3    0  502  0.68067460208E+02  0.38602459648E+02 -0.26464110126E+02  0.82739157325E+02  0.47000000000E+01 0.  1.
        -11    1    1    2    0    0 -0.34963112881E+02  0.43447859415E+02 -0.23081641740E+02  0.60356424145E+02  0.00000000000E+00 0.  1.
         11    1    1    2    0    0 -0.16540296656E+02 -0.27147564644E+02  0.33440643422E+02  0.46139444210E+02  0.00000000000E+00 0. -1.
<mgrwt>
<rscale>  0 0.12791302E+03</rscale>
<asrwt>0</asrwt>
<pdfrwt beam="1">  1        2 0.16912779E-01 0.13618529E+03</pdfrwt>
<pdfrwt beam="2">  1       -2 0.21244588E-01 0.13618529E+03</pdfrwt>
<totfact> 0.60741387E+03</totfact>
</mgrwt>
</event>
<event>
 7    1  0.5928109E-006  0.1297941E+03  0.7546771E-02  0.1241568E+00
          1   -1    0    0  501    0  0.00000000000E+00  0.00000000000E+00  0.50055870945E+02  0.50055870945E+02  0.00000000000E+00 0. -1.
         -1   -1    0    0    0  501 -0.00000000000E+00 -0.00000000000E+00 -0.26169971795E+03  0.26169971795E+03  0.00000000000E+00 0.  1.
         23    2    1    2    0    0 -0.31468865015E+02 -0.15157324297E+02 -0.10409527514E+03  0.16638009827E+03  0.12500590725E+03 0.  0.
          5    1    3    3  502    0 -0.67999745624E+02 -0.23203177364E+02 -0.20795330452E+02  0.74945904580E+02  0.47000000000E+01 0. -1.
         -5    1    3    3    0  502  0.36530880610E+02  0.80458530667E+01 -0.83299944691E+02  0.91434193688E+02  0.47000000000E+01 0. -1.
        -11    1    1    2    0    0 -0.29806557584E+02  0.81854444277E+01 -0.15503328346E+02  0.34580132522E+02  0.00000000000E+00 0. -1.
         11    1    1    2    0    0  0.61275422598E+02  0.69718798697E+01 -0.92045243518E+02  0.11079535811E+03  0.00000000000E+00 0.  1.
<mgrwt>
<rscale>  0 0.12093169E+03</rscale>
<asrwt>0</asrwt>
<pdfrwt beam="1">  1        1 0.77009031E-02 0.12979411E+03</pdfrwt>
<pdfrwt beam="2">  1       -1 0.40261495E-01 0.12979411E+03</pdfrwt>
<totfact> 0.53088773E+03</totfact>
</mgrwt>
</event>
<event>
 7    1  0.5928109E-006  0.1489955E+03  0.7546771E-02  0.1211320E+00
         -2   -1    0    0    0  501 -0.00000000000E+00  0.00000000000E+00  0.15188618513E+02  0.15188618513E+02  0.00000000000E+00 0.  1.
          2   -1    0    0  501    0  0.00000000000E+00 -0.00000000000E+00 -0.12036033438E+04  0.12036033438E+04  0.00000000000E+00 0. -1.
         23    2    1    2    0    0  0.18696975760E+01 -0.81059343473E+02 -0.63152744465E+03  0.64886559972E+03  0.12500216086E+03 0.  0.
          5    1    3    3  502    0  0.50082252839E+02 -0.86052009995E+02 -0.45117508146E+03  0.46205435244E+03  0.47000000000E+01 0. -1.
         -5    1    3    3    0  502 -0.48212555263E+02  0.49926665215E+01 -0.18035236319E+03  0.18681124728E+03  0.47000000000E+01 0. -1.
        -11    1    1    2    0    0  0.41197741104E+02  0.35196345144E+02 -0.18565607229E+03  0.19340169018E+03  0.00000000000E+00 0. -1.
         11    1    1    2    0    0 -0.43067438680E+02  0.45862998329E+02 -0.37123120837E+03  0.37652467244E+03  0.00000000000E+00 0.  1.
<mgrwt>
<rscale>  0 0.14150351E+03</rscale>
<asrwt>0</asrwt>
<pdfrwt beam="2">  1        2 0.18516982E+00 0.14899548E+03</pdfrwt>
<pdfrwt beam="1">  1       -2 0.23367096E-02 0.14899548E+03</pdfrwt>
<totfact> 0.11863670E+04</totfact>
</mgrwt>
</event>
<event>
 7    1  0.5928109E-006  0.1380727E+03  0.7546771E-02  0.1226907E+00
         -2   -1    0    0    0  501 -0.00000000000E+00  0.00000000000E+00  0.38395037210E+02  0.38395037210E+02  0.00000000000E+00 0.  1.
          2   -1    0    0  501    0  0.00000000000E+00 -0.00000000000E+00 -0.47630131259E+03  0.47630131259E+03  0.00000000000E+00 0. -1.
         23    2    1    2    0    0  0.58253369072E+02 -0.67402256688E+01 -0.13745443968E+03  0.19482760741E+03  0.12500075189E+03 0.  0.
          5    1    3    3  502    0  0.36540463187E+02 -0.49250549902E+02 -0.14991073012E+02  0.63305958532E+02  0.47000000000E+01 0. -1.
         -5    1    3    3    0  502  0.21712905885E+02  0.42510324234E+02 -0.12246336667E+03  0.13152164888E+03  0.47000000000E+01 0. -1.
        -11    1    1    2    0    0  0.17603168696E+01 -0.33035019483E+02 -0.56070908526E+02  0.65102672838E+02  0.00000000000E+00 0.  1.
         11    1    1    2    0    0 -0.60013685942E+02  0.39775245152E+02 -0.24438092717E+03  0.25476606955E+03  0.00000000000E+00 0. -1.
<mgrwt>
<rscale>  0 0.13037083E+03</rscale>
<asrwt>0</asrwt>
<pdfrwt beam="2">  1        2 0.73277123E-01 0.13807271E+03</pdfrwt>
<pdfrwt beam="1">  1       -2 0.59069290E-02 0.13807271E+03</pdfrwt>
<totfact> 0.95061361E+03</totfact>
</mgrwt>
</event>
<event>
 7    1  0.5928109E-006  0.1738276E+03  0.7546771E-02  0.1180471E+00
         -1   -1    0    0    0  501 -0.00000000000E+00  0.00000000000E+00  0.75936416986E+02  0.75936416986E+02  0.00000000000E+00 0.  1.
          1   -1    0    0  501    0  0.00000000000E+00 -0.00000000000E+00 -0.39925754322E+03  0.39925754322E+03  0.00000000000E+00 0. -1.
         23    2    1    2    0    0  0.98656696905E+02  0.69683604727E+02 -0.25935139038E+03  0.31221657506E+03  0.12500838947E+03 0.  0.
          5    1    3    3  502    0 -0.34750528810E+01 -0.98185838333E+01 -0.12530332662E+03  0.12582326590E+03  0.47000000000E+01 0.  1.
         -5    1    3    3    0  502  0.10213174979E+03  0.79502188561E+02 -0.13404806376E+03  0.18639330916E+03  0.47000000000E+01 0.  1.
        -11    1    1    2    0    0  0.11546609723E+02 -0.89245452444E+01  0.93513042872E+01  0.17332587683E+02  0.00000000000E+00 0.  1.
         11    1    1    2    0    0 -0.11020330663E+03 -0.60759059483E+02 -0.73321040145E+02  0.14564479747E+03  0.00000000000E+00 0. -1.
<mgrwt>
<rscale>  0 0.16750906E+03</rscale>
<asrwt>0</asrwt>
<pdfrwt beam="2">  1        1 0.61424237E-01 0.17382763E+03</pdfrwt>
<pdfrwt beam="1">  1       -1 0.11682526E-01 0.17382763E+03</pdfrwt>
<totfact> 0.28501573E+03</totfact>
</mgrwt>
</event>
<event>
 7    1  0.5928109E-006  0.1305791E+03  0.7546771E-02  0.1242036E+00
          2   -1    0    0  501    0  0.00000000000E+00  0.00000000000E+00  0.90466785179E+02  0.90466785179E+02  0.00000000000E+00 0.  1.
         -2   -1    0    0    0  501 -0.00000000000E+00 -0.00000000000E+00 -0.19597600535E+03  0.19597600535E+03  0.00000000000E+00 0. -1.
         23    2    1    2    0    0  0.26249233668E+02  0.27161353947E+02  0.16607804089E+02  0.13163098596E+03  0.12499654352E+03 0.  0.
          5    1    3    3  502    0 -0.11404754798E+02  0.28801768391E+02 -0.47625893676E+02  0.57008122604E+02  0.47000000000E+01 0. -1.
         -5    1    3    3    0  502  0.37653988466E+02 -0.16404144440E+01  0.64233697764E+02  0.74622863356E+02  0.47000000000E+01 0. -1.
        -11    1    1    2    0    0 -0.42466671092E+02 -0.50647486900E+02 -0.77624235263E+02  0.10195149819E+03  0.00000000000E+00 0.  1.
         11    1    1    2    0    0  0.16217437424E+02  0.23486132953E+02 -0.44492788994E+02  0.52860306376E+02  0.00000000000E+00 0. -1.
<mgrwt>
<rscale>  0 0.12064548E+03</rscale>
<asrwt>0</asrwt>
<pdfrwt beam="1">  1        2 0.13917967E-01 0.13057908E+03</pdfrwt>
<pdfrwt beam="2">  1       -2 0.30150154E-01 0.13057908E+03</pdfrwt>
<totfact> 0.41206104E+03</totfact>
</mgrwt>
</event>
<event>
 7    1  0.5928109E-006  0.2036005E+03  0.7546771E-02  0.1147358E+00
         -1   -1    0    0    0  501 -0.00000000000E+00  0.00000000000E+00  0.16267620839E+03  0.16267620839E+03  0.00000000000E+00 0.  1.
          1   -1    0    0  501    0  0.00000000000E+00 -0.00000000000E+00 -0.27619455774E+03  0.27619455774E+03  0.00000000000E+00 0. -1.
         23    2    1    2    0    0 -0.66886639505E+02  0.14181414674E+03 -0.12253774216E+03  0.23507061370E+03  0.12513041361E+03 0.  0.
          5    1    3    3  502    0 -0.12877591515E+02  0.27139090344E+02  0.25813524863E+02  0.39884717045E+02  0.47000000000E+01 0. -1.
         -5    1    3    3    0  502 -0.54009047990E+02  0.11467505640E+03 -0.14835126703E+03  0.19518589665E+03  0.47000000000E+01 0. -1.
        -11    1    1    2    0    0  0.93806064057E+02 -0.89538997749E+02 -0.30163555244E+02  0.13314146550E+03  0.00000000000E+00 0.  1.
         11    1    1    2    0    0 -0.26919424552E+02 -0.52275148993E+02  0.39182948052E+02  0.70658686929E+02  0.00000000000E+00 0. -1.
<mgrwt>
<rscale>  0 0.20284764E+03</rscale>
<asrwt>0</asrwt>
<pdfrwt beam="2">  1        1 0.42491471E-01 0.20360047E+03</pdfrwt>
<pdfrwt beam="1">  1       -1 0.25027109E-01 0.20360047E+03</pdfrwt>
<totfact> 0.13457660E+03</totfact>
</mgrwt>
</event>
<event>
 7    1  0.5928109E-006  0.1717785E+03  0.7546771E-02  0.1183466E+00
         -2   -1    0    0    0  501 -0.00000000000E+00  0.00000000000E+00  0.76975082928E+02  0.76975082928E+02  0.00000000000E+00 0.  1.
          2   -1    0    0  501    0  0.00000000000E+00 -0.00000000000E+00 -0.40760547582E+03  0.40760547582E+03  0.00000000000E+00 0. -1.
         23    2    1    2    0    0 -0.11758781819E+03  0.74920371368E+01 -0.28422548805E+03  0.33210238239E+03  0.12499935491E+03 0.  0.
          5    1    3    3  502    0 -0.50624540848E+02 -0.45741277106E+02 -0.56218980469E+02  0.88531194120E+02  0.47000000000E+01 0.  1.
         -5    1    3    3    0  502 -0.66963277341E+02  0.53233314243E+02 -0.22800650758E+03  0.24357118827E+03  0.47000000000E+01 0.  1.
        -11    1    1    2    0    0  0.25140356796E+02  0.35317607855E+02 -0.14862503533E+02  0.45828647981E+02  0.00000000000E+00 0.  1.
         11    1    1    2    0    0  0.92447461393E+02 -0.42809644992E+02 -0.31542401311E+02  0.10664952838E+03  0.00000000000E+00 0. -1.
<mgrwt>
<rscale>  0 0.16472220E+03</rscale>
<asrwt>0</asrwt>
<pdfrwt beam="2">  1        2 0.62708537E-01 0.17177853E+03</pdfrwt>
<pdfrwt beam="1">  1       -2 0.11842320E-01 0.17177853E+03</pdfrwt>
<totfact> 0.38599116E+03</totfact>
</mgrwt>
</event>
<event>
 7    1  0.5928109E-006  0.1256288E+03  0.7546771E-02  0.1248904E+00
         -2   -1    0    0    0  501 -0.00000000000E+00  0.00000000000E+00  0.12960893519E+02  0.12960893519E+02  0.00000000000E+00 0.  1.
          2   -1    0    0  501    0  0.00000000000E+00 -0.00000000000E+00 -0.10678793730E+04  0.10678793730E+04  0.00000000000E+00 0. -1.
         23    2    1    2    0    0 -0.84097739633E+01  0.93324727533E+01 -0.79284233566E+03  0.80273380026E+03  0.12499906202E+03 0.  0.
          5    1    3    3  502    0 -0.64357784770E+02 -0.75657245412E+01 -0.34442260134E+03  0.35049705129E+03  0.47000000000E+01 0.  1.
         -5    1    3    3    0  502  0.55948010807E+02  0.16898197294E+02 -0.44841973432E+03  0.45223674896E+03  0.47000000000E+01 0.  1.
        -11    1    1    2    0    0 -0.35545292126E+02 -0.31543296460E+01 -0.19102906461E+03  0.19433353060E+03  0.00000000000E+00 0. -1.
         11    1    1    2    0    0  0.43955066090E+02 -0.61781431073E+01 -0.71047079230E+02  0.83772935691E+02  0.00000000000E+00 0.  1.
<mgrwt>
<rscale>  0 0.11654728E+03</rscale>
<asrwt>0</asrwt>
<pdfrwt beam="2">  1        2 0.16428914E+00 0.12562876E+03</pdfrwt>
<pdfrwt beam="1">  1       -2 0.19939835E-02 0.12562876E+03</pdfrwt>
<totfact> 0.17648492E+04</totfact>
</mgrwt>
</event>
<event>
 7    1  0.5928109E-006  0.2586420E+03  0.7546771E-02  0.1110184E+00
          1   -1    0    0  501    0  0.00000000000E+00  0.00000000000E+00  0.74709891541E+03  0.74709891541E+03  0.00000000000E+00 0. -1.
         -1   -1    0    0    0  501 -0.00000000000E+00 -0.00000000000E+00 -0.93405637460E+02  0.93405637460E+02  0.00000000000E+00 0.  1.
         23    2    1    2    0    0  0.13831357508E+03 -0.17928933763E+03  0.46369263183E+03  0.53094872407E+03  0.12498151517E+03 0.  0.
          5    1    3    3  502    0  0.15822356496E+03 -0.17023917489E+03  0.39091336448E+03  0.45480921462E+03  0.47000000000E+01 0. -1.
         -5    1    3    3    0  502 -0.19909989875E+02 -0.90501627358E+01  0.72779267353E+02  0.76139509447E+02  0.47000000000E+01 0. -1.
        -11    1    1    2    0    0 -0.43278703104E+02  0.21155482847E+01  0.34279828820E+02  0.55250595932E+02  0.00000000000E+00 0. -1.
         11    1    1    2    0    0 -0.95034871981E+02  0.17717378934E+03  0.15572081729E+03  0.25430523286E+03  0.00000000000E+00 0.  1.
<mgrwt>
<rscale>  0 0.25500191E+03</rscale>
<asrwt>0</asrwt>
<pdfrwt beam="1">  1        1 0.11493829E+00 0.25864201E+03</pdfrwt>
<pdfrwt beam="2">  1       -1 0.14370099E-01 0.25864201E+03</pdfrwt>
<totfact> 0.88296597E+02</totfact>
</mgrwt>
</event>
<event>
 7    1  0.5928109E-006  0.1402893E+03  0.7546771E-02  0.1223357E+00
         -2   -1    0    0    0  501 -0.00000000000E+00  0.00000000000E+00  0.26443889677E+02  0.26443889677E+02  0.00000000000E+00 0.  1.
          2   -1    0    0  501    0  0.00000000000E+00 -0.00000000000E+00 -0.65848289970E+03  0.65848289970E+03  0.00000000000E+00 0. -1.
         23    2    1    2    0    0 -0.56918985711E+02 -0.28568903117E+02 -0.44492892602E+03  0.46652205934E+03  0.12500051792E+03 0.  0.
          5    1    3    3  502    0 -0.55675711361E+02 -0.21422625070E+02 -0.45163522825E+03  0.45558224625E+03  0.47000000000E+01 0.  1.
         -5    1    3    3    0  502 -0.12432743499E+01 -0.71462780465E+01  0.67063022247E+01  0.10939813095E+02  0.47000000000E+01 0.  1.
        -11    1    1    2    0    0  0.34438768485E+02 -0.24642540544E+02 -0.13177541101E+03  0.13841258081E+03  0.00000000000E+00 0. -1.
         11    1    1    2    0    0  0.22480217226E+02  0.53211443661E+02 -0.55334672985E+02  0.79992149223E+02  0.00000000000E+00 0.  1.
<mgrwt>
<rscale>  0 0.13280150E+03</rscale>
<asrwt>0</asrwt>
<pdfrwt beam="2">  1        2 0.10130506E+00 0.14028928E+03</pdfrwt>
<pdfrwt beam="1">  1       -2 0.40682906E-02 0.14028928E+03</pdfrwt>
<totfact> 0.11573428E+04</totfact>
</mgrwt>
</event>
<event>
 7    1  0.5928109E-006  0.1280675E+03  0.7546771E-02  0.1242318E+00
         -4   -1    0    0    0  501 -0.00000000000E+00  0.00000000000E+00  0.28929853720E+03  0.28929853720E+03  0.00000000000E+00 0.  1.
          4   -1    0    0  501    0  0.00000000000E+00 -0.00000000000E+00 -0.46981250072E+02  0.46981250072E+02  0.00000000000E+00 0. -1.
         23    2    1    2    0    0  0.27450849321E+02  0.48578809003E+01  0.10156060930E+03  0.16344977627E+03  0.12499649541E+03 0.  0.
          5    1    3    3  502    0 -0.18473161191E+02 -0.35775396507E+02  0.92880274150E+02  0.10134087036E+03  0.47000000000E+01 0. -1.
         -5    1    3    3    0  502  0.45924010512E+02  0.40633277407E+02  0.86803351490E+01  0.62108905905E+02  0.47000000000E+01 0. -1.
        -11    1    1    2    0    0 -0.89274132288E+01 -0.48621399367E+02  0.49589590088E+02  0.70020472924E+02  0.00000000000E+00 0.  1.
         11    1    1    2    0    0 -0.18523436093E+02  0.43763518467E+02  0.91167087747E+02  0.10280953809E+03  0.00000000000E+00 0. -1.
<mgrwt>
<rscale>  0 0.12047357E+03</rscale>
<asrwt>0</asrwt>
<pdfrwt beam="2">  1        4 0.72278848E-02 0.12806745E+03</pdfrwt>
<pdfrwt beam="1">  1       -4 0.44507466E-01 0.12806745E+03</pdfrwt>
<totfact> 0.10474336E+03</totfact>
</mgrwt>
</event>
<event>
 7    1  0.5928109E-006  0.1679924E+03  0.7546771E-02  0.1186174E+00
         -2   -1    0    0    0  501 -0.00000000000E+00  0.00000000000E+00  0.25823233940E+02  0.25823233940E+02  0.00000000000E+00 0.  1.
          2   -1    0    0  501    0  0.00000000000E+00 -0.00000000000E+00 -0.12559195794E+04  0.12559195794E+04  0.00000000000E+00 0. -1.
         23    2    1    2    0    0 -0.32871012468E+02 -0.10730886075E+03 -0.96030160751E+03  0.97488493433E+03  0.12500305094E+03 0.  0.
          5    1    3    3  502    0 -0.66572166879E+02 -0.73001855703E+02 -0.38303621141E+03  0.39560075024E+03  0.47000000000E+01 0.  1.
         -5    1    3    3    0  502  0.33701154411E+02 -0.34307005049E+02 -0.57726539611E+03  0.57928418410E+03  0.47000000000E+01 0.  1.
        -11    1    1    2    0    0 -0.11220281059E+02  0.76732495418E+02 -0.87919710492E+02  0.11723329754E+03  0.00000000000E+00 0.  1.
         11    1    1    2    0    0  0.44091293527E+02  0.30576365334E+02 -0.18187502741E+03  0.18962458142E+03  0.00000000000E+00 0. -1.
<mgrwt>
<rscale>  0 0.16225547E+03</rscale>
<asrwt>0</asrwt>
<pdfrwt beam="2">  1        2 0.19321835E+00 0.16799243E+03</pdfrwt>
<pdfrwt beam="1">  1       -2 0.39728062E-02 0.16799243E+03</pdfrwt>
<totfact> 0.50936805E+03</totfact>
</mgrwt>
</event>
<event>
 7    1  0.5928109E-006  0.3563152E+03  0.7546771E-02  0.1061065E+00
          1   -1    0    0  501    0  0.00000000000E+00  0.00000000000E+00  0.34621516327E+03  0.34621516327E+03  0.00000000000E+00 0. -1.
         -1   -1    0    0    0  501 -0.00000000000E+00 -0.00000000000E+00 -0.45805023905E+03  0.45805023905E+03  0.00000000000E+00 0.  1.
         23    2    1    2    0    0 -0.16664556374E+03  0.28908090695E+03  0.13275311141E+03  0.38024189765E+03  0.12498798926E+03 0.  0.
          5    1    3    3  502    0 -0.18072995565E+03  0.25567320337E+03  0.93942798377E+02  0.32692421623E+03  0.47000000000E+01 0. -1.
         -5    1    3    3    0  502  0.14084391909E+02  0.33407703586E+02  0.38810313034E+02  0.53317681421E+02  0.47000000000E+01 0. -1.
        -11    1    1    2    0    0  0.21378823510E+02 -0.14846620629E+02 -0.53715669934E+02  0.59689609106E+02  0.00000000000E+00 0.  1.
         11    1    1    2    0    0  0.14526674023E+03 -0.27423428632E+03 -0.19087251725E+03  0.36433389556E+03  0.00000000000E+00 0. -1.
<mgrwt>
<rscale>  0 0.35380257E+03</rscale>
<asrwt>0</asrwt>
<pdfrwt beam="1">  1        1 0.53263871E-01 0.35631519E+03</pdfrwt>
<pdfrwt beam="2">  1       -1 0.70469268E-01 0.35631519E+03</pdfrwt>
<totfact> 0.15434284E+02</totfact>
</mgrwt>
</event>
<event>
 6    1  0.5928109E-006  0.1956196E+03  0.7546771E-02  0.1179209E+00
          2   -1    0    0  501    0  0.00000000000E+00  0.00000000000E+00  0.13901395501E+04  0.13901395501E+04  0.00000000000E+00 0. -1.
         -2   -1    0    0    0  501 -0.00000000000E+00 -0.00000000000E+00 -0.18879919217E+02  0.18879919217E+02  0.00000000000E+00 0.  1.
          5    1    1    2  502    0  0.40585754664E+02  0.38754800996E+02  0.81449611012E+03  0.81644053151E+03  0.47000000000E+01 0. -1.
         -5    1    1    2    0  502 -0.17965633604E+02 -0.92318095455E+02  0.28030042499E+03  0.29569547340E+03  0.47000000000E+01 0.  1.
        -11    1    1    2    0    0 -0.44713208134E+00  0.75915991922E+02  0.21101606247E+03  0.22425703195E+03  0.00000000000E+00 0.  1.
         11    1    1    2    0    0 -0.22172988979E+02 -0.22352697463E+02  0.65447033244E+02  0.72626432410E+02  0.00000000000E+00 0. -1.
<mgrwt>
<rscale>  0 0.16870169E+03</rscale>
<asrwt>0</asrwt>
<pdfrwt beam="1">  1        2 0.21386754E+00 0.19561963E+03</pdfrwt>
<pdfrwt beam="2">  1       -2 0.29046041E-02 0.19561963E+03</pdfrwt>
<totfact> 0.68896790E+03</totfact>
</mgrwt>
</event>
<event>
 7    1  0.5928109E-006  0.1336392E+03  0.7546771E-02  0.1234982E+00
         -2   -1    0    0    0  501 -0.00000000000E+00  0.00000000000E+00  0.70520472298E+02  0.70520472298E+02  0.00000000000E+00 0.  1.
          2   -1    0    0  501    0  0.00000000000E+00 -0.00000000000E+00 -0.19817081487E+03  0.19817081487E+03  0.00000000000E+00 0. -1.
         23    2    1    2    0    0 -0.39991032685E+02 -0.25212296441E+02 -0.65314720433E+02  0.14874627508E+03  0.12499799622E+03 0.  0.
          5    1    3    3  502    0  0.43050371098E+02  0.79409579870E+01 -0.19235332557E+02  0.48046657366E+02  0.47000000000E+01 0. -1.
         -5    1    3    3    0  502 -0.83041403783E+02 -0.33153254429E+02 -0.46079387876E+02  0.10069961772E+03  0.47000000000E+01 0. -1.
        -11    1    1    2    0    0  0.47407048482E+02 -0.69713866668E+01  0.16425751362E+01  0.47945036561E+02  0.00000000000E+00 0.  1.
         11    1    1    2    0    0 -0.74160157967E+01  0.32183683108E+02 -0.63978197272E+02  0.71999975520E+02  0.00000000000E+00 0. -1.
<mgrwt>
<rscale>  0 0.12505604E+03</rscale>
<asrwt>0</asrwt>
<pdfrwt beam="2">  1        2 0.30487817E-01 0.13363922E+03</pdfrwt>
<pdfrwt beam="1">  1       -2 0.10849304E-01 0.13363922E+03</pdfrwt>
<totfact> 0.94546077E+03</totfact>
</mgrwt>
</event>
<event>
 7    1  0.5928109E-006  0.1278392E+03  0.7546771E-02  0.1239711E+00
          2   -1    0    0  501    0  0.00000000000E+00  0.00000000000E+00  0.39940791395E+02  0.39940791395E+02  0.00000000000E+00 0.  1.
         -2   -1    0    0    0  501 -0.00000000000E+00 -0.00000000000E+00 -0.34990044459E+03  0.34990044459E+03  0.00000000000E+00 0. -1.
         23    2    1    2    0    0  0.27363567420E+01 -0.26648704231E+02 -0.14197682945E+03  0.19105046832E+03  0.12500088103E+03 0.  0.
          5    1    3    3  502    0 -0.14071148942E+02 -0.21020179077E+02  0.17117923702E+02  0.30902402380E+02  0.47000000000E+01 0. -1.
         -5    1    3    3    0  502  0.16807505684E+02 -0.56285251536E+01 -0.15909475316E+03  0.16014806594E+03  0.47000000000E+01 0. -1.
        -11    1    1    2    0    0  0.22404682501E+02 -0.25836271838E+02 -0.11539145838E+03  0.12035228044E+03  0.00000000000E+00 0. -1.
         11    1    1    2    0    0 -0.25141039243E+02  0.52484976069E+02 -0.52591365360E+02  0.78438487221E+02  0.00000000000E+00 0.  1.
<mgrwt>
<rscale>  0 0.12207610E+03</rscale>
<asrwt>0</asrwt>
<pdfrwt beam="1">  1        2 0.61447371E-02 0.12783920E+03</pdfrwt>
<pdfrwt beam="2">  1       -2 0.53830838E-01 0.12783920E+03</pdfrwt>
<totfact> 0.37598168E+03</totfact>
</mgrwt>
</event>
<event>
 7    1  0.5928109E-006  0.1518200E+03  0.7546771E-02  0.1206694E+00
          1   -1    0    0  501    0  0.00000000000E+00  0.00000000000E+00  0.15495274872E+03  0.15495274872E+03  0.00000000000E+00 0. -1.
         -1   -1    0    0    0  501 -0.00000000000E+00 -0.00000000000E+00 -0.12988643423E+03  0.12988643423E+03  0.00000000000E+00 0.  1.
         23    2    1    2    0    0 -0.47465748040E+02  0.71910573586E+02  0.41237907547E+02  0.15732090265E+03  0.12500069425E+03 0.  0.
          5    1    3    3  502    0 -0.84275688373E+02  0.75809706789E+02  0.22883412002E+02  0.11573782372E+03  0.47000000000E+01 0.  1.
         -5    1    3    3    0  502  0.36809940333E+02 -0.38991332033E+01  0.18354495545E+02  0.41583078936E+02  0.47000000000E+01 0.  1.
        -11    1    1    2    0    0 -0.19274783076E+02 -0.52955911916E+02 -0.34324171917E+00  0.56355689015E+02  0.00000000000E+00 0. -1.
         11    1    1    2    0    0  0.66740531116E+02 -0.18954661669E+02 -0.15828351339E+02  0.71162591287E+02  0.00000000000E+00 0.  1.
<mgrwt>
<rscale>  0 0.14504728E+03</rscale>
<asrwt>0</asrwt>
<pdfrwt beam="1">  1        1 0.23838884E-01 0.15181996E+03</pdfrwt>
<pdfrwt beam="2">  1       -1 0.19982528E-01 0.15181996E+03</pdfrwt>
<totfact> 0.39690430E+03</totfact>
</mgrwt>
</event>
<event>
 7    1  0.5928109E-006  0.1313204E+03  0.7546771E-02  0.1239581E+00
          2   -1    0    0  501    0  0.00000000000E+00  0.00000000000E+00  0.11705296208E+04  0.11705296208E+04  0.00000000000E+00 0. -1.
         -2   -1    0    0    0  501 -0.00000000000E+00 -0.00000000000E+00 -0.16972271940E+02  0.16972271940E+02  0.00000000000E+00 0.  1.
         23    2    1    2    0    0 -0.12561513777E+02  0.38249789036E+02  0.97375698742E+03  0.98257198666E+03  0.12499680168E+03 0.  0.
          5    1    3    3  502    0  0.40996091703E+02 -0.24140206011E+02  0.29719819899E+03  0.30101875118E+03  0.47000000000E+01 0.  1.
         -5    1    3    3    0  502 -0.53557605480E+02  0.62389995047E+02  0.67655878843E+03  0.68155323547E+03  0.47000000000E+01 0.  1.
        -11    1    1    2    0    0  0.32457649408E+02  0.19068494481E+02  0.67516680846E+02  0.77302061287E+02  0.00000000000E+00 0. -1.
         11    1    1    2    0    0 -0.19896135630E+02 -0.57318283517E+02  0.11228368059E+03  0.12762784479E+03  0.00000000000E+00 0.  1.
<mgrwt>
<rscale>  0 0.12215653E+03</rscale>
<asrwt>0</asrwt>
<pdfrwt beam="1">  1        2 0.18008142E+00 0.13132037E+03</pdfrwt>
<pdfrwt beam="2">  1       -2 0.26111197E-02 0.13132037E+03</pdfrwt>
<totfact> 0.10453894E+04</totfact>
</mgrwt>
</event>
<event>
 7    1  0.5928109E-006  0.1691839E+03  0.7546771E-02  0.1185130E+00
          1   -1    0    0  501    0  0.00000000000E+00  0.00000000000E+00  0.22797419048E+03  0.22797419048E+03  0.00000000000E+00 0. -1.
         -1   -1    0    0    0  501 -0.00000000000E+00 -0.00000000000E+00 -0.11770424735E+03  0.11770424735E+03  0.00000000000E+00 0.  1.
         23    2    1    2    0    0 -0.10707169181E+03  0.39153744633E+02  0.10494686799E+03  0.19909053793E+03  0.12500333711E+03 0.  0.
          5    1    3    3  502    0 -0.39250209406E+02 -0.37031979991E+02  0.75312986959E+02  0.92768973721E+02  0.47000000000E+01 0. -1.
         -5    1    3    3    0  502 -0.67821482401E+02  0.76185724624E+02  0.29633881035E+02  0.10632156421E+03  0.47000000000E+01 0. -1.
        -11    1    1    2    0    0  0.14744292394E+02  0.26416914206E+02  0.13336567343E+02  0.33062237415E+02  0.00000000000E+00 0. -1.
         11    1    1    2    0    0  0.92327399414E+02 -0.65570658840E+02 -0.80134922065E+01  0.11352566248E+03  0.00000000000E+00 0.  1.
<mgrwt>
<rscale>  0 0.16320077E+03</rscale>
<asrwt>0</asrwt>
<pdfrwt beam="1">  1        1 0.35072952E-01 0.16918392E+03</pdfrwt>
<pdfrwt beam="2">  1       -1 0.18108346E-01 0.16918392E+03</pdfrwt>
<totfact> 0.28804281E+03</totfact>
</mgrwt>
</event>
<event>
 6    1  0.5928109E-006  0.2105487E+03  0.7546771E-02  0.1152523E+00
          2   -1    0    0  501    0  0.00000000000E+00  0.00000000000E+00  0.19764181124E+04  0.19764181124E+04  0.00000000000E+00 0. -1.
         -2   -1    0    0    0  501 -0.00000000000E+00 -0.00000000000E+00 -0.17641720615E+02  0.17641720615E+02  0.00000000000E+00 0.  1.
          5    1    1    2  502    0  0.19120668067E+02  0.40852052844E+02  0.90123641133E+03  0.90237666707E+03  0.47000000000E+01 0. -1.
         -5    1    1    2    0  502  0.10521070741E+03  0.29247553153E+01  0.32058345903E+03  0.33745176152E+03  0.47000000000E+01 0.  1.
        -11    1    1    2    0    0 -0.13646788079E+03 -0.42486220959E+02  0.71466605623E+03  0.72881831302E+03  0.00000000000E+00 0.  1.
         11    1    1    2    0    0  0.12136505318E+02 -0.12905872009E+01  0.22290465220E+02  0.25413091437E+02  0.00000000000E+00 0. -1.
<mgrwt>
<rscale>  0 0.19673553E+03</rscale>
<asrwt>0</asrwt>
<pdfrwt beam="1">  1        2 0.30406415E+00 0.21054866E+03</pdfrwt>
<pdfrwt beam="2">  1       -2 0.27141124E-02 0.21054866E+03</pdfrwt>
<totfact> 0.37577041E+03</totfact>
</mgrwt>
</event>
<event>
 7    1  0.5928109E-006  0.1369425E+03  0.7546771E-02  0.1229612E+00
         -2   -1    0    0    0  501 -0.00000000000E+00  0.00000000000E+00  0.39951489983E+02  0.39951489983E+02  0.00000000000E+00 0.  1.
          2   -1    0    0  501    0  0.00000000000E+00 -0.00000000000E+00 -0.89030124403E+03  0.89030124403E+03  0.00000000000E+00 0. -1.
         23    2    1    2    0    0  0.54750807087E+02  0.11446244850E+02 -0.80167192366E+03  0.81328415574E+03  0.12499830955E+03 0.  0.
          5    1    3    3  502    0 -0.30100866983E+02 -0.29309110624E+02 -0.21978520158E+03  0.22381400982E+03  0.47000000000E+01 0.  1.
         -5    1    3    3    0  502  0.84851674071E+02  0.40755355474E+02 -0.58188672208E+03  0.58947014591E+03  0.47000000000E+01 0.  1.
        -11    1    1    2    0    0 -0.30231606236E+02  0.23308194655E+02 -0.61640898793E+02  0.72503947187E+02  0.00000000000E+00 0. -1.
         11    1    1    2    0    0 -0.24519200852E+02 -0.34754439505E+02  0.12963068404E+02  0.44464631092E+02  0.00000000000E+00 0.  1.
<mgrwt>
<rscale>  0 0.12855727E+03</rscale>
<asrwt>0</asrwt>
<pdfrwt beam="2">  1        2 0.13696942E+00 0.13694249E+03</pdfrwt>
<pdfrwt beam="1">  1       -2 0.61463831E-02 0.13694249E+03</pdfrwt>
<totfact> 0.42934704E+03</totfact>
</mgrwt>
</event>
<event>
 7    1  0.5928109E-006  0.2209481E+03  0.7546771E-02  0.1136514E+00
          2   -1    0    0  501    0  0.00000000000E+00  0.00000000000E+00  0.50032757229E+03  0.50032757229E+03  0.00000000000E+00 0. -1.
         -2   -1    0    0    0  501 -0.00000000000E+00 -0.00000000000E+00 -0.97677538657E+02  0.97677538657E+02  0.00000000000E+00 0.  1.
         23    2    1    2    0    0 -0.97763691076E+02  0.15373598927E+03  0.29202943136E+03  0.36619562534E+03  0.12500221418E+03 0.  0.
          5    1    3    3  502    0 -0.12112794227E+03  0.15056224499E+03  0.23484953085E+03  0.30416666509E+03  0.47000000000E+01 0.  1.
         -5    1    3    3    0  502  0.23364251195E+02  0.31737442778E+01  0.57179900512E+02  0.62028960246E+02  0.47000000000E+01 0.  1.
        -11    1    1    2    0    0  0.87880482796E+02 -0.56619758222E+02  0.71455192921E+02  0.12662788347E+03  0.00000000000E+00 0. -1.
         11    1    1    2    0    0  0.98832082803E+01 -0.97116231045E+02  0.39165409356E+02  0.10518160214E+03  0.00000000000E+00 0.  1.
<mgrwt>
<rscale>  0 0.21650702E+03</rscale>
<asrwt>0</asrwt>
<pdfrwt beam="1">  1        2 0.76973471E-01 0.22094806E+03</pdfrwt>
<pdfrwt beam="2">  1       -2 0.15027314E-01 0.22094806E+03</pdfrwt>
<totfact> 0.21094623E+03</totfact>
</mgrwt>
</event>
<event>
 7    1  0.5928109E-006  0.1536597E+03  0.7546771E-02  0.1204496E+00
         -1   -1    0    0    0  501 -0.00000000000E+00  0.00000000000E+00  0.70062118153E+02  0.70062118153E+02  0.00000000000E+00 0.  1.
          1   -1    0    0  501    0  0.00000000000E+00 -0.00000000000E+00 -0.29183436573E+03  0.29183436573E+03  0.00000000000E+00 0. -1.
         23    2    1    2    0    0 -0.35257284606E+02  0.82101426402E+02 -0.15225999761E+03  0.21632017299E+03  0.12501035971E+03 0.  0.
          5    1    3    3  502    0  0.88808736368E+01  0.78978555828E+02 -0.28102040049E+02  0.84429241688E+02  0.47000000000E+01 0.  1.
         -5    1    3    3    0  502 -0.44138158243E+02  0.31228705743E+01 -0.12415795756E+03  0.13189093130E+03  0.47000000000E+01 0.  1.
        -11    1    1    2    0    0 -0.18265106323E+02 -0.12421203442E+02 -0.51288737147E+02  0.55842949081E+02  0.00000000000E+00 0. -1.
         11    1    1    2    0    0  0.53522390930E+02 -0.69680222960E+02 -0.18223512820E+02  0.89733361812E+02  0.00000000000E+00 0.  1.
<mgrwt>
<rscale>  0 0.14677248E+03</rscale>
<asrwt>0</asrwt>
<pdfrwt beam="2">  1        1 0.44897595E-01 0.15365972E+03</pdfrwt>
<pdfrwt beam="1">  1       -1 0.10778787E-01 0.15365972E+03</pdfrwt>
<totfact> 0.47549402E+03</totfact>
</mgrwt>
</event>
<event>
 7    1  0.5928109E-006  0.1299301E+03  0.7546771E-02  0.1241102E+00
         -1   -1    0    0    0  501 -0.00000000000E+00  0.00000000000E+00  0.36855949775E+02  0.36855949775E+02  0.00000000000E+00 0.  1.
          1   -1    0    0  501    0  0.00000000000E+00 -0.00000000000E+00 -0.46274660155E+03  0.46274660155E+03  0.00000000000E+00 0. -1.
         23    2    1    2    0    0  0.27653370765E+02 -0.22170969830E+02 -0.35575750150E+03  0.37874163407E+03  0.12500225873E+03 0.  0.
          5    1    3    3  502    0  0.41371348786E+02 -0.65611141427E+02 -0.27642068374E+03  0.28713567312E+03  0.47000000000E+01 0.  1.
         -5    1    3    3    0  502 -0.13717978021E+02  0.43440171598E+02 -0.79336817767E+02  0.91605960957E+02  0.47000000000E+01 0.  1.
        -11    1    1    2    0    0 -0.28625897046E+02 -0.12588064396E+02  0.10550418671E+02  0.33003222283E+02  0.00000000000E+00 0.  1.
         11    1    1    2    0    0  0.97252628141E+00  0.34759034226E+02 -0.80683568941E+02  0.87857694967E+02  0.00000000000E+00 0. -1.
<mgrwt>
<rscale>  0 0.12121754E+03</rscale>
<asrwt>0</asrwt>
<pdfrwt beam="2">  1        1 0.71191783E-01 0.12993008E+03</pdfrwt>
<pdfrwt beam="1">  1       -1 0.56701463E-02 0.12993008E+03</pdfrwt>
<totfact> 0.69575454E+03</totfact>
</mgrwt>
</event>
<event>
 7    1  0.5928109E-006  0.1368568E+03  0.7546771E-02  0.1230443E+00
          1   -1    0    0  501    0  0.00000000000E+00  0.00000000000E+00  0.45820250898E+02  0.45820250898E+02  0.00000000000E+00 0. -1.
         -1   -1    0    0    0  501 -0.00000000000E+00 -0.00000000000E+00 -0.32232571699E+03  0.32232571699E+03  0.00000000000E+00 0.  1.
         23    2    1    2    0    0  0.42576247304E+02  0.35973090645E+02 -0.13649238265E+03  0.19328723853E+03  0.12499194363E+03 0.  0.
          5    1    3    3  502    0  0.30835021950E+02 -0.30381902164E+02 -0.29617268184E+01  0.43643102359E+02  0.47000000000E+01 0.  1.
         -5    1    3    3    0  502  0.11741225354E+02  0.66354992809E+02 -0.13353065583E+03  0.14964413617E+03  0.47000000000E+01 0.  1.
        -11    1    1    2    0    0 -0.65891328058E+02 -0.26060302909E+02 -0.66780157781E+02  0.97367324982E+02  0.00000000000E+00 0. -1.
         11    1    1    2    0    0  0.23315080754E+02 -0.99127877359E+01 -0.73232925665E+02  0.77491404379E+02  0.00000000000E+00 0.  1.
<mgrwt>
<rscale>  0 0.12800741E+03</rscale>
<asrwt>0</asrwt>
<pdfrwt beam="1">  1        1 0.70492692E-02 0.13685681E+03</pdfrwt>
<pdfrwt beam="2">  1       -1 0.49588573E-01 0.13685681E+03</pdfrwt>
<totfact> 0.41351511E+03</totfact>
</mgrwt>
</event>
<event>
 7    1  0.5928109E-006  0.1260071E+03  0.7546771E-02  0.1250576E+00
         -2   -1    0    0    0  501 -0.00000000000E+00  0.00000000000E+00  0.52832655577E+02  0.52832655577E+02  0.00000000000E+00 0.  1.
          2   -1    0    0  501    0  0.00000000000E+00 -0.00000000000E+00 -0.83298554534E+03  0.83298554534E+03  0.00000000000E+00 0. -1.
         23    2    1    2    0    0  0.15824423157E+02 -0.13806356212E+01 -0.78638115301E+03  0.79641265272E+03  0.12500190825E+03 0.  0.
          5    1    3    3  502    0  0.35452908173E+02  0.36813612929E+02 -0.14943707777E+03  0.15800531955E+03  0.47000000000E+01 0. -1.
         -5    1    3    3    0  502 -0.19628485016E+02 -0.38194248550E+02 -0.63694407524E+03  0.63840733316E+03  0.47000000000E+01 0. -1.
        -11    1    1    2    0    0 -0.42513306528E+02 -0.12284965596E+02  0.27985579209E+02  0.52359280508E+02  0.00000000000E+00 0.  1.
         11    1    1    2    0    0  0.26688883371E+02  0.13665601217E+02 -0.21757315954E+02  0.37046267690E+02  0.00000000000E+00 0. -1.
<mgrwt>
<rscale>  0 0.11557752E+03</rscale>
<asrwt>0</asrwt>
<pdfrwt beam="2">  1        2 0.12815163E+00 0.12600713E+03</pdfrwt>
<pdfrwt beam="1">  1       -2 0.81281002E-02 0.12600713E+03</pdfrwt>
<totfact> 0.30396084E+03</totfact>
</mgrwt>
</event>
<event>
 7    1  0.5928109E-006  0.1428553E+03  0.7546771E-02  0.1218819E+00
         -2   -1    0    0    0  501 -0.00000000000E+00  0.00000000000E+00  0.15327192331E+03  0.15327192331E+03  0.00000000000E+00 0.  1.
          2   -1    0    0  501    0  0.00000000000E+00 -0.00000000000E+00 -0.11405087869E+03  0.11405087869E+03  0.00000000000E+00 0. -1.
         23    2    1    2    0    0 -0.68901480449E+02  0.56763280487E+01 -0.22568619834E+01  0.14287316768E+03  0.12501205506E+03 0.  0.
          5    1    3    3  502    0 -0.16498180292E+02 -0.48706377030E+02 -0.32907243122E+02  0.61232979401E+02  0.47000000000E+01 0.  1.
         -5    1    3    3    0  502 -0.52403300157E+02  0.54382705079E+02  0.30650381139E+02  0.81640188284E+02  0.47000000000E+01 0.  1.
        -11    1    1    2    0    0  0.49953217960E+02  0.41837324544E+02  0.31331848907E+02  0.72300556468E+02  0.00000000000E+00 0.  1.
         11    1    1    2    0    0  0.18948262490E+02 -0.47513652593E+02  0.10146057700E+02  0.52149077853E+02  0.00000000000E+00 0. -1.
<mgrwt>
<rscale>  0 0.13599672E+03</rscale>
<asrwt>0</asrwt>
<pdfrwt beam="2">  1        2 0.17546289E-01 0.14285534E+03</pdfrwt>
<pdfrwt beam="1">  1       -2 0.23580296E-01 0.14285534E+03</pdfrwt>
<totfact> 0.48814753E+03</totfact>
</mgrwt>
</event>
<event>
 7    1  0.5928109E-006  0.1413149E+03  0.7546771E-02  0.1222299E+00
         -1   -1    0    0    0  501 -0.00000000000E+00  0.00000000000E+00  0.20098392417E+03  0.20098392417E+03  0.00000000000E+00 0.  1.
          1   -1    0    0  501    0  0.00000000000E+00 -0.00000000000E+00 -0.80276756813E+02  0.80276756813E+02  0.00000000000E+00 0. -1.
         23    2    1    2    0    0 -0.11753247068E+01  0.65902797418E+02  0.69784595540E+02  0.15760641235E+03  0.12500132536E+03 0.  0.
          5    1    3    3  502    0  0.11567757388E+02  0.10182571927E+03  0.55437789608E+02  0.11660929908E+03  0.47000000000E+01 0. -1.
         -5    1    3    3    0  502 -0.12743082095E+02 -0.35922921852E+02  0.14346805932E+02  0.40997113266E+02  0.47000000000E+01 0. -1.
        -11    1    1    2    0    0  0.44406991106E+02 -0.33304041752E+02  0.39999818005E+02  0.68418751059E+02  0.00000000000E+00 0.  1.
         11    1    1    2    0    0 -0.43231666399E+02 -0.32598755666E+02  0.10922753808E+02  0.55235517571E+02  0.00000000000E+00 0. -1.
<mgrwt>
<rscale>  0 0.13353794E+03</rscale>
<asrwt>0</asrwt>
<pdfrwt beam="2">  1        1 0.12350270E-01 0.14131487E+03</pdfrwt>
<pdfrwt beam="1">  1       -1 0.30920604E-01 0.14131487E+03</pdfrwt>
<totfact> 0.44893571E+03</totfact>
</mgrwt>
</event>
<event>
 7    1  0.5928109E-006  0.1278492E+03  0.7546771E-02  0.1245127E+00
          2   -1    0    0  501    0  0.00000000000E+00  0.00000000000E+00  0.16591653499E+03  0.16591653499E+03  0.00000000000E+00 0. -1.
         -2   -1    0    0    0  501 -0.00000000000E+00 -0.00000000000E+00 -0.11109710601E+03  0.11109710601E+03  0.00000000000E+00 0.  1.
         23    2    1    2    0    0  0.17321465715E+02  0.20504732411E+02  0.10849836505E+03  0.16768217610E+03  0.12499975895E+03 0.  0.
          5    1    3    3  502    0  0.17244838494E+02  0.64703078966E+02  0.22360610432E+02  0.70752807585E+02  0.47000000000E+01 0. -1.
         -5    1    3    3    0  502  0.76627221685E-01 -0.44198346554E+02  0.86137754619E+02  0.96929368515E+02  0.47000000000E+01 0. -1.
        -11    1    1    2    0    0  0.21509829540E+02  0.13975712708E+02 -0.51289161339E+02  0.57346066853E+02  0.00000000000E+00 0.  1.
         11    1    1    2    0    0 -0.38831295256E+02 -0.34480445119E+02 -0.23897747264E+01  0.51985398047E+02  0.00000000000E+00 0. -1.
<mgrwt>
<rscale>  0 0.11877801E+03</rscale>
<asrwt>0</asrwt>
<pdfrwt beam="1">  1        2 0.25525621E-01 0.12784920E+03</pdfrwt>
<pdfrwt beam="2">  1       -2 0.17091862E-01 0.12784920E+03</pdfrwt>
<totfact> 0.54852112E+03</totfact>
</mgrwt>
</event>
<event>
 7    1  0.5928109E-006  0.1319555E+03  0.7546771E-02  0.1236526E+00
         -2   -1    0    0    0  501 -0.00000000000E+00  0.00000000000E+00  0.24568363247E+02  0.24568363247E+02  0.00000000000E+00 0.  1.
          2   -1    0    0  501    0  0.00000000000E+00 -0.00000000000E+00 -0.56476852774E+03  0.56476852774E+03  0.00000000000E+00 0. -1.
         23    2    1    2    0    0  0.20188748583E+02  0.37103691010E+02 -0.28414852241E+03  0.31329319991E+03  0.12501190691E+03 0.  0.
          5    1    3    3  502    0  0.36414848403E+02  0.75183242801E+02 -0.13856757780E+03  0.16186915951E+03  0.47000000000E+01 0. -1.
         -5    1    3    3    0  502 -0.16226099820E+02 -0.38079551791E+02 -0.14558094460E+03  0.15142404040E+03  0.47000000000E+01 0. -1.
        -11    1    1    2    0    0  0.29795262669E+02  0.49077968437E+01 -0.38644980439E+02  0.49043640367E+02  0.00000000000E+00 0.  1.
         11    1    1    2    0    0 -0.49984011252E+02 -0.42011487854E+02 -0.21740666165E+03  0.22700005071E+03  0.00000000000E+00 0. -1.
<mgrwt>
<rscale>  0 0.12407275E+03</rscale>
<asrwt>0</asrwt>
<pdfrwt beam="2">  1        2 0.86887466E-01 0.13195547E+03</pdfrwt>
<pdfrwt beam="1">  1       -2 0.37797482E-02 0.13195547E+03</pdfrwt>
<totfact> 0.15317807E+04</totfact>
</mgrwt>
</event>
<event>
 7    1  0.5928109E-006  0.1367153E+03  0.7546771E-02  0.1229232E+00
         -1   -1    0    0    0  501 -0.00000000000E+00  0.00000000000E+00  0.94473802020E+02  0.94473802020E+02  0.00000000000E+00 0.  1.
          1   -1    0    0  501    0  0.00000000000E+00 -0.00000000000E+00 -0.16300018533E+03  0.16300018533E+03  0.00000000000E+00 0. -1.
         23    2    1    2    0    0  0.55369346014E+02 -0.12061303529E+01 -0.60314767664E+02  0.14942869904E+03  0.12499538260E+03 0.  0.
          5    1    3    3  502    0  0.19088447273E+02 -0.57099648199E+02 -0.14726378131E+01  0.60406930942E+02  0.47000000000E+01 0. -1.
         -5    1    3    3    0  502  0.36280898742E+02  0.55893517846E+02 -0.58842129851E+02  0.89021768103E+02  0.47000000000E+01 0. -1.
        -11    1    1    2    0    0 -0.40888590623E+02 -0.27019299362E+02 -0.39906661261E+02  0.63201748347E+02  0.00000000000E+00 0. -1.
         11    1    1    2    0    0 -0.14480755391E+02  0.28225429715E+02  0.31695045616E+02  0.44843539957E+02  0.00000000000E+00 0.  1.
<mgrwt>
<rscale>  0 0.12881005E+03</rscale>
<asrwt>0</asrwt>
<pdfrwt beam="2">  1        1 0.25076952E-01 0.13671527E+03</pdfrwt>
<pdfrwt beam="1">  1       -1 0.14534431E-01 0.13671527E+03</pdfrwt>
<totfact> 0.61309910E+03</totfact>
</mgrwt>
</event>
<event>
 7    1  0.5928109E-006  0.3494824E+03  0.7546771E-02  0.1063985E+00
         -2   -1    0    0    0  501 -0.00000000000E+00  0.00000000000E+00  0.53425781419E+03  0.53425781419E+03  0.00000000000E+00 0.  1.
          2   -1    0    0  501    0  0.00000000000E+00 -0.00000000000E+00 -0.29016463554E+03  0.29016463554E+03  0.00000000000E+00 0. -1.
         23    2    1    2    0    0  0.27186108801E+03  0.18056815592E+03 -0.77061261908E+02  0.35787763087E+03  0.12499860194E+03 0.  0.
          5    1    3    3  502    0  0.25019655339E+03  0.19155504959E+03 -0.92841400753E+02  0.32853198937E+03  0.47000000000E+01 0. -1.
         -5    1    3    3    0  502  0.21664534620E+02 -0.10986893670E+02  0.15780138844E+02  0.29345641495E+02  0.47000000000E+01 0. -1.
        -11    1    1    2    0    0 -0.13657134583E+03 -0.48242316289E+02  0.17664382058E+03  0.22843400126E+03  0.00000000000E+00 0. -1.
         11    1    1    2    0    0 -0.13528974218E+03 -0.13232583963E+03  0.14451061998E+03  0.23811081760E+03  0.00000000000E+00 0.  1.
<mgrwt>
<rscale>  0 0.34668178E+03</rscale>
<asrwt>0</asrwt>
<pdfrwt beam="2">  1        2 0.44640713E-01 0.34948242E+03</pdfrwt>
<pdfrwt beam="1">  1       -2 0.82193510E-01 0.34948242E+03</pdfrwt>
<totfact> 0.15241525E+02</totfact>
</mgrwt>
</event>
<event>
 7    1  0.5928109E-006  0.1300463E+03  0.7546771E-02  0.1241148E+00
          1   -1    0    0  501    0  0.00000000000E+00  0.00000000000E+00  0.31644210246E+03  0.31644210246E+03  0.00000000000E+00 0. -1.
         -1   -1    0    0    0  501 -0.00000000000E+00 -0.00000000000E+00 -0.92624337697E+02  0.92624337697E+02  0.00000000000E+00 0.  1.
         23    2    1    2    0    0  0.22329705120E+01  0.35770733588E+02  0.27073256174E+03  0.30034674080E+03  0.12501005233E+03 0.  0.
          5    1    3    3  502    0  0.61616426208E+02  0.71418660346E+01  0.15590530331E+03  0.16785751050E+03  0.47000000000E+01 0.  1.
         -5    1    3    3    0  502 -0.59383455696E+02  0.28628867553E+02  0.11482725843E+03  0.13248923030E+03  0.47000000000E+01 0.  1.
        -11    1    1    2    0    0 -0.39133911743E+02 -0.35240961779E+02 -0.48758495638E+02  0.71768930132E+02  0.00000000000E+00 0.  1.
         11    1    1    2    0    0  0.36900941231E+02 -0.52977180843E+00  0.18436986627E+01  0.36950769230E+02  0.00000000000E+00 0. -1.
<mgrwt>
<rscale>  0 0.12118940E+03</rscale>
<asrwt>0</asrwt>
<pdfrwt beam="1">  1        1 0.48683400E-01 0.13004632E+03</pdfrwt>
<pdfrwt beam="2">  1       -1 0.14249898E-01 0.13004632E+03</pdfrwt>
<totfact> 0.27694214E+03</totfact>
</mgrwt>
</event>
<event>
 7    1  0.5928109E-006  0.1251208E+03  0.7546771E-02  0.1251713E+00
          1   -1    0    0  501    0  0.00000000000E+00  0.00000000000E+00  0.18955144306E+03  0.18955144306E+03  0.00000000000E+00 0. -1.
         -1   -1    0    0    0  501 -0.00000000000E+00 -0.00000000000E+00 -0.67016708462E+02  0.67016708462E+02  0.00000000000E+00 0.  1.
         23    2    1    2    0    0  0.33786579699E+01  0.43156585332E+01  0.11006771950E+03  0.16664367415E+03  0.12500068407E+03 0.  0.
          5    1    3    3  502    0  0.17315144306E+02  0.57773797637E+02  0.25790178370E+02  0.65763585791E+02  0.47000000000E+01 0.  1.
         -5    1    3    3    0  502 -0.13936486336E+02 -0.53458139103E+02  0.84277541131E+02  0.10088008836E+03  0.47000000000E+01 0.  1.
        -11    1    1    2    0    0 -0.22041876107E+02 -0.22130140649E+02 -0.27989968090E+02  0.41940740828E+02  0.00000000000E+00 0.  1.
         11    1    1    2    0    0  0.18663218137E+02  0.17814482116E+02  0.40456983184E+02  0.47983736543E+02  0.00000000000E+00 0. -1.
<mgrwt>
<rscale>  0 0.11492460E+03</rscale>
<asrwt>0</asrwt>
<pdfrwt beam="1">  1        1 0.29161760E-01 0.12512079E+03</pdfrwt>
<pdfrwt beam="2">  1       -1 0.10310263E-01 0.12512079E+03</pdfrwt>
<totfact> 0.85736057E+03</totfact>
</mgrwt>
</event>
<event>
 7    1  0.5928109E-006  0.1369271E+03  0.7546771E-02  0.1229875E+00
         -2   -1    0    0    0  501 -0.00000000000E+00  0.00000000000E+00  0.10286906745E+03  0.10286906745E+03  0.00000000000E+00 0.  1.
          2   -1    0    0  501    0  0.00000000000E+00 -0.00000000000E+00 -0.17135387521E+03  0.17135387521E+03  0.00000000000E+00 0. -1.
         23    2    1    2    0    0  0.49973037562E+02 -0.25042775272E+02 -0.93100415137E+02  0.16557991280E+03  0.12499830058E+03 0.  0.
          5    1    3    3  502    0 -0.12417421255E+02 -0.18575163563E+02  0.23706398490E+02  0.32913711146E+02  0.47000000000E+01 0.  1.
         -5    1    3    3    0  502  0.62390458817E+02 -0.64676117093E+01 -0.11680681363E+03  0.13266620166E+03  0.47000000000E+01 0.  1.
        -11    1    1    2    0    0 -0.49554533824E+02 -0.13920583472E+02  0.41556373994E+02  0.66154113147E+02  0.00000000000E+00 0.  1.
         11    1    1    2    0    0 -0.41850373823E+00  0.38963358744E+02 -0.16940766618E+02  0.42488916715E+02  0.00000000000E+00 0. -1.
<mgrwt>
<rscale>  0 0.12838270E+03</rscale>
<asrwt>0</asrwt>
<pdfrwt beam="2">  1        2 0.26362134E-01 0.13692706E+03</pdfrwt>
<pdfrwt beam="1">  1       -2 0.15826011E-01 0.13692706E+03</pdfrwt>
<totfact> 0.60384826E+03</totfact>
</mgrwt>
</event>
<event>
 7    1  0.5928109E-006  0.1361605E+03  0.7546771E-02  0.1230265E+00
          3   -1    0    0  501    0  0.00000000000E+00  0.00000000000E+00  0.42671490010E+02  0.42671490010E+02  0.00000000000E+00 0. -1.
         -3   -1    0    0    0  501 -0.00000000000E+00 -0.00000000000E+00 -0.39613991550E+03  0.39613991550E+03  0.00000000000E+00 0.  1.
         23    2    1    2    0    0 -0.37513380047E+02 -0.38784127634E+02 -0.11762112533E+03  0.17992890127E+03  0.12501287193E+03 0.  0.
          5    1    3    3  502    0  0.37518429616E+02  0.57801018759E+01 -0.68935696747E+01  0.38867125458E+02  0.47000000000E+01 0. -1.
         -5    1    3    3    0  502 -0.75031809662E+02 -0.44564229509E+02 -0.11072755565E+03  0.14106177581E+03  0.47000000000E+01 0. -1.
        -11    1    1    2    0    0  0.50012822287E+02  0.15415385600E+02 -0.22368080099E+03  0.22972160812E+03  0.00000000000E+00 0.  1.
         11    1    1    2    0    0 -0.12499442240E+02  0.23368742034E+02 -0.12166499171E+02  0.29160896122E+02  0.00000000000E+00 0. -1.
<mgrwt>
<rscale>  0 0.12812485E+03</rscale>
<asrwt>0</asrwt>
<pdfrwt beam="1">  1        3 0.65648445E-02 0.13616049E+03</pdfrwt>
<pdfrwt beam="2">  1       -3 0.60944603E-01 0.13616049E+03</pdfrwt>
<totfact> 0.90596690E+02</totfact>
</mgrwt>
</event>
<event>
 7    1  0.5928109E-006  0.1306993E+03  0.7546771E-02  0.1239781E+00
          2   -1    0    0  501    0  0.00000000000E+00  0.00000000000E+00  0.92234604490E+03  0.92234604490E+03  0.00000000000E+00 0.  1.
         -2   -1    0    0    0  501 -0.00000000000E+00 -0.00000000000E+00 -0.35154442111E+02  0.35154442111E+02  0.00000000000E+00 0. -1.
         23    2    1    2    0    0  0.37172579073E+02 -0.90218704393E+01  0.83524020151E+03  0.84540433757E+03  0.12497641766E+03 0.  0.
          5    1    3    3  502    0  0.24968278398E+02 -0.46911781444E+02  0.74197343374E+03  0.74388896788E+03  0.47000000000E+01 0.  1.
         -5    1    3    3    0  502  0.12204300675E+02  0.37889911005E+02  0.93266767776E+02  0.10151536969E+03  0.47000000000E+01 0.  1.
        -11    1    1    2    0    0 -0.44330558570E+02 -0.87358909034E+00  0.74359836998E+02  0.86575671752E+02  0.00000000000E+00 0.  1.
         11    1    1    2    0    0  0.71579794970E+01  0.98954595296E+01 -0.22408435726E+02  0.25520477688E+02  0.00000000000E+00 0. -1.
<mgrwt>
<rscale>  0 0.12203258E+03</rscale>
<asrwt>0</asrwt>
<pdfrwt beam="1">  1        2 0.14189937E+00 0.13069927E+03</pdfrwt>
<pdfrwt beam="2">  1       -2 0.54083764E-02 0.13069927E+03</pdfrwt>
<totfact> 0.49650997E+03</totfact>
</mgrwt>
</event>
<event>
 7    1  0.5928109E-006  0.1572695E+03  0.7546771E-02  0.1199845E+00
         -1   -1    0    0    0  501 -0.00000000000E+00  0.00000000000E+00  0.10967249314E+03  0.10967249314E+03  0.00000000000E+00 0.  1.
          1   -1    0    0  501    0  0.00000000000E+00 -0.00000000000E+00 -0.19322957654E+03  0.19322957654E+03  0.00000000000E+00 0. -1.
         23    2    1    2    0    0 -0.89565531651E+02  0.32923140549E+02 -0.27966376388E+02  0.15973669430E+03  0.12501110213E+03 0.  0.
          5    1    3    3  502    0 -0.69959154657E+02 -0.40535432400E+02 -0.17307941936E+02  0.82819438867E+02  0.47000000000E+01 0. -1.
         -5    1    3    3    0  502 -0.19606376994E+02  0.73458572949E+02 -0.10658434452E+02  0.76917255434E+02  0.47000000000E+01 0. -1.
        -11    1    1    2    0    0  0.61400653091E+02 -0.31897625347E+02  0.11733909446E+02  0.70179650424E+02  0.00000000000E+00 0.  1.
         11    1    1    2    0    0  0.28164878560E+02 -0.10255152021E+01 -0.67324616461E+02  0.72985724956E+02  0.00000000000E+00 0. -1.
<mgrwt>
<rscale>  0 0.15051186E+03</rscale>
<asrwt>0</asrwt>
<pdfrwt beam="2">  1        1 0.29727627E-01 0.15726949E+03</pdfrwt>
<pdfrwt beam="1">  1       -1 0.16872691E-01 0.15726949E+03</pdfrwt>
<totfact> 0.39493884E+03</totfact>
</mgrwt>
</event>
<event>
 7    1  0.5928109E-006  0.1391713E+03  0.7546771E-02  0.1226814E+00
         -1   -1    0    0    0  501 -0.00000000000E+00  0.00000000000E+00  0.32780662935E+02  0.32780662935E+02  0.00000000000E+00 0.  1.
          1   -1    0    0  501    0  0.00000000000E+00 -0.00000000000E+00 -0.46364948061E+03  0.46364948061E+03  0.00000000000E+00 0. -1.
         23    2    1    2    0    0 -0.28650893640E+02 -0.54086809611E+02 -0.24018536461E+03  0.27759262423E+03  0.12498959548E+03 0.  0.
          5    1    3    3  502    0 -0.22004807522E+02 -0.78530367332E+02 -0.23812442113E+03  0.25174701604E+03  0.47000000000E+01 0.  1.
         -5    1    3    3    0  502 -0.66460861175E+01  0.24443557721E+02 -0.20609434734E+01  0.25845608191E+02  0.47000000000E+01 0.  1.
        -11    1    1    2    0    0  0.13441269693E+02 -0.22007473120E+02 -0.25165193884E+02  0.36031702531E+02  0.00000000000E+00 0.  1.
         11    1    1    2    0    0  0.15209623947E+02  0.76094282731E+02 -0.16551825919E+03  0.18280581678E+03  0.00000000000E+00 0. -1.
<mgrwt>
<rscale>  0 0.13043359E+03</rscale>
<asrwt>0</asrwt>
<pdfrwt beam="2">  1        1 0.71330689E-01 0.13917132E+03</pdfrwt>
<pdfrwt beam="1">  1       -1 0.50431789E-02 0.13917132E+03</pdfrwt>
<totfact> 0.82930728E+03</totfact>
</mgrwt>
</event>
<event>
 7    1  0.5928109E-006  0.1255927E+03  0.7546771E-02  0.1249861E+00
          2   -1    0    0  501    0  0.00000000000E+00  0.00000000000E+00  0.13419606582E+03  0.13419606582E+03  0.00000000000E+00 0. -1.
         -2   -1    0    0    0  501 -0.00000000000E+00 -0.00000000000E+00 -0.14978675942E+03  0.14978675942E+03  0.00000000000E+00 0.  1.
         23    2    1    2    0    0  0.44081231243E+01  0.11389759966E+02  0.82237733135E+02  0.15012184482E+03  0.12499746141E+03 0.  0.
          5    1    3    3  502    0 -0.52339001601E+02  0.30279438935E+02  0.62191956880E+02  0.86868550186E+02  0.47000000000E+01 0.  1.
         -5    1    3    3    0  502  0.56747124725E+02 -0.18889678969E+02  0.20045776255E+02  0.63253294632E+02  0.47000000000E+01 0.  1.
        -11    1    1    2    0    0  0.90328201496E+01  0.38109223367E+02 -0.33133345220E+02  0.51300324668E+02  0.00000000000E+00 0.  1.
         11    1    1    2    0    0 -0.13440943274E+02 -0.49498983333E+02 -0.64695081513E+02  0.82560655758E+02  0.00000000000E+00 0. -1.
<mgrwt>
<rscale>  0 0.11599077E+03</rscale>
<asrwt>0</asrwt>
<pdfrwt beam="1">  1        2 0.20645548E-01 0.12559269E+03</pdfrwt>
<pdfrwt beam="2">  1       -2 0.23044117E-01 0.12559269E+03</pdfrwt>
<totfact> 0.41878198E+03</totfact>
</mgrwt>
</event>
<event>
 7    1  0.5928109E-006  0.1396572E+03  0.7546771E-02  0.1224962E+00
          3   -1    0    0  501    0  0.00000000000E+00  0.00000000000E+00  0.24064058544E+03  0.24064058544E+03  0.00000000000E+00 0. -1.
         -3   -1    0    0    0  501 -0.00000000000E+00 -0.00000000000E+00 -0.66021266663E+02  0.66021266663E+02  0.00000000000E+00 0.  1.
         23    2    1    2    0    0 -0.73155187725E+01 -0.62129377857E+02  0.11651151866E+03  0.18187649953E+03  0.12486212674E+03 0.  0.
          5    1    3    3  502    0 -0.52948483816E+02 -0.54713031174E+02  0.26818626020E+02  0.80860289514E+02  0.47000000000E+01 0. -1.
         -5    1    3    3    0  502  0.45632965044E+02 -0.74163466825E+01  0.89692892638E+02  0.10101621002E+03  0.47000000000E+01 0. -1.
        -11    1    1    2    0    0 -0.12174931865E+02  0.77717094132E+02  0.23467055008E+02  0.82090671559E+02  0.00000000000E+00 0.  1.
         11    1    1    2    0    0  0.19490450638E+02 -0.15587716276E+02  0.34640745112E+02  0.42694681011E+02  0.00000000000E+00 0. -1.
<mgrwt>
<rscale>  0 0.13169509E+03</rscale>
<asrwt>0</asrwt>
<pdfrwt beam="1">  1        3 0.37021628E-01 0.13965718E+03</pdfrwt>
<pdfrwt beam="2">  1       -3 0.10157118E-01 0.13965718E+03</pdfrwt>
<totfact> 0.11994194E+03</totfact>
</mgrwt>
</event>
<event>
 7    1  0.5928109E-006  0.1259219E+03  0.7546771E-02  0.1247385E+00
          2   -1    0    0  501    0  0.00000000000E+00  0.00000000000E+00  0.10468897389E+03  0.10468897389E+03  0.00000000000E+00 0. -1.
         -2   -1    0    0    0  501 -0.00000000000E+00 -0.00000000000E+00 -0.12417825501E+03  0.12417825501E+03  0.00000000000E+00 0.  1.
         23    2    1    2    0    0 -0.61381449753E+01 -0.13929999386E+02  0.16569308057E+02  0.12700738926E+03  0.12499845299E+03 0.  0.
          5    1    3    3  502    0  0.46056395082E+02 -0.36915259333E+02 -0.15771447453E+02  0.61276067550E+02  0.47000000000E+01 0.  1.
         -5    1    3    3    0  502 -0.52194540057E+02  0.22985259948E+02  0.32340755510E+02  0.65731321709E+02  0.47000000000E+01 0.  1.
        -11    1    1    2    0    0  0.27178855476E+02 -0.27566625788E+02  0.59602526577E+01  0.39168018256E+02  0.00000000000E+00 0. -1.
         11    1    1    2    0    0 -0.21040710501E+02  0.41496625174E+02 -0.42018841834E+02  0.62691821383E+02  0.00000000000E+00 0.  1.
<mgrwt>
<rscale>  0 0.11743786E+03</rscale>
<asrwt>0</asrwt>
<pdfrwt beam="1">  1        2 0.16105996E-01 0.12592194E+03</pdfrwt>
<pdfrwt beam="2">  1       -2 0.19104347E-01 0.12592194E+03</pdfrwt>
<totfact> 0.76481873E+03</totfact>
</mgrwt>
</event>
<event>
 7    1  0.5928109E-006  0.1272571E+03  0.7546771E-02  0.1246472E+00
          3   -1    0    0  501    0  0.00000000000E+00  0.00000000000E+00  0.12513812603E+03  0.12513812603E+03  0.00000000000E+00 0. -1.
         -3   -1    0    0    0  501 -0.00000000000E+00 -0.00000000000E+00 -0.10124605129E+03  0.10124605129E+03  0.00000000000E+00 0.  1.
         23    2    1    2    0    0  0.20161058861E+02 -0.12875530512E+02  0.34320000605E+02  0.13180373709E+03  0.12498845983E+03 0.  0.
          5    1    3    3  502    0  0.12974213518E+02  0.55008080829E+02  0.36788596759E+01  0.56831709295E+02  0.47000000000E+01 0. -1.
         -5    1    3    3    0  502  0.71868453432E+01 -0.67883611341E+02  0.30641140929E+02  0.74972027798E+02  0.47000000000E+01 0. -1.
        -11    1    1    2    0    0  0.24488659172E+02  0.74213282295E+01 -0.34975558791E+02  0.43336592546E+02  0.00000000000E+00 0.  1.
         11    1    1    2    0    0 -0.44649718033E+02  0.54542022828E+01  0.24547632928E+02  0.51243847683E+02  0.00000000000E+00 0. -1.
<mgrwt>
<rscale>  0 0.11797713E+03</rscale>
<asrwt>0</asrwt>
<pdfrwt beam="1">  1        3 0.19252019E-01 0.12725707E+03</pdfrwt>
<pdfrwt beam="2">  1       -3 0.15576316E-01 0.12725707E+03</pdfrwt>
<totfact> 0.18934806E+03</totfact>
</mgrwt>
</event>
<event>
 7    1  0.5928109E-006  0.1554839E+03  0.7546771E-02  0.1204408E+00
          2   -1    0    0  501    0  0.00000000000E+00  0.00000000000E+00  0.52136428058E+03  0.52136428058E+03  0.00000000000E+00 0. -1.
         -2   -1    0    0    0  501 -0.00000000000E+00 -0.00000000000E+00 -0.37476703320E+02  0.37476703320E+02  0.00000000000E+00 0.  1.
         23    2    1    2    0    0  0.28780134112E+02 -0.87877302086E+02  0.28399806147E+03  0.32377484149E+03  0.12499813087E+03 0.  0.
          5    1    3    3  502    0  0.34595910883E+01  0.21989466296E+02  0.56782661752E+01  0.23448626937E+02  0.47000000000E+01 0. -1.
         -5    1    3    3    0  502  0.25320543023E+02 -0.10986676838E+03  0.27831979529E+03  0.30032621455E+03  0.47000000000E+01 0. -1.
        -11    1    1    2    0    0  0.28385499291E+02  0.23142056317E+02  0.71479945115E+02  0.80316087393E+02  0.00000000000E+00 0.  1.
         11    1    1    2    0    0 -0.57165633402E+02  0.64735245769E+02  0.12840957068E+03  0.15475005502E+03  0.00000000000E+00 0. -1.
<mgrwt>
<rscale>  0 0.14684241E+03</rscale>
<asrwt>0</asrwt>
<pdfrwt beam="1">  1        2 0.80209884E-01 0.15548392E+03</pdfrwt>
<pdfrwt beam="2">  1       -2 0.57656471E-02 0.15548392E+03</pdfrwt>
<totfact> 0.89968334E+03</totfact>
</mgrwt>
</event>
<event>
 7    1  0.5928109E-006  0.1681626E+03  0.7546771E-02  0.1186756E+00
         -2   -1    0    0    0  501 -0.00000000000E+00  0.00000000000E+00  0.13278349255E+02  0.13278349255E+02  0.00000000000E+00 0.  1.
          2   -1    0    0  501    0  0.00000000000E+00 -0.00000000000E+00 -0.20038589472E+04  0.20038589472E+04  0.00000000000E+00 0. -1.
         23    2    1    2    0    0  0.89956151159E+02  0.67537672437E+02 -0.13596554207E+04  0.13700151581E+04  0.12500089575E+03 0.  0.
          5    1    3    3  502    0  0.61018707735E+02  0.98356084598E+02 -0.75170052013E+03  0.76057410161E+03  0.47000000000E+01 0.  1.
         -5    1    3    3    0  502  0.28937443424E+02 -0.30818412160E+02 -0.60795490059E+03  0.60944105647E+03  0.47000000000E+01 0.  1.
        -11    1    1    2    0    0 -0.16520412029E+02 -0.66859641181E+02 -0.25795015025E+03  0.26698579671E+03  0.00000000000E+00 0.  1.
         11    1    1    2    0    0 -0.73435739130E+02 -0.67803125661E+00 -0.37297502698E+03  0.38013634167E+03  0.00000000000E+00 0. -1.
<mgrwt>
<rscale>  0 0.16173152E+03</rscale>
<asrwt>0</asrwt>
<pdfrwt beam="2">  1        2 0.30828588E+00 0.16816263E+03</pdfrwt>
<pdfrwt beam="1">  1       -2 0.20428237E-02 0.16816263E+03</pdfrwt>
<totfact> 0.55143249E+03</totfact>
</mgrwt>
</event>
<event>
 7    1  0.5928109E-006  0.1407016E+03  0.7546771E-02  0.1223328E+00
          1   -1    0    0  501    0  0.00000000000E+00  0.00000000000E+00  0.45346048187E+02  0.45346048187E+02  0.00000000000E+00 0. -1.
         -1   -1    0    0    0  501 -0.00000000000E+00 -0.00000000000E+00 -0.36478567814E+03  0.36478567814E+03  0.00000000000E+00 0.  1.
         23    2    1    2    0    0  0.52600071032E+02 -0.37497517711E+02 -0.13821515941E+03  0.19723180345E+03  0.12499649072E+03 0.  0.
          5    1    3    3  502    0  0.67708157003E+02 -0.69985340337E+02 -0.12551508161E+03  0.15892912917E+03  0.47000000000E+01 0. -1.
         -5    1    3    3    0  502 -0.15108085971E+02  0.32487822626E+02 -0.12700077802E+02  0.38302674278E+02  0.47000000000E+01 0. -1.
        -11    1    1    2    0    0 -0.51314970651E+01  0.54668192477E+02 -0.12933439306E+03  0.14050739753E+03  0.00000000000E+00 0.  1.
         11    1    1    2    0    0 -0.47468573967E+02 -0.17170674767E+02 -0.51890077477E+02  0.72392525353E+02  0.00000000000E+00 0. -1.
<mgrwt>
<rscale>  0 0.13282166E+03</rscale>
<asrwt>0</asrwt>
<pdfrwt beam="1">  1        1 0.69763152E-02 0.14070165E+03</pdfrwt>
<pdfrwt beam="2">  1       -1 0.56120873E-01 0.14070165E+03</pdfrwt>
<totfact> 0.33424172E+03</totfact>
</mgrwt>
</event>
<event>
 7    1  0.5928109E-006  0.2328542E+03  0.7546771E-02  0.1127499E+00
         -1   -1    0    0    0  501 -0.00000000000E+00  0.00000000000E+00  0.42756603917E+02  0.42756603917E+02  0.00000000000E+00 0.  1.
          1   -1    0    0  501    0  0.00000000000E+00 -0.00000000000E+00 -0.14015928293E+04  0.14015928293E+04  0.00000000000E+00 0. -1.
         23    2    1    2    0    0  0.16538815256E+03 -0.10602401365E+03 -0.98454346742E+03  0.10117049592E+04  0.12500701111E+03 0.  0.
          5    1    3    3  502    0  0.79045923306E+02 -0.11442504049E+03 -0.48108051903E+03  0.50080126165E+03  0.47000000000E+01 0.  1.
         -5    1    3    3    0  502  0.86342229253E+02  0.84010268340E+01 -0.50346294839E+03  0.51090369758E+03  0.47000000000E+01 0.  1.
        -11    1    1    2    0    0 -0.16028619949E+03  0.76003966079E+02 -0.35426832943E+03  0.39619984584E+03  0.00000000000E+00 0. -1.
         11    1    1    2    0    0 -0.51019530721E+01  0.30020047574E+02 -0.20024428509E+02  0.36444628117E+02  0.00000000000E+00 0.  1.
<mgrwt>
<rscale>  0 0.22878353E+03</rscale>
<asrwt>0</asrwt>
<pdfrwt beam="2">  1        1 0.21562968E+00 0.23285421E+03</pdfrwt>
<pdfrwt beam="1">  1       -1 0.65779387E-02 0.23285421E+03</pdfrwt>
<totfact> 0.97050563E+02</totfact>
</mgrwt>
</event>
<event>
 7    1  0.5928109E-006  0.1361866E+03  0.7546771E-02  0.1230950E+00
         -2   -1    0    0    0  501 -0.00000000000E+00  0.00000000000E+00  0.28581022255E+03  0.28581022255E+03  0.00000000000E+00 0.  1.
          2   -1    0    0  501    0  0.00000000000E+00 -0.00000000000E+00 -0.58302513530E+02  0.58302513530E+02  0.00000000000E+00 0. -1.
         23    2    1    2    0    0 -0.53247369996E+02  0.93310848790E+01  0.65923683081E+02  0.15130343767E+03  0.12499778679E+03 0.  0.
          5    1    3    3  502    0 -0.15080926574E+02  0.38005536244E+02  0.89012604442E+02  0.98067267123E+02  0.47000000000E+01 0.  1.
         -5    1    3    3    0  502 -0.38166443422E+02 -0.28674451365E+02 -0.23088921361E+02  0.53236170543E+02  0.47000000000E+01 0.  1.
        -11    1    1    2    0    0  0.26168476326E+02 -0.42661102316E+02  0.40647662711E+02  0.64474733717E+02  0.00000000000E+00 0.  1.
         11    1    1    2    0    0  0.27078893669E+02  0.33330017437E+02  0.12093636323E+03  0.12833456470E+03  0.00000000000E+00 0. -1.
<mgrwt>
<rscale>  0 0.12767322E+03</rscale>
<asrwt>0</asrwt>
<pdfrwt beam="2">  1        2 0.89696177E-02 0.13618663E+03</pdfrwt>
<pdfrwt beam="1">  1       -2 0.43970802E-01 0.13618663E+03</pdfrwt>
<totfact> 0.34860985E+03</totfact>
</mgrwt>
</event>
<event>
 7    1  0.5928109E-006  0.1213565E+03  0.7546771E-02  0.1245962E+00
         -1   -1    0    0    0  501 -0.00000000000E+00  0.00000000000E+00  0.91616418429E+02  0.91616418429E+02  0.00000000000E+00 0.  1.
          1   -1    0    0  501    0  0.00000000000E+00 -0.00000000000E+00 -0.21843024892E+03  0.21843024892E+03  0.00000000000E+00 0. -1.
         23    2    1    2    0    0  0.92800219908E+01  0.48091294810E+02 -0.15510692487E+03  0.19694050629E+03  0.11103383911E+03 0.  0.
          5    1    3    3  502    0  0.18297425851E+02  0.63153732459E+02 -0.16396754882E+03  0.17672191936E+03  0.47000000000E+01 0. -1.
         -5    1    3    3    0  502 -0.90174038604E+01 -0.15062437649E+02  0.88606239494E+01  0.20218586921E+02  0.47000000000E+01 0.  1.
        -11    1    1    2    0    0 -0.46464806167E+02  0.20884926965E+01  0.65331089764E+01  0.46968303427E+02  0.00000000000E+00 0.  1.
         11    1    1    2    0    0  0.37184784176E+02 -0.50179787507E+02  0.21759985405E+02  0.66137857640E+02  0.00000000000E+00 0. -1.
<mgrwt>
<rscale>  0 0.11827993E+03</rscale>
<asrwt>0</asrwt>
<pdfrwt beam="2">  1        1 0.33604654E-01 0.12135652E+03</pdfrwt>
<pdfrwt beam="1">  1       -1 0.14094834E-01 0.12135652E+03</pdfrwt>
<totfact> 0.44351049E+03</totfact>
</mgrwt>
</event>
<event>
 7    1  0.5928109E-006  0.1704807E+03  0.7546771E-02  0.1183547E+00
          1   -1    0    0  501    0  0.00000000000E+00  0.00000000000E+00  0.18076393423E+03  0.18076393423E+03  0.00000000000E+00 0. -1.
         -1   -1    0    0    0  501 -0.00000000000E+00 -0.00000000000E+00 -0.15249513805E+03  0.15249513805E+03  0.00000000000E+00 0.  1.
         23    2    1    2    0    0 -0.34211570655E+02  0.11093875244E+03  0.61551731323E+02  0.18125195202E+03  0.12484316611E+03 0.  0.
          5    1    3    3  502    0 -0.54753647100E+02 -0.23836190797E+01  0.24107249956E+02  0.60057414289E+02  0.47000000000E+01 0.  1.
         -5    1    3    3    0  502  0.20542076446E+02  0.11332237152E+03  0.37444481367E+02  0.12119453773E+03  0.47000000000E+01 0.  1.
        -11    1    1    2    0    0 -0.15456351988E+02 -0.79760399558E+02 -0.43998676057E+02  0.92393201315E+02  0.00000000000E+00 0.  1.
         11    1    1    2    0    0  0.49667922643E+02 -0.31178352883E+02  0.10715740915E+02  0.59613918941E+02  0.00000000000E+00 0. -1.
<mgrwt>
<rscale>  0 0.16464754E+03</rscale>
<asrwt>0</asrwt>
<pdfrwt beam="1">  1        1 0.27809836E-01 0.17048066E+03</pdfrwt>
<pdfrwt beam="2">  1       -1 0.23460790E-01 0.17048066E+03</pdfrwt>
<totfact> 0.25320764E+03</totfact>
</mgrwt>
</event>
<event>
 7    1  0.5928109E-006  0.1934186E+03  0.7546771E-02  0.1159922E+00
          1   -1    0    0  501    0  0.00000000000E+00  0.00000000000E+00  0.69306635268E+03  0.69306635268E+03  0.00000000000E+00 0. -1.
         -1   -1    0    0    0  501 -0.00000000000E+00 -0.00000000000E+00 -0.91313525793E+02  0.91313525793E+02  0.00000000000E+00 0.  1.
         23    2    1    2    0    0 -0.14407425156E+03 -0.32162615833E+02  0.57699795996E+03  0.60855354473E+03  0.12497578638E+03 0.  0.
          5    1    3    3  502    0 -0.56169929405E+02 -0.65381110216E+02  0.38729932107E+03  0.39680297963E+03  0.47000000000E+01 0. -1.
         -5    1    3    3    0  502 -0.87904322150E+02  0.33218494383E+02  0.18969863890E+03  0.21175056510E+03  0.47000000000E+01 0. -1.
        -11    1    1    2    0    0  0.72478747263E+02 -0.95547317759E+01 -0.27223531453E+02  0.78010142730E+02  0.00000000000E+00 0. -1.
         11    1    1    2    0    0  0.71595504293E+02  0.41717347609E+02  0.51978398376E+02  0.97816191013E+02  0.00000000000E+00 0.  1.
<mgrwt>
<rscale>  0 0.18838999E+03</rscale>
<asrwt>0</asrwt>
<pdfrwt beam="1">  1        1 0.10662559E+00 0.19341864E+03</pdfrwt>
<pdfrwt beam="2">  1       -1 0.14048235E-01 0.19341864E+03</pdfrwt>
<totfact> 0.10226434E+03</totfact>
</mgrwt>
</event>
<event>
 7    1  0.5928109E-006  0.1549610E+03  0.7546771E-02  0.1202375E+00
         -1   -1    0    0    0  501 -0.00000000000E+00  0.00000000000E+00  0.24207267442E+03  0.24207267442E+03  0.00000000000E+00 0.  1.
          1   -1    0    0  501    0  0.00000000000E+00 -0.00000000000E+00 -0.85845023078E+02  0.85845023078E+02  0.00000000000E+00 0. -1.
         23    2    1    2    0    0  0.82470674592E+02 -0.39830672628E+02  0.61983670600E+02  0.16689786005E+03  0.12500010248E+03 0.  0.
          5    1    3    3  502    0  0.14935660665E+02  0.23350493478E+02 -0.26633302749E+02  0.38726506691E+02  0.47000000000E+01 0. -1.
         -5    1    3    3    0  502  0.67535013927E+02 -0.63181166106E+02  0.88616973350E+02  0.12817135336E+03  0.47000000000E+01 0. -1.
        -11    1    1    2    0    0 -0.63228003611E+02  0.26976819175E+02  0.51113746998E+01  0.68932251993E+02  0.00000000000E+00 0. -1.
         11    1    1    2    0    0 -0.19242670981E+02  0.12853853452E+02  0.89132606036E+02  0.92087585450E+02  0.00000000000E+00 0.  1.
<mgrwt>
<rscale>  0 0.14846291E+03</rscale>
<asrwt>0</asrwt>
<pdfrwt beam="2">  1        1 0.13206927E-01 0.15496103E+03</pdfrwt>
<pdfrwt beam="1">  1       -1 0.37241950E-01 0.15496103E+03</pdfrwt>
<totfact> 0.30053374E+03</totfact>
</mgrwt>
</event>
<event>
 7    1  0.5928109E-006  0.1335069E+03  0.7546771E-02  0.1235656E+00
          1   -1    0    0  501    0  0.00000000000E+00  0.00000000000E+00  0.33957120890E+03  0.33957120890E+03  0.00000000000E+00 0. -1.
         -1   -1    0    0    0  501 -0.00000000000E+00 -0.00000000000E+00 -0.58055282365E+02  0.58055282365E+02  0.00000000000E+00 0.  1.
         23    2    1    2    0    0 -0.31850672926E+02  0.34414177799E+02  0.26248155398E+03  0.29448371763E+03  0.12500117108E+03 0.  0.
          5    1    3    3  502    0 -0.52788093732E+02  0.60793242772E+02  0.24130062583E+03  0.25442186076E+03  0.47000000000E+01 0. -1.
         -5    1    3    3    0  502  0.20937420805E+02 -0.26379064973E+02  0.21180928151E+02  0.40061856874E+02  0.47000000000E+01 0. -1.
        -11    1    1    2    0    0  0.54076974527E+02 -0.12803009194E+02  0.37516973325E+02  0.67050425098E+02  0.00000000000E+00 0. -1.
         11    1    1    2    0    0 -0.22226301600E+02 -0.21611168605E+02 -0.18482600772E+02  0.36092348533E+02  0.00000000000E+00 0.  1.
<mgrwt>
<rscale>  0 0.12462537E+03</rscale>
<asrwt>0</asrwt>
<pdfrwt beam="1">  1        1 0.52241724E-01 0.13350691E+03</pdfrwt>
<pdfrwt beam="2">  1       -1 0.89315820E-02 0.13350691E+03</pdfrwt>
<totfact> 0.52079545E+03</totfact>
</mgrwt>
</event>
<event>
 7    1  0.5928109E-006  0.1485285E+03  0.7546771E-02  0.1211207E+00
         -2   -1    0    0    0  501 -0.00000000000E+00  0.00000000000E+00  0.57558924287E+02  0.57558924287E+02  0.00000000000E+00 0.  1.
          2   -1    0    0  501    0  0.00000000000E+00 -0.00000000000E+00 -0.32135580502E+03  0.32135580502E+03  0.00000000000E+00 0. -1.
         23    2    1    2    0    0 -0.18684493448E+02 -0.78014816776E+02 -0.15907164841E+03  0.21763387328E+03  0.12500116615E+03 0.  0.
          5    1    3    3  502    0 -0.65160528043E+01 -0.11469352050E+02 -0.14831438564E+03  0.14897399762E+03  0.47000000000E+01 0. -1.
         -5    1    3    3    0  502 -0.12168440644E+02 -0.66545464726E+02 -0.10757262775E+02  0.68659875660E+02  0.47000000000E+01 0. -1.
        -11    1    1    2    0    0  0.35331957291E+02  0.59794813222E+02 -0.18902053383E+02  0.71979542346E+02  0.00000000000E+00 0.  1.
         11    1    1    2    0    0 -0.16647463843E+02  0.18220003554E+02 -0.85823178932E+02  0.89301313674E+02  0.00000000000E+00 0. -1.
<mgrwt>
<rscale>  0 0.14158859E+03</rscale>
<asrwt>0</asrwt>
<pdfrwt beam="2">  1        2 0.49439356E-01 0.14852849E+03</pdfrwt>
<pdfrwt beam="1">  1       -2 0.88552189E-02 0.14852849E+03</pdfrwt>
<totfact> 0.78195557E+03</totfact>
</mgrwt>
</event>
<event>
 7    1  0.5928109E-006  0.1235783E+03  0.7546771E-02  0.1249342E+00
         -1   -1    0    0    0  501 -0.00000000000E+00  0.00000000000E+00  0.15195347148E+03  0.15195347148E+03  0.00000000000E+00 0.  1.
          1   -1    0    0  501    0  0.00000000000E+00 -0.00000000000E+00 -0.83770122381E+02  0.83770122381E+02  0.00000000000E+00 0. -1.
         23    2    1    2    0    0 -0.20041737778E+02  0.29955669553E+02  0.13148347105E+02  0.12427584488E+03  0.11820572404E+03 0.  0.
          5    1    3    3  502    0  0.43014291187E+02 -0.82828877975E+01  0.23049628140E+02  0.49721331780E+02  0.47000000000E+01 0. -1.
         -5    1    3    3    0  502 -0.63056028964E+02  0.38238557351E+02 -0.99012810346E+01  0.74554513097E+02  0.47000000000E+01 0.  1.
        -11    1    1    2    0    0  0.23281708003E+02 -0.53352170778E+02  0.63697667043E+02  0.86289540740E+02  0.00000000000E+00 0. -1.
         11    1    1    2    0    0 -0.32399702254E+01  0.23396501225E+02 -0.86626650458E+01  0.25158208250E+02  0.00000000000E+00 0.  1.
<mgrwt>
<rscale>  0 0.11629207E+03</rscale>
<asrwt>0</asrwt>
<pdfrwt beam="2">  1        1 0.12887711E-01 0.12357834E+03</pdfrwt>
<pdfrwt beam="1">  1       -1 0.23377457E-01 0.12357834E+03</pdfrwt>
<totfact> 0.66865348E+03</totfact>
</mgrwt>
</event>
<event>
 7    1  0.5928109E-006  0.1743886E+03  0.7546771E-02  0.1178217E+00
         -1   -1    0    0    0  501 -0.00000000000E+00  0.00000000000E+00  0.22563596812E+02  0.22563596812E+02  0.00000000000E+00 0.  1.
          1   -1    0    0  501    0  0.00000000000E+00 -0.00000000000E+00 -0.12794798282E+04  0.12794798282E+04  0.00000000000E+00 0. -1.
         23    2    1    2    0    0 -0.11751918238E+03  0.31250259684E+02 -0.81188246757E+03  0.83040021760E+03  0.12499617312E+03 0.  0.
          5    1    3    3  502    0 -0.53378507240E+02  0.71306335246E+02 -0.30125778685E+03  0.31418498153E+03  0.47000000000E+01 0. -1.
         -5    1    3    3    0  502 -0.64140675135E+02 -0.40056075562E+02 -0.51062468071E+03  0.51621523607E+03  0.47000000000E+01 0. -1.
        -11    1    1    2    0    0  0.87781146029E+02 -0.10348491666E+01 -0.40108255506E+03  0.41057741838E+03  0.00000000000E+00 0. -1.
         11    1    1    2    0    0  0.29738036346E+02 -0.30215410517E+02 -0.43951208774E+02  0.61065789041E+02  0.00000000000E+00 0.  1.
<mgrwt>
<rscale>  0 0.16964656E+03</rscale>
<asrwt>0</asrwt>
<pdfrwt beam="2">  1        1 0.19684305E+00 0.17438859E+03</pdfrwt>
<pdfrwt beam="1">  1       -1 0.34713226E-02 0.17438859E+03</pdfrwt>
<totfact> 0.30434766E+03</totfact>
</mgrwt>
</event>
<event>
 7    1  0.5928109E-006  0.3348497E+03  0.7546771E-02  0.1070574E+00
         -2   -1    0    0    0  501 -0.00000000000E+00  0.00000000000E+00  0.36520560503E+03  0.36520560503E+03  0.00000000000E+00 0.  1.
          2   -1    0    0  501    0  0.00000000000E+00 -0.00000000000E+00 -0.29464671149E+03  0.29464671149E+03  0.00000000000E+00 0. -1.
         23    2    1    2    0    0  0.27000544310E+03 -0.15361373062E+03  0.23953431440E+02  0.33570538027E+03  0.12499687168E+03 0.  0.
          5    1    3    3  502    0  0.37433985230E+01 -0.25632641127E+02 -0.24895521704E+02  0.36234270030E+02  0.47000000000E+01 0. -1.
         -5    1    3    3    0  502  0.26626204457E+03 -0.12798108949E+03  0.48848953144E+02  0.29947111025E+03  0.47000000000E+01 0. -1.
        -11    1    1    2    0    0 -0.11483181367E+03  0.85893710312E+02 -0.14539612487E+02  0.14413700161E+03  0.00000000000E+00 0. -1.
         11    1    1    2    0    0 -0.15517362943E+03  0.67720020309E+02  0.61145074592E+02  0.18000993464E+03  0.00000000000E+00 0.  1.
<mgrwt>
<rscale>  0 0.33127521E+03</rscale>
<asrwt>0</asrwt>
<pdfrwt beam="2">  1        2 0.45330263E-01 0.33484972E+03</pdfrwt>
<pdfrwt beam="1">  1       -2 0.56185478E-01 0.33484972E+03</pdfrwt>
<totfact> 0.33915304E+02</totfact>
</mgrwt>
</event>
<event>
 7    1  0.5928109E-006  0.1462329E+03  0.7546771E-02  0.1214346E+00
         -2   -1    0    0    0  501 -0.00000000000E+00  0.00000000000E+00  0.11964248185E+02  0.11964248185E+02  0.00000000000E+00 0.  1.
          2   -1    0    0  501    0  0.00000000000E+00 -0.00000000000E+00 -0.17316300165E+04  0.17316300165E+04  0.00000000000E+00 0. -1.
         23    2    1    2    0    0 -0.14047652527E+02  0.74598786761E+02 -0.12603101298E+04  0.12687654226E+04  0.12498703409E+03 0.  0.
          5    1    3    3  502    0  0.72415434786E+01  0.95437812109E+02 -0.58619640945E+03  0.59397738710E+03  0.47000000000E+01 0. -1.
         -5    1    3    3    0  502 -0.21289196005E+02 -0.20839025348E+02 -0.67411372036E+03  0.67478803548E+03  0.47000000000E+01 0. -1.
        -11    1    1    2    0    0  0.53070462677E+02 -0.51591427218E+02 -0.31247926738E+03  0.32112527449E+03  0.00000000000E+00 0.  1.
         11    1    1    2    0    0 -0.39022810150E+02 -0.23007359543E+02 -0.14687637107E+03  0.15370356757E+03  0.00000000000E+00 0. -1.
<mgrwt>
<rscale>  0 0.13924690E+03</rscale>
<asrwt>0</asrwt>
<pdfrwt beam="2">  1        2 0.26640458E+00 0.14623295E+03</pdfrwt>
<pdfrwt beam="1">  1       -2 0.18406538E-02 0.14623295E+03</pdfrwt>
<totfact> 0.88307373E+03</totfact>
</mgrwt>
</event>
<event>
 7    1  0.5928109E-006  0.1290836E+03  0.7546771E-02  0.1242925E+00
          2   -1    0    0  501    0  0.00000000000E+00  0.00000000000E+00  0.29642142602E+03  0.29642142602E+03  0.00000000000E+00 0. -1.
         -2   -1    0    0    0  501 -0.00000000000E+00 -0.00000000000E+00 -0.53890210491E+02  0.53890210491E+02  0.00000000000E+00 0.  1.
         23    2    1    2    0    0 -0.11027908344E+02  0.30270223454E+02  0.21317663525E+03  0.24921249117E+03  0.12499874699E+03 0.  0.
          5    1    3    3  502    0  0.16246486448E+02  0.24657780148E+02 -0.40360826622E+01  0.30171748491E+02  0.47000000000E+01 0.  1.
         -5    1    3    3    0  502 -0.27274394792E+02  0.56124433057E+01  0.21721271791E+03  0.21904074268E+03  0.47000000000E+01 0.  1.
        -11    1    1    2    0    0  0.28172617244E+01  0.16349055220E+02  0.47569011654E+02  0.50378958305E+02  0.00000000000E+00 0. -1.
         11    1    1    2    0    0  0.82106466196E+01 -0.46619278674E+02 -0.18214431377E+02  0.50720187031E+02  0.00000000000E+00 0.  1.
<mgrwt>
<rscale>  0 0.12010445E+03</rscale>
<asrwt>0</asrwt>
<pdfrwt beam="1">  1        2 0.45603295E-01 0.12908365E+03</pdfrwt>
<pdfrwt beam="2">  1       -2 0.82908018E-02 0.12908365E+03</pdfrwt>
<totfact> 0.93440912E+03</totfact>
</mgrwt>
</event>
<event>
 7    1  0.5928109E-006  0.1656978E+03  0.7546771E-02  0.1189402E+00
          3   -1    0    0  501    0  0.00000000000E+00  0.00000000000E+00  0.72260157344E+02  0.72260157344E+02  0.00000000000E+00 0. -1.
         -3   -1    0    0    0  501 -0.00000000000E+00 -0.00000000000E+00 -0.33461020763E+03  0.33461020763E+03  0.00000000000E+00 0.  1.
         23    2    1    2    0    0  0.17745226131E+02  0.10736033502E+03 -0.11091646675E+03  0.19939467727E+03  0.12495855369E+03 0.  0.
          5    1    3    3  502    0  0.35343639869E+02  0.12150092998E+03 -0.12014916921E+03  0.17455532569E+03  0.47000000000E+01 0.  1.
         -5    1    3    3    0  502 -0.17598413737E+02 -0.14140594959E+02  0.92327024650E+01  0.24839351575E+02  0.47000000000E+01 0.  1.
        -11    1    1    2    0    0 -0.47922982423E+02 -0.60656822205E+02 -0.50799174307E+02  0.92500910453E+02  0.00000000000E+00 0.  1.
         11    1    1    2    0    0  0.30177756291E+02 -0.46703512813E+02 -0.10063440923E+03  0.11497477726E+03  0.00000000000E+00 0. -1.
<mgrwt>
<rscale>  0 0.15937677E+03</rscale>
<asrwt>0</asrwt>
<pdfrwt beam="1">  1        3 0.11116947E-01 0.16569784E+03</pdfrwt>
<pdfrwt beam="2">  1       -3 0.51478494E-01 0.16569784E+03</pdfrwt>
<totfact> 0.55483286E+02</totfact>
</mgrwt>
</event>
<event>
 7    1  0.5928109E-006  0.1317571E+03  0.7546771E-02  0.1238111E+00
          2   -1    0    0  501    0  0.00000000000E+00  0.00000000000E+00  0.89852156080E+03  0.89852156080E+03  0.00000000000E+00 0. -1.
         -2   -1    0    0    0  501 -0.00000000000E+00 -0.00000000000E+00 -0.15369812871E+02  0.15369812871E+02  0.00000000000E+00 0.  1.
         23    2    1    2    0    0 -0.39964457554E+02  0.11787245365E+02  0.57163886661E+03  0.58662672762E+03  0.12499530680E+03 0.  0.
          5    1    3    3  502    0 -0.29945732380E+02  0.55632219381E+02  0.48282228976E+03  0.48696113214E+03  0.47000000000E+01 0. -1.
         -5    1    3    3    0  502 -0.10018725174E+02 -0.43844974017E+02  0.88816576845E+02  0.99665595484E+02  0.47000000000E+01 0. -1.
        -11    1    1    2    0    0  0.23456999074E+02  0.38820811631E+02  0.11366470039E+03  0.12238035110E+03  0.00000000000E+00 0. -1.
         11    1    1    2    0    0  0.16507458481E+02 -0.50608056996E+02  0.19784818093E+03  0.20488429495E+03  0.00000000000E+00 0.  1.
<mgrwt>
<rscale>  0 0.12307371E+03</rscale>
<asrwt>0</asrwt>
<pdfrwt beam="1">  1        2 0.13823405E+00 0.13175706E+03</pdfrwt>
<pdfrwt beam="2">  1       -2 0.23645873E-02 0.13175706E+03</pdfrwt>
<totfact> 0.17480103E+04</totfact>
</mgrwt>
</event>
<event>
 7    1  0.5928109E-006  0.1286046E+03  0.7546771E-02  0.1245630E+00
          1   -1    0    0  501    0  0.00000000000E+00  0.00000000000E+00  0.84212799077E+03  0.84212799077E+03  0.00000000000E+00 0. -1.
         -1   -1    0    0    0  501 -0.00000000000E+00 -0.00000000000E+00 -0.16484251591E+02  0.16484251591E+02  0.00000000000E+00 0.  1.
         23    2    1    2    0    0 -0.24201692629E+02  0.18118965688E+02  0.61803902629E+03  0.63127758524E+03  0.12500053105E+03 0.  0.
          5    1    3    3  502    0  0.12105627894E+02  0.40059890848E+02  0.54542750785E+03  0.54705081794E+03  0.47000000000E+01 0. -1.
         -5    1    3    3    0  502 -0.36307320523E+02 -0.21940925160E+02  0.72611518435E+02  0.84226767301E+02  0.47000000000E+01 0. -1.
        -11    1    1    2    0    0  0.23621433012E+02  0.18112992798E+02  0.17819860420E+03  0.18066763724E+03  0.00000000000E+00 0. -1.
         11    1    1    2    0    0  0.58025961699E+00 -0.36231958486E+02  0.29406108690E+02  0.46667019888E+02  0.00000000000E+00 0.  1.
<mgrwt>
<rscale>  0 0.11847775E+03</rscale>
<asrwt>0</asrwt>
<pdfrwt beam="1">  1        1 0.12955812E+00 0.12860463E+03</pdfrwt>
<pdfrwt beam="2">  1       -1 0.25360394E-02 0.12860463E+03</pdfrwt>
<totfact> 0.98506878E+03</totfact>
</mgrwt>
</event>
<event>
 7    1  0.5928109E-006  0.1264912E+03  0.7546771E-02  0.1246196E+00
          3   -1    0    0  501    0  0.00000000000E+00  0.00000000000E+00  0.16081580001E+02  0.16081580001E+02  0.00000000000E+00 0. -1.
         -3   -1    0    0    0  501 -0.00000000000E+00 -0.00000000000E+00 -0.79727419283E+03  0.79727419283E+03  0.00000000000E+00 0.  1.
         23    2    1    2    0    0  0.15644792984E+02 -0.11431889384E+02 -0.36915611100E+03  0.39022589410E+03  0.12499826599E+03 0.  0.
          5    1    3    3  502    0 -0.27047339382E+02  0.16400401851E+02 -0.20839700290E+02  0.38169554054E+02  0.47000000000E+01 0. -1.
         -5    1    3    3    0  502  0.42692132366E+02 -0.27832291235E+02 -0.34831641071E+03  0.35205634005E+03  0.47000000000E+01 0. -1.
        -11    1    1    2    0    0 -0.30521405350E+02 -0.34501135834E+02 -0.24326860053E+03  0.24759139033E+03  0.00000000000E+00 0.  1.
         11    1    1    2    0    0  0.14876612366E+02  0.45933025218E+02 -0.16876790130E+03  0.17553848841E+03  0.00000000000E+00 0. -1.
<mgrwt>
<rscale>  0 0.11814075E+03</rscale>
<asrwt>0</asrwt>
<pdfrwt beam="1">  1        3 0.24740899E-02 0.12649116E+03</pdfrwt>
<pdfrwt beam="2">  1       -3 0.12265753E+00 0.12649116E+03</pdfrwt>
<totfact> 0.88179230E+02</totfact>
</mgrwt>
</event>
<event>
 7    1  0.5928109E-006  0.1277112E+03  0.7546771E-02  0.1245848E+00
          1   -1    0    0  501    0  0.00000000000E+00  0.00000000000E+00  0.66044679189E+03  0.66044679189E+03  0.00000000000E+00 0. -1.
         -1   -1    0    0    0  501 -0.00000000000E+00 -0.00000000000E+00 -0.18881974477E+02  0.18881974477E+02  0.00000000000E+00 0.  1.
         23    2    1    2    0    0  0.19480503611E+02  0.17701518754E+02  0.40687066932E+03  0.42644329448E+03  0.12496922850E+03 0.  0.
          5    1    3    3  502    0  0.35341891396E+02 -0.30849005168E+01  0.39620246576E+03  0.39781534632E+03  0.47000000000E+01 0.  1.
         -5    1    3    3    0  502 -0.15861387785E+02  0.20786419271E+02  0.10668203560E+02  0.28627948158E+02  0.47000000000E+01 0.  1.
        -11    1    1    2    0    0  0.10355383647E+01  0.35670064091E+02  0.11144089976E+03  0.11701495611E+03  0.00000000000E+00 0.  1.
         11    1    1    2    0    0 -0.20516041976E+02 -0.53371582845E+02  0.12325324833E+03  0.13587051577E+03  0.00000000000E+00 0. -1.
<mgrwt>
<rscale>  0 0.11834785E+03</rscale>
<asrwt>0</asrwt>
<pdfrwt beam="1">  1        1 0.10160718E+00 0.12771117E+03</pdfrwt>
<pdfrwt beam="2">  1       -1 0.29049197E-02 0.12771117E+03</pdfrwt>
<totfact> 0.11537952E+04</totfact>
</mgrwt>
</event>
<event>
 7    1  0.5928109E-006  0.1841742E+03  0.7546771E-02  0.1168839E+00
          1   -1    0    0  501    0  0.00000000000E+00  0.00000000000E+00  0.42490238355E+03  0.42490238355E+03  0.00000000000E+00 0. -1.
         -1   -1    0    0    0  501 -0.00000000000E+00 -0.00000000000E+00 -0.71825713421E+02  0.71825713421E+02  0.00000000000E+00 0.  1.
         23    2    1    2    0    0  0.11658083310E+03 -0.68557487843E+02  0.20658313660E+03  0.27676117244E+03  0.12501573683E+03 0.  0.
          5    1    3    3  502    0  0.11526262183E+03 -0.47246513374E+01  0.10157626521E+03  0.15377783318E+03  0.47000000000E+01 0. -1.
         -5    1    3    3    0  502  0.13182112705E+01 -0.63832836506E+02  0.10500687139E+03  0.12298333926E+03  0.47000000000E+01 0. -1.
        -11    1    1    2    0    0 -0.28483129859E+02 -0.41421384225E+01 -0.60377943036E+01  0.29409198516E+02  0.00000000000E+00 0.  1.
         11    1    1    2    0    0 -0.88097703241E+02  0.72699626266E+02  0.15253132783E+03  0.19055772602E+03  0.00000000000E+00 0. -1.
<mgrwt>
<rscale>  0 0.17893337E+03</rscale>
<asrwt>0</asrwt>
<pdfrwt beam="1">  1        1 0.65369596E-01 0.18417425E+03</pdfrwt>
<pdfrwt beam="2">  1       -1 0.11050110E-01 0.18417425E+03</pdfrwt>
<totfact> 0.28750890E+03</totfact>
</mgrwt>
</event>
<event>
 7    1  0.5928109E-006  0.1301702E+03  0.7546771E-02  0.1242101E+00
          1   -1    0    0  501    0  0.00000000000E+00  0.00000000000E+00  0.61081421334E+02  0.61081421334E+02  0.00000000000E+00 0. -1.
         -1   -1    0    0    0  501 -0.00000000000E+00 -0.00000000000E+00 -0.21125598826E+03  0.21125598826E+03  0.00000000000E+00 0.  1.
         23    2    1    2    0    0 -0.19764717328E+02  0.30463449497E+02 -0.73164424034E+02  0.14932288658E+03  0.12500250280E+03 0.  0.
          5    1    3    3  502    0 -0.23922379188E+02  0.78244211908E+02 -0.47475647379E+02  0.94712533580E+02  0.47000000000E+01 0. -1.
         -5    1    3    3    0  502  0.41576618601E+01 -0.47780762411E+02 -0.25688776656E+02  0.54610353000E+02  0.47000000000E+01 0. -1.
        -11    1    1    2    0    0  0.40399574033E+02  0.16666742093E+01 -0.74476872169E+02  0.84744957803E+02  0.00000000000E+00 0.  1.
         11    1    1    2    0    0 -0.20634856705E+02 -0.32130123707E+02 -0.25332707194E+01  0.38269565208E+02  0.00000000000E+00 0. -1.
<mgrwt>
<rscale>  0 0.12060606E+03</rscale>
<asrwt>0</asrwt>
<pdfrwt beam="1">  1        1 0.93971418E-02 0.13017024E+03</pdfrwt>
<pdfrwt beam="2">  1       -1 0.32500921E-01 0.13017024E+03</pdfrwt>
<totfact> 0.58870254E+03</totfact>
</mgrwt>
</event>
<event>
 7    1  0.5928109E-006  0.1348400E+03  0.7546771E-02  0.1240771E+00
         -1   -1    0    0    0  501 -0.00000000000E+00  0.00000000000E+00  0.25794665305E+02  0.25794665305E+02  0.00000000000E+00 0.  1.
          1   -1    0    0  501    0  0.00000000000E+00 -0.00000000000E+00 -0.70512722716E+03  0.70512722716E+03  0.00000000000E+00 0. -1.
         23    2    1    2    0    0  0.42539049841E+02  0.27365976477E+02 -0.58943130250E+03  0.60465782544E+03  0.12499343209E+03 0.  0.
          5    1    3    3  502    0 -0.57056981673E+01  0.63762517406E+02 -0.41634668418E+03  0.42126578907E+03  0.47000000000E+01 0.  1.
         -5    1    3    3    0  502  0.48244748009E+02 -0.36396540929E+02 -0.17308461833E+03  0.18339203637E+03  0.47000000000E+01 0.  1.
        -11    1    1    2    0    0 -0.15475566051E+02 -0.57829257109E+01 -0.90145956133E+02  0.91647306460E+02  0.00000000000E+00 0. -1.
         11    1    1    2    0    0 -0.27063483790E+02 -0.21583050766E+02  0.24469678409E+00  0.34616760562E+02  0.00000000000E+00 0.  1.
<mgrwt>
<rscale>  0 0.12142119E+03</rscale>
<asrwt>0</asrwt>
<pdfrwt beam="2">  1        1 0.10848110E+00 0.13484000E+03</pdfrwt>
<pdfrwt beam="1">  1       -1 0.39684106E-02 0.13484000E+03</pdfrwt>
<totfact> 0.66925364E+03</totfact>
</mgrwt>
</event>
<event>
 7    1  0.5928109E-006  0.1443095E+03  0.7546771E-02  0.1218246E+00
         -2   -1    0    0    0  501 -0.00000000000E+00  0.00000000000E+00  0.19161943856E+02  0.19161943856E+02  0.00000000000E+00 0.  1.
          2   -1    0    0  501    0  0.00000000000E+00 -0.00000000000E+00 -0.10420723149E+04  0.10420723149E+04  0.00000000000E+00 0. -1.
         23    2    1    2    0    0  0.71636626210E+02  0.82078507652E+01 -0.76881949461E+03  0.78224590271E+03  0.12500424787E+03 0.  0.
          5    1    3    3  502    0  0.75250694879E+02  0.24507124267E+02 -0.75726892981E+03  0.76140763608E+03  0.47000000000E+01 0. -1.
         -5    1    3    3    0  502 -0.36140686693E+01 -0.16299273501E+02 -0.11550564795E+02  0.20838266629E+02  0.47000000000E+01 0. -1.
        -11    1    1    2    0    0 -0.70052061485E+02  0.20357617297E+02 -0.23093201545E+03  0.24218034532E+03  0.00000000000E+00 0. -1.
         11    1    1    2    0    0 -0.15845647242E+01 -0.28565468062E+02 -0.23158860969E+02  0.36808010709E+02  0.00000000000E+00 0.  1.
<mgrwt>
<rscale>  0 0.13640793E+03</rscale>
<asrwt>0</asrwt>
<pdfrwt beam="2">  1        2 0.16031888E+00 0.14430952E+03</pdfrwt>
<pdfrwt beam="1">  1       -2 0.29479902E-02 0.14430952E+03</pdfrwt>
<totfact> 0.10413955E+04</totfact>
</mgrwt>
</event>
<event>
 7    1  0.5928109E-006  0.1392350E+03  0.7546771E-02  0.1225691E+00
          1   -1    0    0  501    0  0.00000000000E+00  0.00000000000E+00  0.19780545215E+03  0.19780545215E+03  0.00000000000E+00 0. -1.
         -1   -1    0    0    0  501 -0.00000000000E+00 -0.00000000000E+00 -0.15610939468E+03  0.15610939468E+03  0.00000000000E+00 0.  1.
         23    2    1    2    0    0 -0.54138295055E+02  0.28817169407E+02  0.14653074993E+03  0.20213274705E+03  0.12500001003E+03 0.  0.
          5    1    3    3  502    0 -0.10874219109E+01  0.46607723097E+02  0.18002395496E+01  0.46891291314E+02  0.47000000000E+01 0. -1.
         -5    1    3    3    0  502 -0.53050873145E+02 -0.17790553690E+02  0.14473051038E+03  0.15524145573E+03  0.47000000000E+01 0. -1.
        -11    1    1    2    0    0 -0.62043736175E+01  0.26810793507E+02 -0.22737950096E+02  0.35697720866E+02  0.00000000000E+00 0. -1.
         11    1    1    2    0    0  0.60342668673E+02 -0.55627962913E+02 -0.82096742368E+02  0.11608437891E+03  0.00000000000E+00 0.  1.
<mgrwt>
<rscale>  0 0.13119685E+03</rscale>
<asrwt>0</asrwt>
<pdfrwt beam="1">  1        1 0.30431608E-01 0.13923501E+03</pdfrwt>
<pdfrwt beam="2">  1       -1 0.24016830E-01 0.13923501E+03</pdfrwt>
<totfact> 0.21602474E+03</totfact>
</mgrwt>
</event>
<event>
 7    1  0.5928109E-006  0.1332964E+03  0.7546771E-02  0.1235154E+00
          1   -1    0    0  501    0  0.00000000000E+00  0.00000000000E+00  0.14454292166E+04  0.14454292166E+04  0.00000000000E+00 0. -1.
         -1   -1    0    0    0  501 -0.00000000000E+00 -0.00000000000E+00 -0.11794693127E+02  0.11794693127E+02  0.00000000000E+00 0.  1.
         23    2    1    2    0    0  0.25813097443E+02  0.38427940429E+02  0.11009039199E+04  0.11089442568E+04  0.12499960514E+03 0.  0.
          5    1    3    3  502    0  0.16611679233E+01  0.24409567904E+02  0.36663029867E+02  0.44326676428E+02  0.47000000000E+01 0.  1.
         -5    1    3    3    0  502  0.24151929520E+02  0.14018372524E+02  0.10642408900E+04  0.10646175804E+04  0.47000000000E+01 0.  1.
        -11    1    1    2    0    0  0.61818048357E+01 -0.55158011662E+02  0.11638685131E+03  0.12894386422E+03  0.00000000000E+00 0.  1.
         11    1    1    2    0    0 -0.31994902279E+02  0.16730071233E+02  0.21634375228E+03  0.21933578870E+03  0.00000000000E+00 0. -1.
<mgrwt>
<rscale>  0 0.12494559E+03</rscale>
<asrwt>0</asrwt>
<pdfrwt beam="1">  1        1 0.22237359E+00 0.13329638E+03</pdfrwt>
<pdfrwt beam="2">  1       -1 0.18145693E-02 0.13329638E+03</pdfrwt>
<totfact> 0.60234410E+03</totfact>
</mgrwt>
</event>
<event>
 7    1  0.5928109E-006  0.1773685E+03  0.7546771E-02  0.1176296E+00
          2   -1    0    0  501    0  0.00000000000E+00  0.00000000000E+00  0.38524540838E+03  0.38524540838E+03  0.00000000000E+00 0.  1.
         -2   -1    0    0    0  501 -0.00000000000E+00 -0.00000000000E+00 -0.11342823048E+03  0.11342823048E+03  0.00000000000E+00 0. -1.
         23    2    1    2    0    0  0.15472162319E+02  0.12489357612E+03  0.29270554916E+03  0.34225154084E+03  0.12498714149E+03 0.  0.
          5    1    3    3  502    0  0.70445173069E+02  0.67844729840E+02  0.16702206831E+03  0.19360756979E+03  0.47000000000E+01 0.  1.
         -5    1    3    3    0  502 -0.54973010750E+02  0.57048846280E+02  0.12568348085E+03  0.14864397106E+03  0.47000000000E+01 0.  1.
        -11    1    1    2    0    0 -0.21379864338E+02 -0.10050047434E+03  0.23524597755E+02  0.10540801982E+03  0.00000000000E+00 0.  1.
         11    1    1    2    0    0  0.59077020181E+01 -0.24393101777E+02 -0.44412969020E+02  0.51014078200E+02  0.00000000000E+00 0. -1.
<mgrwt>
<rscale>  0 0.17149642E+03</rscale>
<asrwt>0</asrwt>
<pdfrwt beam="1">  1        2 0.59268524E-01 0.17736848E+03</pdfrwt>
<pdfrwt beam="2">  1       -2 0.17450497E-01 0.17736848E+03</pdfrwt>
<totfact> 0.21773551E+03</totfact>
</mgrwt>
</event>
<event>
 7    1  0.5928109E-006  0.2192390E+03  0.7546771E-02  0.1137909E+00
         -1   -1    0    0    0  501 -0.00000000000E+00  0.00000000000E+00  0.33772400459E+03  0.33772400459E+03  0.00000000000E+00 0.  1.
          1   -1    0    0  501    0  0.00000000000E+00 -0.00000000000E+00 -0.13110029399E+03  0.13110029399E+03  0.00000000000E+00 0. -1.
         23    2    1    2    0    0  0.17978555540E+03 -0.10823339304E+02  0.10551191841E+03  0.24330742709E+03  0.12500299414E+03 0.  0.
          5    1    3    3  502    0  0.14904395517E+03  0.42707763929E+02  0.90576120728E+02  0.17962231854E+03  0.47000000000E+01 0. -1.
         -5    1    3    3    0  502  0.30741600235E+02 -0.53531103233E+02  0.14935797678E+02  0.63685108546E+02  0.47000000000E+01 0. -1.
        -11    1    1    2    0    0 -0.11055000609E+03  0.30163114529E+02  0.10231449129E+03  0.15362087245E+03  0.00000000000E+00 0. -1.
         11    1    1    2    0    0 -0.69235549308E+02 -0.19339775225E+02 -0.12026990955E+01  0.71895999046E+02  0.00000000000E+00 0.  1.
<mgrwt>
<rscale>  0 0.21468411E+03</rscale>
<asrwt>0</asrwt>
<pdfrwt beam="2">  1        1 0.20169276E-01 0.21923900E+03</pdfrwt>
<pdfrwt beam="1">  1       -1 0.51957539E-01 0.21923900E+03</pdfrwt>
<totfact> 0.96360909E+02</totfact>
</mgrwt>
</event>
<event>
 7    1  0.5928109E-006  0.1369072E+03  0.7546771E-02  0.1228105E+00
         -1   -1    0    0    0  501 -0.00000000000E+00  0.00000000000E+00  0.45498027914E+03  0.45498027914E+03  0.00000000000E+00 0.  1.
          1   -1    0    0  501    0  0.00000000000E+00 -0.00000000000E+00 -0.34725271804E+02  0.34725271804E+02  0.00000000000E+00 0. -1.
         23    2    1    2    0    0  0.16761630141E+02  0.53239597659E+02  0.18564079145E+03  0.23066446782E+03  0.12501274439E+03 0.  0.
          5    1    3    3  502    0  0.56531238687E+02  0.59889636881E+02  0.70279352699E+02  0.10836893913E+03  0.47000000000E+01 0.  1.
         -5    1    3    3    0  502 -0.39769608546E+02 -0.66500392226E+01  0.11536143876E+03  0.12229552869E+03  0.47000000000E+01 0.  1.
        -11    1    1    2    0    0 -0.31295657478E+02  0.15632482583E+02  0.46505192199E+02  0.58193862135E+02  0.00000000000E+00 0. -1.
         11    1    1    2    0    0  0.14534027337E+02 -0.68872080241E+02  0.18810902368E+03  0.20084722099E+03  0.00000000000E+00 0.  1.
<mgrwt>
<rscale>  0 0.12956308E+03</rscale>
<asrwt>0</asrwt>
<pdfrwt beam="2">  1        1 0.53423498E-02 0.13690724E+03</pdfrwt>
<pdfrwt beam="1">  1       -1 0.69996962E-01 0.13690724E+03</pdfrwt>
<totfact> 0.31361473E+03</totfact>
</mgrwt>
</event>
<event>
 7    1  0.5928109E-006  0.1378056E+03  0.7546771E-02  0.1228059E+00
          2   -1    0    0  501    0  0.00000000000E+00  0.00000000000E+00  0.62874854052E+03  0.62874854052E+03  0.00000000000E+00 0. -1.
         -2   -1    0    0    0  501 -0.00000000000E+00 -0.00000000000E+00 -0.25154597608E+02  0.25154597608E+02  0.00000000000E+00 0.  1.
         23    2    1    2    0    0  0.48120272669E+02  0.32525102842E+02  0.40708636424E+03  0.42977864100E+03  0.12496771325E+03 0.  0.
          5    1    3    3  502    0  0.26484554830E+02  0.41260268990E+02  0.40254624743E+03  0.40554828660E+03  0.47000000000E+01 0.  1.
         -5    1    3    3    0  502  0.21635717839E+02 -0.87351661481E+01  0.45401168114E+01  0.24230354407E+02  0.47000000000E+01 0.  1.
        -11    1    1    2    0    0 -0.25499972257E+01 -0.53421363158E+02  0.13202602881E+03  0.14244724221E+03  0.00000000000E+00 0. -1.
         11    1    1    2    0    0 -0.45570275444E+02  0.20896260316E+02  0.64481549859E+02  0.81677254921E+02  0.00000000000E+00 0.  1.
<mgrwt>
<rscale>  0 0.12959396E+03</rscale>
<asrwt>0</asrwt>
<pdfrwt beam="1">  1        2 0.96730533E-01 0.13780556E+03</pdfrwt>
<pdfrwt beam="2">  1       -2 0.38699386E-02 0.13780556E+03</pdfrwt>
<totfact> 0.13136043E+04</totfact>
</mgrwt>
</event>
<event>
 7    1  0.5928109E-006  0.1282849E+03  0.7546771E-02  0.1249995E+00
         -1   -1    0    0    0  501 -0.00000000000E+00  0.00000000000E+00  0.10544556715E+03  0.10544556715E+03  0.00000000000E+00 0.  1.
          1   -1    0    0  501    0  0.00000000000E+00 -0.00000000000E+00 -0.12353462368E+03  0.12353462368E+03  0.00000000000E+00 0. -1.
         23    2    1    2    0    0  0.92775395720E+01  0.27315499763E+02 -0.50037851581E+02  0.13769820084E+03  0.12499919462E+03 0.  0.
          5    1    3    3  502    0  0.49191546830E+02  0.50729360104E+02 -0.20221543758E+01  0.70848114756E+02  0.47000000000E+01 0.  1.
         -5    1    3    3    0  502 -0.39914007258E+02 -0.23413860341E+02 -0.48015697205E+02  0.66850086085E+02  0.47000000000E+01 0.  1.
        -11    1    1    2    0    0 -0.26746357191E+02  0.20689325171E+01  0.46852999776E+02  0.53989366479E+02  0.00000000000E+00 0.  1.
         11    1    1    2    0    0  0.17468817619E+02 -0.29384432280E+02 -0.14904204727E+02  0.37292623506E+02  0.00000000000E+00 0. -1.
<mgrwt>
<rscale>  0 0.11591341E+03</rscale>
<asrwt>0</asrwt>
<pdfrwt beam="2">  1        1 0.19005327E-01 0.12828487E+03</pdfrwt>
<pdfrwt beam="1">  1       -1 0.16222395E-01 0.12828487E+03</pdfrwt>
<totfact> 0.72925138E+03</totfact>
</mgrwt>
</event>
<event>
 6    1  0.5928109E-006  0.1808020E+03  0.7546771E-02  0.1185095E+00
         -1   -1    0    0    0  501 -0.00000000000E+00  0.00000000000E+00  0.37842427835E+02  0.37842427835E+02  0.00000000000E+00 0.  1.
          1   -1    0    0  501    0  0.00000000000E+00 -0.00000000000E+00 -0.70575847951E+03  0.70575847951E+03  0.00000000000E+00 0. -1.
          5    1    1    2  502    0  0.62551190467E+02  0.10302142400E+03 -0.48250185157E+03  0.49734916507E+03  0.47000000000E+01 0. -1.
         -5    1    1    2    0  502 -0.17723983275E+02 -0.37634023682E+02 -0.51141885076E+02  0.66091162275E+02  0.47000000000E+01 0.  1.
        -11    1    1    2    0    0 -0.17350286211E+02  0.70915060711E+01 -0.87812984056E+02  0.89791102336E+02  0.00000000000E+00 0. -1.
         11    1    1    2    0    0 -0.27476920981E+02 -0.72478906388E+02 -0.46459330971E+02  0.90369477658E+02  0.00000000000E+00 0.  1.
<mgrwt>
<rscale>  0 0.16323231E+03</rscale>
<asrwt>0</asrwt>
<pdfrwt beam="2">  1        1 0.10857822E+00 0.18080200E+03</pdfrwt>
<pdfrwt beam="1">  1       -1 0.58219125E-02 0.18080200E+03</pdfrwt>
<totfact> 0.38357688E+03</totfact>
</mgrwt>
</event>
<event>
 6    1  0.5928109E-006  0.3444623E+03  0.7546771E-02  0.1072220E+00
         -1   -1    0    0    0  501 -0.00000000000E+00  0.00000000000E+00  0.17598634809E+03  0.17598634809E+03  0.00000000000E+00 0.  1.
          1   -1    0    0  501    0  0.00000000000E+00 -0.00000000000E+00 -0.55814190679E+03  0.55814190679E+03  0.00000000000E+00 0. -1.
          5    1    1    2  502    0 -0.34723487547E+02  0.60224566181E+02 -0.19269735081E+03  0.20490748636E+03  0.47000000000E+01 0. -1.
         -5    1    1    2    0  502 -0.45666303882E+02  0.18443618819E+03 -0.56050185356E+00  0.19006452322E+03  0.47000000000E+01 0.  1.
        -11    1    1    2    0    0  0.50406771738E+02 -0.21639836600E+03 -0.19725076608E+03  0.29711438902E+03  0.00000000000E+00 0.  1.
         11    1    1    2    0    0  0.29983019691E+02 -0.28262388371E+02  0.83530600493E+01  0.42041856268E+02  0.00000000000E+00 0. -1.
<mgrwt>
<rscale>  0 0.32756386E+03</rscale>
<asrwt>0</asrwt>
<pdfrwt beam="2">  1        1 0.85867988E-01 0.34446232E+03</pdfrwt>
<pdfrwt beam="1">  1       -1 0.27074822E-01 0.34446232E+03</pdfrwt>
<totfact> 0.47417815E+02</totfact>
</mgrwt>
</event>
<event>
 7    1  0.5928109E-006  0.1814939E+03  0.7546771E-02  0.1170338E+00
         -1   -1    0    0    0  501 -0.00000000000E+00  0.00000000000E+00  0.29420848887E+02  0.29420848887E+02  0.00000000000E+00 0.  1.
          1   -1    0    0  501    0  0.00000000000E+00 -0.00000000000E+00 -0.10680876045E+04  0.10680876045E+04  0.00000000000E+00 0. -1.
         23    2    1    2    0    0 -0.28182181347E+01  0.13156506926E+03 -0.65312456351E+03  0.67787295945E+03  0.12499097524E+03 0.  0.
          5    1    3    3  502    0 -0.27142587765E+02  0.82786073153E+02 -0.58011543605E+03  0.58663980697E+03  0.47000000000E+01 0.  1.
         -5    1    3    3    0  502  0.24324369630E+02  0.48778996109E+02 -0.73009127465E+02  0.91233152485E+02  0.47000000000E+01 0.  1.
        -11    1    1    2    0    0 -0.10061420941E+02 -0.15265409322E+02 -0.17082658199E+01  0.18362545718E+02  0.00000000000E+00 0.  1.
         11    1    1    2    0    0  0.12879639076E+02 -0.11629965994E+03 -0.38383392625E+03  0.40127294818E+03  0.00000000000E+00 0. -1.
<mgrwt>
<rscale>  0 0.17740535E+03</rscale>
<asrwt>0</asrwt>
<pdfrwt beam="2">  1        1 0.16432118E+00 0.18149395E+03</pdfrwt>
<pdfrwt beam="1">  1       -1 0.45262841E-02 0.18149395E+03</pdfrwt>
<totfact> 0.28884585E+03</totfact>
</mgrwt>
</event>
<event>
 7    1  0.5928109E-006  0.1274931E+03  0.7546771E-02  0.1237991E+00
          2   -1    0    0  501    0  0.00000000000E+00  0.00000000000E+00  0.98870268218E+03  0.98870268218E+03  0.00000000000E+00 0. -1.
         -2   -1    0    0    0  501 -0.00000000000E+00 -0.00000000000E+00 -0.15606655715E+02  0.15606655715E+02  0.00000000000E+00 0.  1.
         23    2    1    2    0    0 -0.10616321128E+02 -0.60577816262E+02  0.65803866832E+03  0.67027560912E+03  0.11167866884E+03 0.  0.
          5    1    3    3  502    0 -0.48343328826E+02 -0.24536468271E+02  0.15041393141E+03  0.15995485763E+03  0.47000000000E+01 0. -1.
         -5    1    3    3    0  502  0.37727007698E+02 -0.36041347991E+02  0.50762473691E+03  0.51032075148E+03  0.47000000000E+01 0.  1.
        -11    1    1    2    0    0  0.15096640440E+02  0.84759795125E+02  0.25474360378E+03  0.26889855910E+03  0.00000000000E+00 0.  1.
         11    1    1    2    0    0 -0.44803193125E+01 -0.24181978864E+02  0.60313754373E+02  0.65135169681E+02  0.00000000000E+00 0. -1.
<mgrwt>
<rscale>  0 0.12314874E+03</rscale>
<asrwt>0</asrwt>
<pdfrwt beam="1">  1        2 0.15210806E+00 0.12749315E+03</pdfrwt>
<pdfrwt beam="2">  1       -2 0.24010247E-02 0.12749315E+03</pdfrwt>
<totfact> 0.15013742E+04</totfact>
</mgrwt>
</event>
<event>
 7    1  0.5928109E-006  0.1284425E+03  0.7546771E-02  0.1238161E+00
          3   -1    0    0  501    0  0.00000000000E+00  0.00000000000E+00  0.14664514763E+03  0.14664514763E+03  0.00000000000E+00 0. -1.
         -3   -1    0    0    0  501 -0.00000000000E+00 -0.00000000000E+00 -0.10824530592E+03  0.10824530592E+03  0.00000000000E+00 0.  1.
         23    2    1    2    0    0  0.22788146861E+02  0.18655971042E+02  0.64341264557E+02  0.14365682321E+03  0.12502055686E+03 0.  0.
          5    1    3    3  502    0 -0.33620122576E+01  0.64617132464E+02  0.63179259013E+02  0.90555981049E+02  0.47000000000E+01 0.  1.
         -5    1    3    3    0  502  0.26150159118E+02 -0.45961161421E+02  0.11620055434E+01  0.53100842159E+02  0.47000000000E+01 0.  1.
        -11    1    1    2    0    0  0.11095182323E+02 -0.11342289718E+02 -0.60344578529E+02  0.62395663027E+02  0.00000000000E+00 0.  1.
         11    1    1    2    0    0 -0.33883329183E+02 -0.73136813239E+01  0.34403155683E+02  0.48837967321E+02  0.00000000000E+00 0. -1.
<mgrwt>
<rscale>  0 0.12304238E+03</rscale>
<asrwt>0</asrwt>
<pdfrwt beam="1">  1        3 0.22560792E-01 0.12844253E+03</pdfrwt>
<pdfrwt beam="2">  1       -3 0.16653124E-01 0.12844253E+03</pdfrwt>
<totfact> 0.12775350E+03</totfact>
</mgrwt>
</event>
<event>
 7    1  0.5928109E-006  0.1263265E+03  0.7546771E-02  0.1247470E+00
          2   -1    0    0  501    0  0.00000000000E+00  0.00000000000E+00  0.10928218513E+03  0.10928218513E+03  0.00000000000E+00 0. -1.
         -2   -1    0    0    0  501 -0.00000000000E+00 -0.00000000000E+00 -0.12323963775E+03  0.12323963775E+03  0.00000000000E+00 0.  1.
         23    2    1    2    0    0 -0.14997170856E+01 -0.18121292313E+02  0.28028140202E+02  0.12939850401E+03  0.12501106275E+03 0.  0.
          5    1    3    3  502    0  0.52334042686E+02 -0.20712295464E+02  0.45520739836E+02  0.72540188602E+02  0.47000000000E+01 0.  1.
         -5    1    3    3    0  502 -0.53833759772E+02  0.25910031511E+01 -0.17492599634E+02  0.56858315403E+02  0.47000000000E+01 0.  1.
        -11    1    1    2    0    0  0.35990757086E+02  0.91091513800E+01 -0.53976577833E+02  0.65511695055E+02  0.00000000000E+00 0.  1.
         11    1    1    2    0    0 -0.34491040000E+02  0.90121409331E+01  0.11990985015E+02  0.37611623817E+02  0.00000000000E+00 0. -1.
<mgrwt>
<rscale>  0 0.11738737E+03</rscale>
<asrwt>0</asrwt>
<pdfrwt beam="1">  1        2 0.16812644E-01 0.12632655E+03</pdfrwt>
<pdfrwt beam="2">  1       -2 0.18959944E-01 0.12632655E+03</pdfrwt>
<totfact> 0.73731746E+03</totfact>
</mgrwt>
</event>
<event>
 7    1  0.5928109E-006  0.1227094E+03  0.7546771E-02  0.1254041E+00
         -2   -1    0    0    0  501 -0.00000000000E+00  0.00000000000E+00  0.12419053701E+03  0.12419053701E+03  0.00000000000E+00 0.  1.
          2   -1    0    0  501    0  0.00000000000E+00 -0.00000000000E+00 -0.11994250124E+04  0.11994250124E+04  0.00000000000E+00 0. -1.
         23    2    1    2    0    0 -0.16399060630E+02  0.72083262638E+01 -0.11794554570E+04  0.11858215603E+04  0.12139484624E+03 0.  0.
          5    1    3    3  502    0 -0.35254334069E+02  0.58109670295E+02 -0.67843285545E+03  0.68184516660E+03  0.47000000000E+01 0. -1.
         -5    1    3    3    0  502  0.18855273439E+02 -0.50901344031E+02 -0.50102260152E+03  0.50397639368E+03  0.47000000000E+01 0.  1.
        -11    1    1    2    0    0 -0.87050464442E+01 -0.38378990950E+02  0.19122732086E+02  0.43753898825E+02  0.00000000000E+00 0.  1.
         11    1    1    2    0    0  0.25104107074E+02  0.31170664686E+02  0.85098249457E+02  0.94040090332E+02  0.00000000000E+00 0. -1.
<mgrwt>
<rscale>  0 0.11360238E+03</rscale>
<asrwt>0</asrwt>
<pdfrwt beam="2">  1        2 0.18452692E+00 0.12270940E+03</pdfrwt>
<pdfrwt beam="1">  1       -2 0.19106236E-01 0.12270940E+03</pdfrwt>
<totfact> 0.46753103E+02</totfact>
</mgrwt>
</event>
<event>
 7    1  0.5928109E-006  0.1315673E+03  0.7546771E-02  0.1237982E+00
          1   -1    0    0  501    0  0.00000000000E+00  0.00000000000E+00  0.42218429932E+02  0.42218429932E+02  0.00000000000E+00 0. -1.
         -1   -1    0    0    0  501 -0.00000000000E+00 -0.00000000000E+00 -0.32416025651E+03  0.32416025651E+03  0.00000000000E+00 0.  1.
         23    2    1    2    0    0  0.25622466621E+02 -0.32073346583E+02 -0.13947673026E+03  0.19173863984E+03  0.12499894947E+03 0.  0.
          5    1    3    3  502    0  0.39606651320E+02 -0.52433446293E+02 -0.15049843081E+03  0.16428579000E+03  0.47000000000E+01 0.  1.
         -5    1    3    3    0  502 -0.13984184700E+02  0.20360099709E+02  0.11021700546E+02  0.27452849849E+02  0.47000000000E+01 0.  1.
        -11    1    1    2    0    0 -0.26728384409E+02  0.12030200621E+02 -0.15027039042E+03  0.15310232689E+03  0.00000000000E+00 0.  1.
         11    1    1    2    0    0  0.11059177883E+01  0.20043145962E+02  0.78052941075E+01  0.21537719710E+02  0.00000000000E+00 0. -1.
<mgrwt>
<rscale>  0 0.12315472E+03</rscale>
<asrwt>0</asrwt>
<pdfrwt beam="1">  1        1 0.64951433E-02 0.13156727E+03</pdfrwt>
<pdfrwt beam="2">  1       -1 0.49870807E-01 0.13156727E+03</pdfrwt>
<totfact> 0.45597186E+03</totfact>
</mgrwt>
</event>
<event>
 7    1  0.5928109E-006  0.1392708E+03  0.7546771E-02  0.1225250E+00
          1   -1    0    0  501    0  0.00000000000E+00  0.00000000000E+00  0.24183292924E+03  0.24183292924E+03  0.00000000000E+00 0. -1.
         -1   -1    0    0    0  501 -0.00000000000E+00 -0.00000000000E+00 -0.65051072109E+02  0.65051072109E+02  0.00000000000E+00 0.  1.
         23    2    1    2    0    0  0.60457783001E+02  0.10766610303E+02  0.11128528583E+03  0.17827165051E+03  0.12500121243E+03 0.  0.
          5    1    3    3  502    0 -0.30757272552E+02  0.33992019685E+01  0.72121665176E+02  0.78620537881E+02  0.47000000000E+01 0. -1.
         -5    1    3    3    0  502  0.91215055554E+02  0.73674083346E+01  0.39163620656E+02  0.99651112629E+02  0.47000000000E+01 0. -1.
        -11    1    1    2    0    0 -0.45947638021E+02  0.26312500030E+02  0.11718743634E+01  0.52961366930E+02  0.00000000000E+00 0.  1.
         11    1    1    2    0    0 -0.14510144980E+02 -0.37079110333E+02  0.64324696932E+02  0.75650983905E+02  0.00000000000E+00 0. -1.
<mgrwt>
<rscale>  0 0.13149768E+03</rscale>
<asrwt>0</asrwt>
<pdfrwt beam="1">  1        1 0.37205066E-01 0.13927084E+03</pdfrwt>
<pdfrwt beam="2">  1       -1 0.10007857E-01 0.13927084E+03</pdfrwt>
<totfact> 0.66850749E+03</totfact>
</mgrwt>
</event>
<event>
 7    1  0.5928109E-006  0.1765383E+03  0.7546771E-02  0.1176666E+00
         -2   -1    0    0    0  501 -0.00000000000E+00  0.00000000000E+00  0.13991966041E+03  0.13991966041E+03  0.00000000000E+00 0. -1.
          2   -1    0    0  501    0  0.00000000000E+00 -0.00000000000E+00 -0.31169224287E+03  0.31169224287E+03  0.00000000000E+00 0.  1.
         23    2    1    2    0    0 -0.11868067666E+03 -0.38162627074E+02 -0.22578808690E+03  0.28661131256E+03  0.12499718071E+03 0.  0.
          5    1    3    3  502    0  0.13466999078E+02 -0.24888218912E+02 -0.53026872919E+01  0.29171767126E+02  0.47000000000E+01 0. -1.
         -5    1    3    3    0  502 -0.13214767574E+03 -0.13274408163E+02 -0.22048539961E+03  0.25743954544E+03  0.47000000000E+01 0. -1.
        -11    1    1    2    0    0  0.40705398893E+02  0.24309638796E+02  0.69669800222E+02  0.84271994758E+02  0.00000000000E+00 0. -1.
         11    1    1    2    0    0  0.77975277771E+02  0.13852988278E+02 -0.15654295786E+02  0.80728595952E+02  0.00000000000E+00 0.  1.
<mgrwt>
<rscale>  0 0.17113816E+03</rscale>
<asrwt>0</asrwt>
<pdfrwt beam="2">  1        2 0.47952652E-01 0.17653834E+03</pdfrwt>
<pdfrwt beam="1">  1       -2 0.21526102E-01 0.17653834E+03</pdfrwt>
<totfact> 0.19139522E+03</totfact>
</mgrwt>
</event>
<event>
 7    1  0.5928109E-006  0.1741028E+03  0.7546771E-02  0.1179304E+00
          2   -1    0    0  501    0  0.00000000000E+00  0.00000000000E+00  0.13518101600E+03  0.13518101600E+03  0.00000000000E+00 0.  1.
         -2   -1    0    0    0  501 -0.00000000000E+00 -0.00000000000E+00 -0.20045086988E+03  0.20045086988E+03  0.00000000000E+00 0. -1.
         23    2    1    2    0    0  0.65503961764E+02  0.10195713855E+03 -0.16420106230E+02  0.17487543877E+03  0.12500308831E+03 0.  0.
          5    1    3    3  502    0  0.30946288324E+02  0.29960814239E+02  0.53348247568E+02  0.68727350229E+02  0.47000000000E+01 0. -1.
         -5    1    3    3    0  502  0.34557673440E+02  0.71996324313E+02 -0.69768353798E+02  0.10614808854E+03  0.47000000000E+01 0. -1.
        -11    1    1    2    0    0 -0.52356621583E+02 -0.97797073869E+02 -0.73106847692E+02  0.13285365881E+03  0.00000000000E+00 0. -1.
         11    1    1    2    0    0 -0.13147340181E+02 -0.41600646840E+01  0.24257100046E+02  0.27902788295E+02  0.00000000000E+00 0.  1.
<mgrwt>
<rscale>  0 0.16861139E+03</rscale>
<asrwt>0</asrwt>
<pdfrwt beam="1">  1        2 0.20797079E-01 0.17410284E+03</pdfrwt>
<pdfrwt beam="2">  1       -2 0.30838595E-01 0.17410284E+03</pdfrwt>
<totfact> 0.25245898E+03</totfact>
</mgrwt>
</event>
<event>
 6    1  0.5928109E-006  0.5517806E+03  0.7546771E-02  0.1049437E+00
          2   -1    0    0  501    0  0.00000000000E+00  0.00000000000E+00  0.17487966055E+04  0.17487966055E+04  0.00000000000E+00 0. -1.
         -2   -1    0    0    0  501 -0.00000000000E+00 -0.00000000000E+00 -0.15343293741E+03  0.15343293741E+03  0.00000000000E+00 0.  1.
          5    1    1    2  502    0  0.14044008754E+03 -0.17610986307E+03  0.87718382376E+03  0.90565537194E+03  0.47000000000E+01 0. -1.
         -5    1    1    2    0  502 -0.19723419721E+03  0.24539957310E+03  0.78860146924E+03  0.84913876741E+03  0.47000000000E+01 0.  1.
        -11    1    1    2    0    0 -0.48256027835E+01  0.18867284877E+02 -0.22291272104E+02  0.29600028596E+02  0.00000000000E+00 0. -1.
         11    1    1    2    0    0  0.61619712462E+02 -0.88156994913E+02 -0.48130352858E+02  0.11783537492E+03  0.00000000000E+00 0.  1.
<mgrwt>
<rscale>  0 0.38407613E+03</rscale>
<asrwt>0</asrwt>
<pdfrwt beam="1">  1        2 0.26904562E+00 0.55178060E+03</pdfrwt>
<pdfrwt beam="2">  1       -2 0.23605068E-01 0.55178060E+03</pdfrwt>
<totfact> 0.15247090E+02</totfact>
</mgrwt>
</event>
<event>
 6    1  0.5928109E-006  0.3128671E+03  0.7546771E-02  0.1122809E+00
          4   -1    0    0  501    0  0.00000000000E+00  0.00000000000E+00  0.96318045584E+02  0.96318045584E+02  0.00000000000E+00 0. -1.
         -4   -1    0    0    0  501 -0.00000000000E+00 -0.00000000000E+00 -0.44852401917E+03  0.44852401917E+03  0.00000000000E+00 0.  1.
          5    1    1    2  502    0  0.48242370395E+02  0.93160165128E+01  0.66942959167E+02  0.83171895776E+02  0.47000000000E+01 0. -1.
         -5    1    1    2    0  502 -0.37571162434E+02  0.31577343640E+02 -0.30765046870E+03  0.31157602887E+03  0.47000000000E+01 0.  1.
        -11    1    1    2    0    0 -0.30448863400E+02  0.48111518837E+01 -0.91282411663E+02  0.96347076467E+02  0.00000000000E+00 0.  1.
         11    1    1    2    0    0  0.19777655440E+02 -0.45704512036E+02 -0.20216052388E+02  0.53747063635E+02  0.00000000000E+00 0. -1.
<mgrwt>
<rscale>  0 0.23552685E+03</rscale>
<asrwt>0</asrwt>
<pdfrwt beam="1">  1        4 0.14818161E-01 0.31286709E+03</pdfrwt>
<pdfrwt beam="2">  1       -4 0.69003694E-01 0.31286709E+03</pdfrwt>
<totfact> 0.14257111E+02</totfact>
</mgrwt>
</event>
<event>
 7    1  0.5928109E-006  0.1733503E+03  0.7546771E-02  0.1180896E+00
         -1   -1    0    0    0  501 -0.00000000000E+00  0.00000000000E+00  0.12646060280E+03  0.12646060280E+03  0.00000000000E+00 0.  1.
          1   -1    0    0  501    0  0.00000000000E+00 -0.00000000000E+00 -0.20704120961E+03  0.20704120961E+03  0.00000000000E+00 0. -1.
         23    2    1    2    0    0  0.81749890195E+02 -0.87984147622E+02 -0.33388064289E+02  0.17653641738E+03  0.12500435610E+03 0.  0.
          5    1    3    3  502    0  0.10972869522E+03 -0.48695738167E+02 -0.42090140620E+02  0.12730016264E+03  0.47000000000E+01 0. -1.
         -5    1    3    3    0  502 -0.27978805028E+02 -0.39288409455E+02  0.87020763318E+01  0.49236254740E+02  0.47000000000E+01 0. -1.
        -11    1    1    2    0    0 -0.92985106444E+02  0.91915184829E+02 -0.26968959701E+02  0.13349889891E+03  0.00000000000E+00 0.  1.
         11    1    1    2    0    0  0.11235216249E+02 -0.39310372067E+01 -0.20223582820E+02  0.23466496111E+02  0.00000000000E+00 0. -1.
<mgrwt>
<rscale>  0 0.16710952E+03</rscale>
<asrwt>0</asrwt>
<pdfrwt beam="2">  1        1 0.31852494E-01 0.17335035E+03</pdfrwt>
<pdfrwt beam="1">  1       -1 0.19455477E-01 0.17335035E+03</pdfrwt>
<totfact> 0.28978123E+03</totfact>
</mgrwt>
</event>
<event>
 7    1  0.5928109E-006  0.1744209E+03  0.7546771E-02  0.1180017E+00
         -3   -1    0    0    0  501 -0.00000000000E+00  0.00000000000E+00  0.41229004237E+03  0.41229004237E+03  0.00000000000E+00 0.  1.
          3   -1    0    0  501    0  0.00000000000E+00 -0.00000000000E+00 -0.76458180996E+02  0.76458180996E+02  0.00000000000E+00 0. -1.
         23    2    1    2    0    0 -0.16686219986E+02 -0.12048964471E+03  0.79227110659E+02  0.19157135266E+03  0.12500585457E+03 0.  0.
          5    1    3    3  502    0  0.37647034610E+02 -0.69154170580E+02 -0.47830423313E+01  0.79022566508E+02  0.47000000000E+01 0. -1.
         -5    1    3    3    0  502 -0.54333254596E+02 -0.51335474132E+02  0.84010152991E+02  0.11254878615E+03  0.47000000000E+01 0. -1.
        -11    1    1    2    0    0  0.41719056858E+02  0.92721283073E+02  0.12925243683E+03  0.16445032218E+03  0.00000000000E+00 0. -1.
         11    1    1    2    0    0 -0.25032836872E+02  0.27768361640E+02  0.12735231389E+03  0.13272654852E+03  0.00000000000E+00 0.  1.
<mgrwt>
<rscale>  0 0.16793633E+03</rscale>
<asrwt>0</asrwt>
<pdfrwt beam="2">  1        3 0.11762797E-01 0.17442089E+03</pdfrwt>
<pdfrwt beam="1">  1       -3 0.63429236E-01 0.17442089E+03</pdfrwt>
<totfact> 0.33098255E+02</totfact>
</mgrwt>
</event>
<event>
 7    1  0.5928109E-006  0.1866921E+03  0.7546771E-02  0.1165160E+00
          1   -1    0    0  501    0  0.00000000000E+00  0.00000000000E+00  0.43674294785E+04  0.43674294785E+04  0.00000000000E+00 0. -1.
         -1   -1    0    0    0  501 -0.00000000000E+00 -0.00000000000E+00 -0.23728751547E+02  0.23728751547E+02  0.00000000000E+00 0.  1.
         23    2    1    2    0    0  0.26034130864E+02 -0.14009113419E+03  0.40245081954E+04  0.40288360782E+04  0.12062598371E+03 0.  0.
          5    1    3    3  502    0  0.12855196725E+02 -0.15840880310E+03  0.37471175668E+04  0.37504894020E+04  0.47000000000E+01 0. -1.
         -5    1    3    3    0  502  0.13178934140E+02  0.18317668908E+02  0.27739062864E+03  0.27834667621E+03  0.47000000000E+01 0.  1.
        -11    1    1    2    0    0 -0.15119937940E+00  0.10456186803E+03  0.29312625743E+03  0.31121730335E+03  0.00000000000E+00 0. -1.
         11    1    1    2    0    0 -0.25882931485E+02  0.35529266161E+02  0.26066274077E+02  0.51104848502E+02  0.00000000000E+00 0.  1.
<mgrwt>
<rscale>  0 0.18275773E+03</rscale>
<asrwt>0</asrwt>
<pdfrwt beam="1">  1        1 0.67191159E+00 0.18669207E+03</pdfrwt>
<pdfrwt beam="2">  1       -1 0.36505806E-02 0.18669207E+03</pdfrwt>
<totfact> 0.17504960E+01</totfact>
</mgrwt>
</event>
<event>
 7    1  0.5928109E-006  0.3098488E+03  0.7546771E-02  0.1081834E+00
          1   -1    0    0  501    0  0.00000000000E+00  0.00000000000E+00  0.39263885157E+03  0.39263885157E+03  0.00000000000E+00 0.  1.
         -1   -1    0    0    0  501 -0.00000000000E+00 -0.00000000000E+00 -0.36388365564E+03  0.36388365564E+03  0.00000000000E+00 0. -1.
         23    2    1    2    0    0 -0.28345402971E+03 -0.59393231001E+01  0.23923262675E+03  0.39145690629E+03  0.12499918905E+03 0.  0.
          5    1    3    3  502    0 -0.24197028284E+02  0.26036664470E+02  0.74272852896E+02  0.82473939835E+02  0.47000000000E+01 0. -1.
         -5    1    3    3    0  502 -0.25925700143E+03 -0.31975987570E+02  0.16495977386E+03  0.30898296646E+03  0.47000000000E+01 0. -1.
        -11    1    1    2    0    0  0.18117960703E+03  0.20590868820E+02 -0.18259186722E+03  0.25805004138E+03  0.00000000000E+00 0. -1.
         11    1    1    2    0    0  0.10227442268E+03 -0.14651545720E+02 -0.27885563595E+02  0.10701555954E+03  0.00000000000E+00 0.  1.
<mgrwt>
<rscale>  0 0.30691569E+03</rscale>
<asrwt>0</asrwt>
<pdfrwt beam="1">  1        1 0.60405977E-01 0.30984877E+03</pdfrwt>
<pdfrwt beam="2">  1       -1 0.55982101E-01 0.30984877E+03</pdfrwt>
<totfact> 0.20710549E+02</totfact>
</mgrwt>
</event>
<event>
 7    1  0.5928109E-006  0.1321543E+03  0.7546771E-02  0.1239503E+00
          3   -1    0    0  501    0  0.00000000000E+00  0.00000000000E+00  0.37325259727E+02  0.37325259727E+02  0.00000000000E+00 0. -1.
         -3   -1    0    0    0  501 -0.00000000000E+00 -0.00000000000E+00 -0.38823211285E+03  0.38823211285E+03  0.00000000000E+00 0.  1.
         23    2    1    2    0    0 -0.95102760247E+01  0.42027661346E+02 -0.26559058332E+03  0.29665319373E+03  0.12493194040E+03 0.  0.
          5    1    3    3  502    0  0.23927598566E+02  0.75676105201E+02 -0.12444882220E+03  0.14767871281E+03  0.47000000000E+01 0. -1.
         -5    1    3    3    0  502 -0.33437874590E+02 -0.33648443855E+02 -0.14114176113E+03  0.14897448092E+03  0.47000000000E+01 0. -1.
        -11    1    1    2    0    0  0.22803822473E+02 -0.16146346561E+02  0.96655079109E+01  0.29565873398E+02  0.00000000000E+00 0. -1.
         11    1    1    2    0    0 -0.13293546448E+02 -0.25881314785E+02 -0.94981777706E+02  0.99338305444E+02  0.00000000000E+00 0.  1.
<mgrwt>
<rscale>  0 0.12220510E+03</rscale>
<asrwt>0</asrwt>
<pdfrwt beam="1">  1        3 0.57423480E-02 0.13215430E+03</pdfrwt>
<pdfrwt beam="2">  1       -3 0.59728014E-01 0.13215430E+03</pdfrwt>
<totfact> 0.11644015E+03</totfact>
</mgrwt>
</event>
<event>
 7    1  0.5928109E-006  0.2008241E+03  0.7546771E-02  0.1153157E+00
          1   -1    0    0  501    0  0.00000000000E+00  0.00000000000E+00  0.20398820574E+03  0.20398820574E+03  0.00000000000E+00 0. -1.
         -1   -1    0    0    0  501 -0.00000000000E+00 -0.00000000000E+00 -0.23613321008E+03  0.23613321008E+03  0.00000000000E+00 0.  1.
         23    2    1    2    0    0 -0.70051638616E+01 -0.15701918734E+03  0.90706006029E+02  0.22035858284E+03  0.12500491186E+03 0.  0.
          5    1    3    3  502    0 -0.60165883693E+02 -0.12401295484E+03  0.66349352399E+02  0.15304729038E+03  0.47000000000E+01 0. -1.
         -5    1    3    3    0  502  0.53160719832E+02 -0.33006232505E+02  0.24356653630E+02  0.67311292465E+02  0.47000000000E+01 0. -1.
        -11    1    1    2    0    0  0.30707105921E+02  0.15498683086E+03 -0.10146184228E+03  0.18777206803E+03  0.00000000000E+00 0. -1.
         11    1    1    2    0    0 -0.23701942059E+02  0.20323564835E+01 -0.21389168082E+02  0.31990764941E+02  0.00000000000E+00 0.  1.
<mgrwt>
<rscale>  0 0.19600160E+03</rscale>
<asrwt>0</asrwt>
<pdfrwt beam="1">  1        1 0.31382801E-01 0.20082412E+03</pdfrwt>
<pdfrwt beam="2">  1       -1 0.36328186E-01 0.20082412E+03</pdfrwt>
<totfact> 0.10443910E+03</totfact>
</mgrwt>
</event>
<event>
 7    1  0.5928109E-006  0.1746189E+03  0.7546771E-02  0.1178740E+00
          2   -1    0    0  501    0  0.00000000000E+00  0.00000000000E+00  0.18001519359E+03  0.18001519359E+03  0.00000000000E+00 0. -1.
         -2   -1    0    0    0  501 -0.00000000000E+00 -0.00000000000E+00 -0.18174633804E+03  0.18174633804E+03  0.00000000000E+00 0.  1.
         23    2    1    2    0    0 -0.50969938188E+02 -0.11073211507E+03  0.74871733197E+02  0.18999354616E+03  0.12502893763E+03 0.  0.
          5    1    3    3  502    0 -0.79606224757E+02 -0.73961805049E+02  0.89600605702E+01  0.10913236143E+03  0.47000000000E+01 0. -1.
         -5    1    3    3    0  502  0.28636286569E+02 -0.36770310026E+02  0.65911672626E+02  0.80861184732E+02  0.47000000000E+01 0. -1.
        -11    1    1    2    0    0  0.32407268895E+02  0.49062023432E+02  0.14157278447E+02  0.60479267138E+02  0.00000000000E+00 0. -1.
         11    1    1    2    0    0  0.18562669294E+02  0.61670091642E+02 -0.90760156088E+02  0.11128871833E+03  0.00000000000E+00 0.  1.
<mgrwt>
<rscale>  0 0.16914758E+03</rscale>
<asrwt>0</asrwt>
<pdfrwt beam="1">  1        2 0.27694645E-01 0.17461893E+03</pdfrwt>
<pdfrwt beam="2">  1       -2 0.27960975E-01 0.17461893E+03</pdfrwt>
<totfact> 0.21879449E+03</totfact>
</mgrwt>
</event>
<event>
 7    1  0.5928109E-006  0.2022033E+03  0.7546771E-02  0.1155222E+00
          3   -1    0    0  501    0  0.00000000000E+00  0.00000000000E+00  0.74746475528E+03  0.74746475528E+03  0.00000000000E+00 0. -1.
         -3   -1    0    0    0  501 -0.00000000000E+00 -0.00000000000E+00 -0.57649724167E+02  0.57649724167E+02  0.00000000000E+00 0.  1.
         23    2    1    2    0    0  0.15855939629E+03  0.10998733564E+02  0.54656426365E+03  0.58276810886E+03  0.12499648038E+03 0.  0.
          5    1    3    3  502    0 -0.79237579023E+01  0.48656563030E+00 -0.19500329729E+01  0.94294917150E+01  0.47000000000E+01 0. -1.
         -5    1    3    3    0  502  0.16648315419E+03  0.10512167934E+02  0.54851429663E+03  0.57333861714E+03  0.47000000000E+01 0. -1.
        -11    1    1    2    0    0 -0.35925964384E+02 -0.27717395657E+02  0.48959119288E+02  0.66752710060E+02  0.00000000000E+00 0. -1.
         11    1    1    2    0    0 -0.12263343190E+03  0.16718662092E+02  0.94291648171E+02  0.15559366053E+03  0.00000000000E+00 0.  1.
<mgrwt>
<rscale>  0 0.19363576E+03</rscale>
<asrwt>0</asrwt>
<pdfrwt beam="1">  1        3 0.11499457E+00 0.20220330E+03</pdfrwt>
<pdfrwt beam="2">  1       -3 0.88691889E-02 0.20220330E+03</pdfrwt>
<totfact> 0.14433506E+02</totfact>
</mgrwt>
</event>
<event>
 7    1  0.5928109E-006  0.1289423E+03  0.7546771E-02  0.1253332E+00
         -2   -1    0    0    0  501 -0.00000000000E+00  0.00000000000E+00  0.16638931850E+02  0.16638931850E+02  0.00000000000E+00 0.  1.
          2   -1    0    0  501    0  0.00000000000E+00 -0.00000000000E+00 -0.69397615054E+03  0.69397615054E+03  0.00000000000E+00 0. -1.
         23    2    1    2    0    0 -0.27310517810E+02 -0.15581637558E+02 -0.50362226676E+03  0.51986681498E+03  0.12504985378E+03 0.  0.
          5    1    3    3  502    0  0.42598532226E+02 -0.17626080924E+02 -0.31967481268E+03  0.32301608247E+03  0.47000000000E+01 0.  1.
         -5    1    3    3    0  502 -0.69909050036E+02  0.20444433659E+01 -0.18394745408E+03  0.19685073251E+03  0.47000000000E+01 0.  1.
        -11    1    1    2    0    0  0.11454518226E+02  0.41933614030E+02 -0.13164033093E+03  0.13863192525E+03  0.00000000000E+00 0. -1.
         11    1    1    2    0    0  0.15855999584E+02 -0.26351976472E+02 -0.42074621007E+02  0.52116342156E+02  0.00000000000E+00 0.  1.
<mgrwt>
<rscale>  0 0.11400284E+03</rscale>
<asrwt>0</asrwt>
<pdfrwt beam="2">  1        2 0.10676556E+00 0.12894230E+03</pdfrwt>
<pdfrwt beam="1">  1       -2 0.25598358E-02 0.12894230E+03</pdfrwt>
<totfact> 0.21398977E+04</totfact>
</mgrwt>
</event>
<event>
 7    1  0.5928109E-006  0.1308886E+03  0.7546771E-02  0.1239241E+00
         -1   -1    0    0    0  501 -0.00000000000E+00  0.00000000000E+00  0.23644229809E+02  0.23644229809E+02  0.00000000000E+00 0.  1.
          1   -1    0    0  501    0  0.00000000000E+00 -0.00000000000E+00 -0.67705512455E+03  0.67705512455E+03  0.00000000000E+00 0. -1.
         23    2    1    2    0    0 -0.30370427687E+02 -0.24178006728E+02 -0.50543219712E+03  0.52210489563E+03  0.12499950906E+03 0.  0.
          5    1    3    3  502    0 -0.26512089642E+02  0.45278052611E+02 -0.31363358932E+03  0.31802690341E+03  0.47000000000E+01 0.  1.
         -5    1    3    3    0  502 -0.38583380442E+01 -0.69456059339E+02 -0.19179860780E+03  0.20407799221E+03  0.47000000000E+01 0.  1.
        -11    1    1    2    0    0  0.36823884243E+02 -0.29172242565E+01 -0.14607845276E+03  0.15067655096E+03  0.00000000000E+00 0. -1.
         11    1    1    2    0    0 -0.64534565564E+01  0.27095230985E+02 -0.19002448559E+01  0.27917907768E+02  0.00000000000E+00 0.  1.
<mgrwt>
<rscale>  0 0.12236775E+03</rscale>
<asrwt>0</asrwt>
<pdfrwt beam="2">  1        1 0.10416232E+00 0.13088856E+03</pdfrwt>
<pdfrwt beam="1">  1       -1 0.36375739E-02 0.13088856E+03</pdfrwt>
<totfact> 0.80411654E+03</totfact>
</mgrwt>
</event>
<event>
 7    1  0.5928109E-006  0.1741574E+03  0.7546771E-02  0.1179580E+00
          2   -1    0    0  501    0  0.00000000000E+00  0.00000000000E+00  0.61977038004E+03  0.61977038004E+03  0.00000000000E+00 0. -1.
         -2   -1    0    0    0  501 -0.00000000000E+00 -0.00000000000E+00 -0.43026408634E+02  0.43026408634E+02  0.00000000000E+00 0.  1.
         23    2    1    2    0    0  0.11558329572E+03  0.36688605366E+02  0.32375242353E+03  0.36762268843E+03  0.12500102919E+03 0.  0.
          5    1    3    3  502    0  0.15464470872E+02 -0.16376891039E+02 -0.16055293140E+01  0.23065561858E+02  0.47000000000E+01 0. -1.
         -5    1    3    3    0  502  0.10011882485E+03  0.53065496406E+02  0.32535795284E+03  0.34455712658E+03  0.47000000000E+01 0. -1.
        -11    1    1    2    0    0 -0.60031707128E+02  0.15826577940E+02  0.55015588285E+02  0.82951801573E+02  0.00000000000E+00 0.  1.
         11    1    1    2    0    0 -0.55551588595E+02 -0.52515183306E+02  0.19797595960E+03  0.21222229867E+03  0.00000000000E+00 0. -1.
<mgrwt>
<rscale>  0 0.16834960E+03</rscale>
<asrwt>0</asrwt>
<pdfrwt beam="1">  1        2 0.95349283E-01 0.17415743E+03</pdfrwt>
<pdfrwt beam="2">  1       -2 0.66194479E-02 0.17415743E+03</pdfrwt>
<totfact> 0.60277596E+03</totfact>
</mgrwt>
</event>
<event>
 6    1  0.5928109E-006  0.1916557E+03  0.7546771E-02  0.1186699E+00
          1   -1    0    0  501    0  0.00000000000E+00  0.00000000000E+00  0.37783332165E+03  0.37783332165E+03  0.00000000000E+00 0. -1.
         -1   -1    0    0    0  501 -0.00000000000E+00 -0.00000000000E+00 -0.86637963634E+02  0.86637963634E+02  0.00000000000E+00 0.  1.
          5    1    1    2  502    0  0.39321235257E+02  0.25541218001E+02  0.30331850202E+03  0.30695719087E+03  0.47000000000E+01 0. -1.
         -5    1    1    2    0  502 -0.20823218044E+02 -0.53654883508E+02  0.75417410200E+01  0.58235906377E+02  0.47000000000E+01 0.  1.
        -11    1    1    2    0    0  0.32345443058E+02  0.74386141739E+01 -0.28423545032E+02  0.43697352090E+02  0.00000000000E+00 0. -1.
         11    1    1    2    0    0 -0.50843460271E+02  0.20675051333E+02  0.87586600150E+01  0.55580835953E+02  0.00000000000E+00 0.  1.
<mgrwt>
<rscale>  0 0.16178264E+03</rscale>
<asrwt>0</asrwt>
<pdfrwt beam="1">  1        1 0.58128202E-01 0.19165570E+03</pdfrwt>
<pdfrwt beam="2">  1       -1 0.13328918E-01 0.19165570E+03</pdfrwt>
<totfact> 0.24974091E+03</totfact>
</mgrwt>
</event>
<event>
 7    1  0.5928109E-006  0.1470309E+03  0.7546771E-02  0.1213697E+00
         -2   -1    0    0    0  501 -0.00000000000E+00  0.00000000000E+00  0.29471966852E+02  0.29471966852E+02  0.00000000000E+00 0.  1.
          2   -1    0    0  501    0  0.00000000000E+00 -0.00000000000E+00 -0.66045734387E+03  0.66045734387E+03  0.00000000000E+00 0. -1.
         23    2    1    2    0    0  0.44576652531E+02  0.63272864660E+02 -0.44475572768E+03  0.46842901343E+03  0.12501019946E+03 0.  0.
          5    1    3    3  502    0 -0.16002864985E+02  0.41493915304E+02 -0.35537827079E+03  0.35818101854E+03  0.47000000000E+01 0. -1.
         -5    1    3    3    0  502  0.60579517516E+02  0.21778949356E+02 -0.89377456891E+02  0.11024799489E+03  0.47000000000E+01 0. -1.
        -11    1    1    2    0    0  0.23486368036E+01 -0.70692992575E+02 -0.92770935918E+02  0.11665959817E+03  0.00000000000E+00 0.  1.
         11    1    1    2    0    0 -0.46925289334E+02  0.74201279151E+01 -0.93458713426E+02  0.10484069912E+03  0.00000000000E+00 0. -1.
<mgrwt>
<rscale>  0 0.13972680E+03</rscale>
<asrwt>0</asrwt>
<pdfrwt beam="2">  1        2 0.10160882E+00 0.14703089E+03</pdfrwt>
<pdfrwt beam="1">  1       -2 0.45341490E-02 0.14703089E+03</pdfrwt>
<totfact> 0.98393233E+03</totfact>
</mgrwt>
</event>
<event>
 7    1  0.5928109E-006  0.1388989E+03  0.7546771E-02  0.1226430E+00
          1   -1    0    0  501    0  0.00000000000E+00  0.00000000000E+00  0.78145448075E+02  0.78145448075E+02  0.00000000000E+00 0. -1.
         -1   -1    0    0    0  501 -0.00000000000E+00 -0.00000000000E+00 -0.20100988651E+03  0.20100988651E+03  0.00000000000E+00 0.  1.
         23    2    1    2    0    0  0.54812615656E+02 -0.25752914787E+02 -0.47720099538E+02  0.14686766185E+03  0.12500106696E+03 0.  0.
          5    1    3    3  502    0 -0.13217185418E+02  0.39075758438E+02 -0.29752782637E+02  0.51077656196E+02  0.47000000000E+01 0.  1.
         -5    1    3    3    0  502  0.68029801074E+02 -0.64828673224E+02 -0.17967316901E+02  0.95790005652E+02  0.47000000000E+01 0.  1.
        -11    1    1    2    0    0 -0.12435248330E+01  0.24702508038E+02 -0.74719263671E+02  0.78706598331E+02  0.00000000000E+00 0.  1.
         11    1    1    2    0    0 -0.53569090823E+02  0.10504067487E+01 -0.42507523068E+00  0.53581074409E+02  0.00000000000E+00 0. -1.
<mgrwt>
<rscale>  0 0.13069358E+03</rscale>
<asrwt>0</asrwt>
<pdfrwt beam="1">  1        1 0.12022377E-01 0.13889889E+03</pdfrwt>
<pdfrwt beam="2">  1       -1 0.30924597E-01 0.13889889E+03</pdfrwt>
<totfact> 0.46448000E+03</totfact>
</mgrwt>
</event>
<event>
 7    1  0.5928109E-006  0.1311917E+03  0.7546771E-02  0.1239704E+00
         -1   -1    0    0    0  501 -0.00000000000E+00  0.00000000000E+00  0.83002630637E+01  0.83002630637E+01  0.00000000000E+00 0.  1.
          1   -1    0    0  501    0  0.00000000000E+00 -0.00000000000E+00 -0.25834887227E+04  0.25834887227E+04  0.00000000000E+00 0. -1.
         23    2    1    2    0    0 -0.38778597697E+02 -0.90871278548E+01 -0.22003445550E+04  0.22042521247E+04  0.12499965295E+03 0.  0.
          5    1    3    3  502    0  0.23848034390E+02  0.37663188266E+02 -0.46872713627E+03  0.47086565257E+03  0.47000000000E+01 0. -1.
         -5    1    3    3    0  502 -0.62626632086E+02 -0.46750316121E+02 -0.17316174187E+04  0.17333864722E+04  0.47000000000E+01 0. -1.
        -11    1    1    2    0    0  0.65888715258E+02 -0.26226542486E+01 -0.29812744047E+03  0.30533288699E+03  0.00000000000E+00 0.  1.
         11    1    1    2    0    0 -0.27110117562E+02  0.11709782103E+02 -0.76716464174E+02  0.82203974031E+02  0.00000000000E+00 0. -1.
<mgrwt>
<rscale>  0 0.12208060E+03</rscale>
<asrwt>0</asrwt>
<pdfrwt beam="2">  1        1 0.39745932E+00 0.13119173E+03</pdfrwt>
<pdfrwt beam="1">  1       -1 0.12769651E-02 0.13119173E+03</pdfrwt>
<totfact> 0.18565479E+03</totfact>
</mgrwt>
</event>
<event>
 7    1  0.5928109E-006  0.2203837E+03  0.7546771E-02  0.1137039E+00
         -1   -1    0    0    0  501 -0.00000000000E+00  0.00000000000E+00  0.89044491186E+02  0.89044491186E+02  0.00000000000E+00 0.  1.
          1   -1    0    0  501    0  0.00000000000E+00 -0.00000000000E+00 -0.50373765816E+03  0.50373765816E+03  0.00000000000E+00 0. -1.
         23    2    1    2    0    0 -0.72556927232E+02  0.16637230422E+03 -0.23052591137E+03  0.31892188419E+03  0.12499888440E+03 0.  0.
          5    1    3    3  502    0 -0.12465651137E+02  0.13630165924E+03 -0.20572778111E+03  0.24714276176E+03  0.47000000000E+01 0. -1.
         -5    1    3    3    0  502 -0.60091276096E+02  0.30070644987E+02 -0.24798130261E+02  0.71779122432E+02  0.47000000000E+01 0. -1.
        -11    1    1    2    0    0  0.74117141327E+02 -0.59976178987E+02 -0.10019808696E+03  0.13831178300E+03  0.00000000000E+00 0. -1.
         11    1    1    2    0    0 -0.15602140945E+01 -0.10639612524E+03 -0.83969168636E+02  0.13554848216E+03  0.00000000000E+00 0.  1.
<mgrwt>
<rscale>  0 0.21581959E+03</rscale>
<asrwt>0</asrwt>
<pdfrwt beam="2">  1        1 0.77498100E-01 0.22038369E+03</pdfrwt>
<pdfrwt beam="1">  1       -1 0.13699153E-01 0.22038369E+03</pdfrwt>
<totfact> 0.16540996E+03</totfact>
</mgrwt>
</event>
<event>
 7    1  0.5928109E-006  0.1668784E+03  0.7546771E-02  0.1187676E+00
          2   -1    0    0  501    0  0.00000000000E+00  0.00000000000E+00  0.96245717654E+03  0.96245717654E+03  0.00000000000E+00 0. -1.
         -2   -1    0    0    0  501 -0.00000000000E+00 -0.00000000000E+00 -0.28421717817E+02  0.28421717817E+02  0.00000000000E+00 0.  1.
         23    2    1    2    0    0  0.83319458072E+02  0.72662570890E+02  0.66494075569E+03  0.68556153081E+03  0.12500569044E+03 0.  0.
          5    1    3    3  502    0  0.37328978859E+02  0.60728382361E+02  0.12868623295E+03  0.14718568421E+03  0.47000000000E+01 0.  1.
         -5    1    3    3    0  502  0.45990479213E+02  0.11934188529E+02  0.53625452274E+03  0.53837584660E+03  0.47000000000E+01 0.  1.
        -11    1    1    2    0    0 -0.63923310874E+02 -0.47429639100E+02  0.77490733073E+02  0.11108813641E+03  0.00000000000E+00 0.  1.
         11    1    1    2    0    0 -0.19396147199E+02 -0.25232931790E+02  0.19160396995E+03  0.19422922714E+03  0.00000000000E+00 0. -1.
<mgrwt>
<rscale>  0 0.16090725E+03</rscale>
<asrwt>0</asrwt>
<pdfrwt beam="1">  1        2 0.14807031E+00 0.16687841E+03</pdfrwt>
<pdfrwt beam="2">  1       -2 0.43725727E-02 0.16687841E+03</pdfrwt>
<totfact> 0.65192321E+03</totfact>
</mgrwt>
</event>
<event>
 6    1  0.5928109E-006  0.1439830E+03  0.7546771E-02  0.1228078E+00
          1   -1    0    0  501    0  0.00000000000E+00  0.00000000000E+00  0.82566843876E+03  0.82566843876E+03  0.00000000000E+00 0. -1.
         -1   -1    0    0    0  501 -0.00000000000E+00 -0.00000000000E+00 -0.29492301239E+02  0.29492301239E+02  0.00000000000E+00 0.  1.
          5    1    1    2  502    0 -0.25663207410E+01  0.83923366271E+02  0.38969782674E+03  0.39866803681E+03  0.47000000000E+01 0. -1.
         -5    1    1    2    0  502  0.67962145124E+01 -0.58772455670E+02  0.32903927139E+03  0.33434910227E+03  0.47000000000E+01 0.  1.
        -11    1    1    2    0    0 -0.43647439279E+02  0.62020183084E+01  0.36812701660E+02  0.57434649735E+02  0.00000000000E+00 0. -1.
         11    1    1    2    0    0  0.39417545507E+02 -0.31352928910E+02  0.40626337737E+02  0.64708951181E+02  0.00000000000E+00 0.  1.
<mgrwt>
<rscale>  0 0.12958143E+03</rscale>
<asrwt>0</asrwt>
<pdfrwt beam="1">  1        1 0.12702590E+00 0.14398302E+03</pdfrwt>
<pdfrwt beam="2">  1       -1 0.45372778E-02 0.14398302E+03</pdfrwt>
<totfact> 0.43638026E+03</totfact>
</mgrwt>
</event>
<event>
 7    1  0.5928109E-006  0.1367132E+03  0.7546771E-02  0.1227742E+00
         -1   -1    0    0    0  501 -0.00000000000E+00  0.00000000000E+00  0.13140031200E+03  0.13140031200E+03  0.00000000000E+00 0.  1.
          1   -1    0    0  501    0  0.00000000000E+00 -0.00000000000E+00 -0.18461880537E+03  0.18461880537E+03  0.00000000000E+00 0. -1.
         23    2    1    2    0    0  0.49792092777E+02  0.24222206211E+02 -0.12375654375E+03  0.18440765820E+03  0.12499813800E+03 0.  0.
          5    1    3    3  502    0 -0.13686400877E+02 -0.29741923335E+00  0.20350180057E+02  0.24972501987E+02  0.47000000000E+01 0.  1.
         -5    1    3    3    0  502  0.63478493654E+02  0.24519625444E+02 -0.14410672381E+03  0.15943515621E+03  0.47000000000E+01 0.  1.
        -11    1    1    2    0    0 -0.68974409604E+02  0.11569381061E+02  0.50932814902E+02  0.86518618761E+02  0.00000000000E+00 0.  1.
         11    1    1    2    0    0  0.19182316827E+02 -0.35791587272E+02  0.19605235485E+02  0.45092840416E+02  0.00000000000E+00 0. -1.
<mgrwt>
<rscale>  0 0.12980711E+03</rscale>
<asrwt>0</asrwt>
<pdfrwt beam="2">  1        1 0.28402893E-01 0.13671321E+03</pdfrwt>
<pdfrwt beam="1">  1       -1 0.20215433E-01 0.13671321E+03</pdfrwt>
<totfact> 0.31105281E+03</totfact>
</mgrwt>
</event>
<event>
 7    1  0.5928109E-006  0.1320977E+03  0.7546771E-02  0.1238073E+00
         -2   -1    0    0    0  501 -0.00000000000E+00  0.00000000000E+00  0.55576100334E+02  0.55576100334E+02  0.00000000000E+00 0.  1.
          2   -1    0    0  501    0  0.00000000000E+00 -0.00000000000E+00 -0.28623962462E+03  0.28623962462E+03  0.00000000000E+00 0. -1.
         23    2    1    2    0    0  0.40423119948E+02 -0.13797495295E+02 -0.19597179058E+03  0.23633611052E+03  0.12500165972E+03 0.  0.
          5    1    3    3  502    0  0.71717496809E+02 -0.80785579659E+01 -0.52668977598E+02  0.89469400628E+02  0.47000000000E+01 0. -1.
         -5    1    3    3    0  502 -0.31294376861E+02 -0.57189373293E+01 -0.14330281298E+03  0.14686670990E+03  0.47000000000E+01 0. -1.
        -11    1    1    2    0    0 -0.58968756566E+02 -0.49682403812E+01  0.32493879775E+01  0.59266821963E+02  0.00000000000E+00 0.  1.
         11    1    1    2    0    0  0.18545636618E+02  0.18765735676E+02 -0.37941121688E+02  0.46212792471E+02  0.00000000000E+00 0. -1.
<mgrwt>
<rscale>  0 0.12309738E+03</rscale>
<asrwt>0</asrwt>
<pdfrwt beam="2">  1        2 0.44036866E-01 0.13209775E+03</pdfrwt>
<pdfrwt beam="1">  1       -2 0.85501692E-02 0.13209775E+03</pdfrwt>
<totfact> 0.92606707E+03</totfact>
</mgrwt>
</event>
<event>
 7    1  0.5928109E-006  0.1291358E+03  0.7546771E-02  0.1242914E+00
         -2   -1    0    0    0  501 -0.00000000000E+00  0.00000000000E+00  0.35263328202E+02  0.35263328202E+02  0.00000000000E+00 0.  1.
          2   -1    0    0  501    0  0.00000000000E+00 -0.00000000000E+00 -0.44952757245E+03  0.44952757245E+03  0.00000000000E+00 0. -1.
         23    2    1    2    0    0  0.82485975993E+01 -0.31388355468E+02 -0.33751629448E+03  0.36137694476E+03  0.12499111546E+03 0.  0.
          5    1    3    3  502    0  0.45576100654E+02  0.21978297534E+02 -0.23032638736E+03  0.23586555753E+03  0.47000000000E+01 0. -1.
         -5    1    3    3    0  502 -0.37327503054E+02 -0.53366653002E+02 -0.10718990712E+03  0.12551138723E+03  0.47000000000E+01 0. -1.
        -11    1    1    2    0    0 -0.36831886264E+02 -0.27787155897E+00 -0.14374974769E+01  0.36860974721E+02  0.00000000000E+00 0. -1.
         11    1    1    2    0    0  0.28583288665E+02  0.31666227027E+02 -0.75310452288E+02  0.86552981166E+02  0.00000000000E+00 0.  1.
<mgrwt>
<rscale>  0 0.12011097E+03</rscale>
<asrwt>0</asrwt>
<pdfrwt beam="2">  1        2 0.69158083E-01 0.12913577E+03</pdfrwt>
<pdfrwt beam="1">  1       -2 0.54251279E-02 0.12913577E+03</pdfrwt>
<totfact> 0.11455528E+04</totfact>
</mgrwt>
</event>
<event>
 7    1  0.5928109E-006  0.1706429E+03  0.7546771E-02  0.1183572E+00
         -2   -1    0    0    0  501 -0.00000000000E+00  0.00000000000E+00  0.66665908617E+02  0.66665908617E+02  0.00000000000E+00 0.  1.
          2   -1    0    0  501    0  0.00000000000E+00 -0.00000000000E+00 -0.39995193690E+03  0.39995193690E+03  0.00000000000E+00 0. -1.
         23    2    1    2    0    0 -0.11263013163E+03  0.28418160276E+02 -0.22957525912E+03  0.28604860609E+03  0.12500346819E+03 0.  0.
          5    1    3    3  502    0  0.23310495531E+02  0.12891069456E+02 -0.74127828410E+02  0.78908705594E+02  0.47000000000E+01 0. -1.
         -5    1    3    3    0  502 -0.13594062716E+03  0.15527090820E+02 -0.15544743071E+03  0.20713990049E+03  0.47000000000E+01 0. -1.
        -11    1    1    2    0    0  0.12825562245E+03 -0.30251617544E+02 -0.88874752440E+02  0.15894460253E+03  0.00000000000E+00 0.  1.
         11    1    1    2    0    0 -0.15625490817E+02  0.18334572684E+01 -0.14836016728E+02  0.21624636903E+02  0.00000000000E+00 0. -1.
<mgrwt>
<rscale>  0 0.16462506E+03</rscale>
<asrwt>0</asrwt>
<pdfrwt beam="2">  1        2 0.61531067E-01 0.17064292E+03</pdfrwt>
<pdfrwt beam="1">  1       -2 0.10256294E-01 0.17064292E+03</pdfrwt>
<totfact> 0.49523539E+03</totfact>
</mgrwt>
</event>
<event>
 7    1  0.5928109E-006  0.1459008E+03  0.7546771E-02  0.1214091E+00
         -2   -1    0    0    0  501 -0.00000000000E+00  0.00000000000E+00  0.46687541906E+03  0.46687541906E+03  0.00000000000E+00 0.  1.
          2   -1    0    0  501    0  0.00000000000E+00 -0.00000000000E+00 -0.41852098406E+02  0.41852098406E+02  0.00000000000E+00 0. -1.
         23    2    1    2    0    0 -0.61643765721E+02  0.43153450614E+02  0.15678500215E+03  0.21416952600E+03  0.12499949927E+03 0.  0.
          5    1    3    3  502    0  0.21004863108E+02  0.47344597215E+01  0.10889871387E+03  0.11110643216E+03  0.47000000000E+01 0. -1.
         -5    1    3    3    0  502 -0.82648628829E+02  0.38418990892E+02  0.47886288272E+02  0.10306309385E+03  0.47000000000E+01 0. -1.
        -11    1    1    2    0    0  0.48921892186E+02  0.11797964283E+02  0.19893843195E+03  0.20520488104E+03  0.00000000000E+00 0.  1.
         11    1    1    2    0    0  0.12721873536E+02 -0.54951414897E+02  0.69299886560E+02  0.89353110425E+02  0.00000000000E+00 0. -1.
<mgrwt>
<rscale>  0 0.13943515E+03</rscale>
<asrwt>0</asrwt>
<pdfrwt beam="2">  1        2 0.64387847E-02 0.14590082E+03</pdfrwt>
<pdfrwt beam="1">  1       -2 0.71826984E-01 0.14590082E+03</pdfrwt>
<totfact> 0.19652310E+03</totfact>
</mgrwt>
</event>
<event>
 7    1  0.1264888E-005  0.3438339E+03  0.7546771E-02  0.1066341E+00
          1   -1    0    0  501    0  0.00000000000E+00  0.00000000000E+00  0.14723068773E+04  0.14723068773E+04  0.00000000000E+00 0.  1.
         -1   -1    0    0    0  501 -0.00000000000E+00 -0.00000000000E+00 -0.94391311109E+02  0.94391311109E+02  0.00000000000E+00 0. -1.
         23    2    1    2    0    0 -0.16821186957E+03  0.27258179465E+03  0.10268335100E+04  0.10828706280E+04  0.12500268710E+03 0.  0.
          5    1    3    3  502    0 -0.16537577257E+03  0.28534396028E+03  0.97978524747E+03  0.10338140756E+04  0.47000000000E+01 0. -1.
         -5    1    3    3    0  502 -0.28360969929E+01 -0.12762165635E+02  0.47048262556E+02  0.49056552339E+02  0.47000000000E+01 0. -1.
        -11    1    1    2    0    0  0.12686925344E+03 -0.13727148962E+03  0.23847183448E+03  0.30299849038E+03  0.00000000000E+00 0.  1.
         11    1    1    2    0    0  0.41342616127E+02 -0.13531030503E+03  0.11261022173E+03  0.18082907010E+03  0.00000000000E+00 0. -1.
<mgrwt>
<rscale>  0 0.34107031E+03</rscale>
<asrwt>0</asrwt>
<pdfrwt beam="1">  1        1 0.22650873E+00 0.34383388E+03</pdfrwt>
<pdfrwt beam="2">  1       -1 0.14521741E-01 0.34383388E+03</pdfrwt>
<totfact> 0.25110635E+02</totfact>
</mgrwt>
</event>
<event>
 7    1  0.5928109E-006  0.1443119E+03  0.7546771E-02  0.1216232E+00
          2   -1    0    0  501    0  0.00000000000E+00  0.00000000000E+00  0.47020027821E+03  0.47020027821E+03  0.00000000000E+00 0. -1.
         -2   -1    0    0    0  501 -0.00000000000E+00 -0.00000000000E+00 -0.67127582574E+02  0.67127582574E+02  0.00000000000E+00 0.  1.
         23    2    1    2    0    0 -0.33447149160E+02  0.63913284332E+02  0.39069337697E+03  0.41649399777E+03  0.12498926221E+03 0.  0.
          5    1    3    3  502    0  0.19858190930E+02  0.27303828502E+02  0.31495369436E+03  0.31679293930E+03  0.47000000000E+01 0. -1.
         -5    1    3    3    0  502 -0.53305340091E+02  0.36609455830E+02  0.75739682613E+02  0.99701058474E+02  0.47000000000E+01 0. -1.
        -11    1    1    2    0    0 -0.31614013767E+02 -0.16554188029E+02  0.18373803967E+02  0.40138306890E+02  0.00000000000E+00 0.  1.
         11    1    1    2    0    0  0.65061162927E+02 -0.47359096303E+02 -0.59944853029E+01  0.80695556124E+02  0.00000000000E+00 0. -1.
<mgrwt>
<rscale>  0 0.13786406E+03</rscale>
<asrwt>0</asrwt>
<pdfrwt beam="1">  1        2 0.72338502E-01 0.14431194E+03</pdfrwt>
<pdfrwt beam="2">  1       -2 0.10327321E-01 0.14431194E+03</pdfrwt>
<totfact> 0.40783035E+03</totfact>
</mgrwt>
</event>
<event>
 6    1  0.5928109E-006  0.4526330E+03  0.7546771E-02  0.1075020E+00
         -2   -1    0    0    0  501 -0.00000000000E+00  0.00000000000E+00  0.56640900292E+02  0.56640900292E+02  0.00000000000E+00 0.  1.
          2   -1    0    0  501    0  0.00000000000E+00 -0.00000000000E+00 -0.16841665181E+04  0.16841665181E+04  0.00000000000E+00 0. -1.
          5    1    1    2  502    0 -0.82335364654E+01  0.63798363676E+02 -0.14241496629E+04  0.14256094748E+04  0.47000000000E+01 0. -1.
         -5    1    1    2    0  502 -0.35536689684E+02 -0.11860208178E+03 -0.85762178141E+02  0.15068693147E+03  0.47000000000E+01 0.  1.
        -11    1    1    2    0    0  0.15979719589E+02 -0.22328981541E+02 -0.99952556640E+01  0.29220540560E+02  0.00000000000E+00 0.  1.
         11    1    1    2    0    0  0.27790506560E+02  0.77132699647E+02 -0.10761852114E+03  0.13529047158E+03  0.00000000000E+00 0. -1.
<mgrwt>
<rscale>  0 0.32137211E+03</rscale>
<asrwt>0</asrwt>
<pdfrwt beam="2">  1        2 0.25910249E+00 0.45263296E+03</pdfrwt>
<pdfrwt beam="1">  1       -2 0.87139865E-02 0.45263296E+03</pdfrwt>
<totfact> 0.88719486E+02</totfact>
</mgrwt>
</event>
<event>
 7    1  0.5928109E-006  0.2058601E+03  0.7546771E-02  0.1148870E+00
         -1   -1    0    0    0  501 -0.00000000000E+00  0.00000000000E+00  0.45487027872E+02  0.45487027872E+02  0.00000000000E+00 0.  1.
          1   -1    0    0  501    0  0.00000000000E+00 -0.00000000000E+00 -0.85049048152E+03  0.85049048152E+03  0.00000000000E+00 0. -1.
         23    2    1    2    0    0  0.11229668015E+03  0.11891402567E+03 -0.40427495354E+03  0.45367014795E+03  0.12500910052E+03 0.  0.
          5    1    3    3  502    0 -0.22899936295E+02  0.24418610702E+02 -0.12303147373E+03  0.12759117979E+03  0.47000000000E+01 0.  1.
         -5    1    3    3    0  502  0.13519661645E+03  0.94495414964E+02 -0.28124347981E+03  0.32607896817E+03  0.47000000000E+01 0.  1.
        -11    1    1    2    0    0 -0.98434906494E+02 -0.13288904310E+03 -0.33342147631E+03  0.37218115140E+03  0.00000000000E+00 0.  1.
         11    1    1    2    0    0 -0.13861773658E+02  0.13975017437E+02 -0.67307023794E+02  0.70126210031E+02  0.00000000000E+00 0. -1.
<mgrwt>
<rscale>  0 0.20103372E+03</rscale>
<asrwt>0</asrwt>
<pdfrwt beam="2">  1        1 0.13084467E+00 0.20586006E+03</pdfrwt>
<pdfrwt beam="1">  1       -1 0.69980051E-02 0.20586006E+03</pdfrwt>
<totfact> 0.22015931E+03</totfact>
</mgrwt>
</event>
<event>
 7    1  0.5928109E-006  0.1319071E+03  0.7546771E-02  0.1237522E+00
          1   -1    0    0  501    0  0.00000000000E+00  0.00000000000E+00  0.97996203868E+02  0.97996203868E+02  0.00000000000E+00 0. -1.
         -1   -1    0    0    0  501 -0.00000000000E+00 -0.00000000000E+00 -0.14712599002E+03  0.14712599002E+03  0.00000000000E+00 0.  1.
         23    2    1    2    0    0 -0.23981641596E+02  0.34602751426E+02  0.16554060263E+01  0.13191751334E+03  0.12500808141E+03 0.  0.
          5    1    3    3  502    0 -0.44583950824E+02  0.70968017909E+02 -0.17426722415E+02  0.85731959566E+02  0.47000000000E+01 0. -1.
         -5    1    3    3    0  502  0.20602309228E+02 -0.36365266483E+02  0.19082128442E+02  0.46185553778E+02  0.47000000000E+01 0. -1.
        -11    1    1    2    0    0  0.16191579166E+02 -0.56446643650E+02 -0.15073528509E+01  0.58742343567E+02  0.00000000000E+00 0. -1.
         11    1    1    2    0    0  0.77900624307E+01  0.21843892224E+02 -0.49277839324E+02  0.54462336973E+02  0.00000000000E+00 0.  1.
<mgrwt>
<rscale>  0 0.12344353E+03</rscale>
<asrwt>0</asrwt>
<pdfrwt beam="1">  1        1 0.15076339E-01 0.13190713E+03</pdfrwt>
<pdfrwt beam="2">  1       -1 0.22634768E-01 0.13190713E+03</pdfrwt>
<totfact> 0.57761654E+03</totfact>
</mgrwt>
</event>
<event>
 7    1  0.5928109E-006  0.1347799E+03  0.7546771E-02  0.1233957E+00
          2   -1    0    0  501    0  0.00000000000E+00  0.00000000000E+00  0.51749855541E+03  0.51749855541E+03  0.00000000000E+00 0. -1.
         -2   -1    0    0    0  501 -0.00000000000E+00 -0.00000000000E+00 -0.27752764594E+02  0.27752764594E+02  0.00000000000E+00 0.  1.
         23    2    1    2    0    0  0.41286597275E+01 -0.50205118799E+02  0.23615068711E+03  0.27190582723E+03  0.12501212771E+03 0.  0.
          5    1    3    3  502    0  0.85405716115E+01  0.38514967691E+02  0.39268818893E+02  0.55861205115E+02  0.47000000000E+01 0.  1.
         -5    1    3    3    0  502 -0.44119118840E+01 -0.88720086490E+02  0.19688186821E+03  0.21604462212E+03  0.47000000000E+01 0.  1.
        -11    1    1    2    0    0  0.38950585089E+02  0.32668666225E+02  0.91096941576E+02  0.10432182224E+03  0.00000000000E+00 0.  1.
         11    1    1    2    0    0 -0.43079244817E+02  0.17536452574E+02  0.16249816213E+03  0.16902367053E+03  0.00000000000E+00 0. -1.
<mgrwt>
<rscale>  0 0.12571471E+03</rscale>
<asrwt>0</asrwt>
<pdfrwt beam="1">  1        2 0.79615156E-01 0.13477994E+03</pdfrwt>
<pdfrwt beam="2">  1       -2 0.42696565E-02 0.13477994E+03</pdfrwt>
<totfact> 0.14109027E+04</totfact>
</mgrwt>
</event>
<event>
 7    1  0.5928109E-006  0.1421981E+03  0.7546771E-02  0.1221895E+00
         -3   -1    0    0    0  501 -0.00000000000E+00  0.00000000000E+00  0.29478283385E+02  0.29478283385E+02  0.00000000000E+00 0.  1.
          3   -1    0    0  501    0  0.00000000000E+00 -0.00000000000E+00 -0.55768578922E+03  0.55768578922E+03  0.00000000000E+00 0. -1.
         23    2    1    2    0    0 -0.66505919656E+02 -0.13136549919E+02 -0.33756580328E+03  0.36629354900E+03  0.12499874480E+03 0.  0.
          5    1    3    3  502    0 -0.67839695085E+02  0.31186936765E+02 -0.10171964837E+03  0.12626886441E+03  0.47000000000E+01 0.  1.
         -5    1    3    3    0  502  0.13337754289E+01 -0.44323486684E+02 -0.23584615491E+03  0.24002468460E+03  0.47000000000E+01 0.  1.
        -11    1    1    2    0    0  0.11719685949E+02 -0.18908786623E+02 -0.25897676736E+01  0.22396431566E+02  0.00000000000E+00 0.  1.
         11    1    1    2    0    0  0.54786233707E+02  0.32045336542E+02 -0.18805193487E+03  0.19847409203E+03  0.00000000000E+00 0. -1.
<mgrwt>
<rscale>  0 0.13381992E+03</rscale>
<asrwt>0</asrwt>
<pdfrwt beam="2">  1        3 0.85797804E-01 0.14219807E+03</pdfrwt>
<pdfrwt beam="1">  1       -3 0.45351210E-02 0.14219807E+03</pdfrwt>
<totfact> 0.79332639E+02</totfact>
</mgrwt>
</event>
<event>
 7    1  0.5928109E-006  0.1550602E+03  0.7546771E-02  0.1202475E+00
          2   -1    0    0  501    0  0.00000000000E+00  0.00000000000E+00  0.47232914216E+03  0.47232914216E+03  0.00000000000E+00 0. -1.
         -2   -1    0    0    0  501 -0.00000000000E+00 -0.00000000000E+00 -0.43838647165E+02  0.43838647165E+02  0.00000000000E+00 0.  1.
         23    2    1    2    0    0 -0.76977672318E+02  0.49928228171E+02  0.26788965338E+03  0.30952954154E+03  0.12500112276E+03 0.  0.
          5    1    3    3  502    0 -0.46023418634E+02  0.88780355965E+02  0.21297918676E+03  0.23533450801E+03  0.47000000000E+01 0. -1.
         -5    1    3    3    0  502 -0.30954253684E+02 -0.38852127794E+02  0.54910466629E+02  0.74195033531E+02  0.47000000000E+01 0. -1.
        -11    1    1    2    0    0  0.97761053830E+02 -0.34356850055E+02  0.12133230130E+03  0.15955921825E+03  0.00000000000E+00 0.  1.
         11    1    1    2    0    0 -0.20783381512E+02 -0.15571378116E+02  0.39268540316E+02  0.47079029536E+02  0.00000000000E+00 0. -1.
<mgrwt>
<rscale>  0 0.14838253E+03</rscale>
<asrwt>0</asrwt>
<pdfrwt beam="1">  1        2 0.72666018E-01 0.15506022E+03</pdfrwt>
<pdfrwt beam="2">  1       -2 0.67444076E-02 0.15506022E+03</pdfrwt>
<totfact> 0.78972361E+03</totfact>
</mgrwt>
</event>
<event>
 7    1  0.5928109E-006  0.1288443E+03  0.7546771E-02  0.1242070E+00
         -2   -1    0    0    0  501 -0.00000000000E+00  0.00000000000E+00  0.14047588432E+02  0.14047588432E+02  0.00000000000E+00 0. -1.
          2   -1    0    0  501    0  0.00000000000E+00 -0.00000000000E+00 -0.92471377240E+03  0.92471377240E+03  0.00000000000E+00 0.  1.
         23    2    1    2    0    0 -0.29995405078E+02 -0.87920646760E+01 -0.53017129893E+03  0.54560283517E+03  0.12499529116E+03 0.  0.
          5    1    3    3  502    0 -0.45816891413E+01 -0.15092058063E+01 -0.51443726639E+03  0.51448135110E+03  0.47000000000E+01 0.  1.
         -5    1    3    3    0  502 -0.25413715937E+02 -0.72828588698E+01 -0.15734032541E+02  0.31121484075E+02  0.47000000000E+01 0.  1.
        -11    1    1    2    0    0  0.19971823878E+02  0.51414441622E+02 -0.21756303985E+03  0.22444597315E+03  0.00000000000E+00 0.  1.
         11    1    1    2    0    0  0.10023581201E+02 -0.42622376946E+02 -0.16293184519E+03  0.16871255251E+03  0.00000000000E+00 0. -1.
<mgrwt>
<rscale>  0 0.12062490E+03</rscale>
<asrwt>0</asrwt>
<pdfrwt beam="2">  1        2 0.14226370E+00 0.12884428E+03</pdfrwt>
<pdfrwt beam="1">  1       -2 0.21611668E-02 0.12884428E+03</pdfrwt>
<totfact> 0.19155636E+04</totfact>
</mgrwt>
</event>
<event>
 7    1  0.5928109E-006  0.1504205E+03  0.7546771E-02  0.1221539E+00
          1   -1    0    0  501    0  0.00000000000E+00  0.00000000000E+00  0.17752174969E+03  0.17752174969E+03  0.00000000000E+00 0. -1.
         -1   -1    0    0    0  501 -0.00000000000E+00 -0.00000000000E+00 -0.14278062232E+03  0.14278062232E+03  0.00000000000E+00 0.  1.
         23    2    1    2    0    0  0.59732166602E+02  0.58595948274E+02  0.12021972311E+03  0.19255939826E+03  0.12499969262E+03 0.  0.
          5    1    3    3  502    0  0.17654631523E+02  0.93673176315E+02  0.76065024940E+02  0.12204232051E+03  0.47000000000E+01 0. -1.
         -5    1    3    3    0  502  0.42077535079E+02 -0.35077228041E+02  0.44154698169E+02  0.70517077760E+02  0.47000000000E+01 0. -1.
        -11    1    1    2    0    0 -0.63996333719E+02 -0.41823277721E+02 -0.61209175382E+02  0.97935082783E+02  0.00000000000E+00 0.  1.
         11    1    1    2    0    0  0.42641671167E+01 -0.16772670553E+02 -0.24269420367E+02  0.29807890962E+02  0.00000000000E+00 0. -1.
<mgrwt>
<rscale>  0 0.13406983E+03</rscale>
<asrwt>0</asrwt>
<pdfrwt beam="1">  1        1 0.27311038E-01 0.15042054E+03</pdfrwt>
<pdfrwt beam="2">  1       -1 0.21966250E-01 0.15042054E+03</pdfrwt>
<totfact> 0.28690138E+03</totfact>
</mgrwt>
</event>
<event>
 7    1  0.5928109E-006  0.1271926E+03  0.7546771E-02  0.1245742E+00
         -3   -1    0    0    0  501 -0.00000000000E+00  0.00000000000E+00  0.15533851431E+03  0.15533851431E+03  0.00000000000E+00 0.  1.
          3   -1    0    0  501    0  0.00000000000E+00 -0.00000000000E+00 -0.81638409549E+02  0.81638409549E+02  0.00000000000E+00 0. -1.
         23    2    1    2    0    0 -0.23065303175E+02  0.35098671074E+01  0.24564627873E+02  0.12954300556E+03  0.12503456310E+03 0.  0.
          5    1    3    3  502    0 -0.56241811151E+02  0.44710383851E+02  0.25626817229E+02  0.76426327316E+02  0.47000000000E+01 0.  1.
         -5    1    3    3    0  502  0.33176507976E+02 -0.41200516743E+02 -0.10621893568E+01  0.53116678244E+02  0.47000000000E+01 0.  1.
        -11    1    1    2    0    0  0.59786186678E+01  0.15274416454E+02  0.71646051172E+02  0.73499716514E+02  0.00000000000E+00 0.  1.
         11    1    1    2    0    0  0.17086684508E+02 -0.18784283561E+02 -0.22510574282E+02  0.33934201786E+02  0.00000000000E+00 0. -1.
<mgrwt>
<rscale>  0 0.11841098E+03</rscale>
<asrwt>0</asrwt>
<pdfrwt beam="2">  1        3 0.12559755E-01 0.12719265E+03</pdfrwt>
<pdfrwt beam="1">  1       -3 0.23898233E-01 0.12719265E+03</pdfrwt>
<totfact> 0.18597357E+03</totfact>
</mgrwt>
</event>
<event>
 7    1  0.5928109E-006  0.2142339E+03  0.7546771E-02  0.1142313E+00
          1   -1    0    0  501    0  0.00000000000E+00  0.00000000000E+00  0.19531729132E+04  0.19531729132E+04  0.00000000000E+00 0. -1.
         -1   -1    0    0    0  501 -0.00000000000E+00 -0.00000000000E+00 -0.22985318517E+02  0.22985318517E+02  0.00000000000E+00 0.  1.
         23    2    1    2    0    0  0.11952339912E+03  0.12642315375E+03  0.12713631666E+04  0.12892868089E+04  0.12501006941E+03 0.  0.
          5    1    3    3  502    0  0.11773821348E+01  0.24166174327E+02  0.33591050696E+02  0.41663399971E+02  0.47000000000E+01 0.  1.
         -5    1    3    3    0  502  0.11834601698E+03  0.10225697942E+03  0.12377721159E+04  0.12476234090E+04  0.47000000000E+01 0.  1.
        -11    1    1    2    0    0 -0.91257180852E+02 -0.59627147299E+02  0.26709671864E+03  0.28848557478E+03  0.00000000000E+00 0.  1.
         11    1    1    2    0    0 -0.28266218266E+02 -0.66796006449E+02  0.39172770944E+03  0.39838584804E+03  0.00000000000E+00 0. -1.
<mgrwt>
<rscale>  0 0.20905971E+03</rscale>
<asrwt>0</asrwt>
<pdfrwt beam="1">  1        1 0.30048801E+00 0.21423392E+03</pdfrwt>
<pdfrwt beam="2">  1       -1 0.35362044E-02 0.21423392E+03</pdfrwt>
<totfact> 0.10743543E+03</totfact>
</mgrwt>
</event>
<event>
 7    1  0.5928109E-006  0.1267370E+03  0.7546771E-02  0.1247328E+00
         -1   -1    0    0    0  501 -0.00000000000E+00  0.00000000000E+00  0.37787735117E+02  0.37787735117E+02  0.00000000000E+00 0.  1.
          1   -1    0    0  501    0  0.00000000000E+00 -0.00000000000E+00 -0.33101727955E+03  0.33101727955E+03  0.00000000000E+00 0. -1.
         23    2    1    2    0    0  0.85692701610E+00 -0.20901396169E+02 -0.19971715217E+03  0.23653587613E+03  0.12499870855E+03 0.  0.
          5    1    3    3  502    0  0.24464416929E+02 -0.68549484615E+02 -0.12469941320E+03  0.14446305129E+03  0.47000000000E+01 0.  1.
         -5    1    3    3    0  502 -0.23607489913E+02  0.47648088446E+02 -0.75017738973E+02  0.92072824836E+02  0.47000000000E+01 0.  1.
        -11    1    1    2    0    0  0.70366582308E+00 -0.18614020300E+02  0.10225259998E+02  0.21249302091E+02  0.00000000000E+00 0.  1.
         11    1    1    2    0    0 -0.15605928392E+01  0.39515416469E+02 -0.10373765226E+03  0.11101983645E+03  0.00000000000E+00 0. -1.
<mgrwt>
<rscale>  0 0.11747140E+03</rscale>
<asrwt>0</asrwt>
<pdfrwt beam="2">  1        1 0.50925736E-01 0.12673705E+03</pdfrwt>
<pdfrwt beam="1">  1       -1 0.58134976E-02 0.12673705E+03</pdfrwt>
<totfact> 0.10200176E+04</totfact>
</mgrwt>
</event>
<event>
 7    1  0.5928109E-006  0.1309577E+03  0.7546771E-02  0.1237878E+00
          2   -1    0    0  501    0  0.00000000000E+00  0.00000000000E+00  0.45700124048E+02  0.45700124048E+02  0.00000000000E+00 0. -1.
         -2   -1    0    0    0  501 -0.00000000000E+00 -0.00000000000E+00 -0.30428935754E+03  0.30428935754E+03  0.00000000000E+00 0.  1.
         23    2    1    2    0    0  0.16779056552E+02 -0.35293626563E+02 -0.12074408652E+03  0.17812649275E+03  0.12499094437E+03 0.  0.
          5    1    3    3  502    0 -0.25552254179E+02 -0.64332128157E+02 -0.34099774037E+02  0.77307341153E+02  0.47000000000E+01 0.  1.
         -5    1    3    3    0  502  0.42331310731E+02  0.29038501594E+02 -0.86644312480E+02  0.10081915159E+03  0.47000000000E+01 0.  1.
        -11    1    1    2    0    0 -0.95077824431E+01 -0.32433799846E+02 -0.36415139069E+02  0.49683112351E+02  0.00000000000E+00 0. -1.
         11    1    1    2    0    0 -0.72712741088E+01  0.67727426409E+02 -0.10143000791E+03  0.12217987649E+03  0.00000000000E+00 0.  1.
<mgrwt>
<rscale>  0 0.12321984E+03</rscale>
<asrwt>0</asrwt>
<pdfrwt beam="1">  1        2 0.70307881E-02 0.13095768E+03</pdfrwt>
<pdfrwt beam="2">  1       -2 0.46813749E-01 0.13095768E+03</pdfrwt>
<totfact> 0.41805395E+03</totfact>
</mgrwt>
</event>
<event>
 7    1  0.5928109E-006  0.2408829E+03  0.7546771E-02  0.1121854E+00
          2   -1    0    0  501    0  0.00000000000E+00  0.00000000000E+00  0.61541927313E+03  0.61541927313E+03  0.00000000000E+00 0. -1.
         -2   -1    0    0    0  501 -0.00000000000E+00 -0.00000000000E+00 -0.88770499385E+02  0.88770499385E+02  0.00000000000E+00 0.  1.
         23    2    1    2    0    0 -0.20500426348E+03  0.19314313529E+02  0.29636053436E+03  0.38190855569E+03  0.12499915131E+03 0.  0.
          5    1    3    3  502    0 -0.77039046440E+02  0.53356881390E+02  0.61309531273E+02  0.11208443288E+03  0.47000000000E+01 0.  1.
         -5    1    3    3    0  502 -0.12796521704E+03 -0.34042567861E+02  0.23505100309E+03  0.26982412281E+03  0.47000000000E+01 0.  1.
        -11    1    1    2    0    0  0.12202490411E+03 -0.32426638328E+02  0.78148520440E+02  0.14848823302E+03  0.00000000000E+00 0.  1.
         11    1    1    2    0    0  0.82979359363E+02  0.13112324799E+02  0.15213971894E+03  0.17379298381E+03  0.00000000000E+00 0. -1.
<mgrwt>
<rscale>  0 0.23693117E+03</rscale>
<asrwt>0</asrwt>
<pdfrwt beam="1">  1        2 0.94679885E-01 0.24088291E+03</pdfrwt>
<pdfrwt beam="2">  1       -2 0.13657000E-01 0.24088291E+03</pdfrwt>
<totfact> 0.19523595E+03</totfact>
</mgrwt>
</event>
<event>
 7    1  0.5928109E-006  0.1361576E+03  0.7546771E-02  0.1230599E+00
          4   -1    0    0  501    0  0.00000000000E+00  0.00000000000E+00  0.88865577149E+02  0.88865577149E+02  0.00000000000E+00 0. -1.
         -4   -1    0    0    0  501 -0.00000000000E+00 -0.00000000000E+00 -0.18625387410E+03  0.18625387410E+03  0.00000000000E+00 0.  1.
         23    2    1    2    0    0 -0.46171257359E+02 -0.27843522289E+02 -0.79194265465E+01  0.13638766944E+03  0.12502732629E+03 0.  0.
          5    1    3    3  502    0 -0.16050672257E+02 -0.70237305131E+02  0.22910631253E+02  0.75748862278E+02  0.47000000000E+01 0. -1.
         -5    1    3    3    0  502 -0.30120585102E+02  0.42393782842E+02 -0.30830057799E+02  0.60638807165E+02  0.47000000000E+01 0. -1.
        -11    1    1    2    0    0 -0.13450979514E+02  0.19054616790E+02  0.75524269356E+01  0.24516248154E+02  0.00000000000E+00 0. -1.
         11    1    1    2    0    0  0.59622236873E+02  0.87889054985E+01 -0.97021297336E+02  0.11421553365E+03  0.00000000000E+00 0.  1.
<mgrwt>
<rscale>  0 0.12790453E+03</rscale>
<asrwt>0</asrwt>
<pdfrwt beam="1">  1        4 0.13671627E-01 0.13615755E+03</pdfrwt>
<pdfrwt beam="2">  1       -4 0.28654442E-01 0.13615755E+03</pdfrwt>
<totfact> 0.85051510E+02</totfact>
</mgrwt>
</event>
<event>
 6    1  0.5928109E-006  0.1594740E+03  0.7546771E-02  0.1209265E+00
          2   -1    0    0  501    0  0.00000000000E+00  0.00000000000E+00  0.91394930941E+02  0.91394930941E+02  0.00000000000E+00 0. -1.
         -2   -1    0    0    0  501 -0.00000000000E+00 -0.00000000000E+00 -0.26673526986E+03  0.26673526986E+03  0.00000000000E+00 0.  1.
          5    1    1    2  502    0 -0.79454309214E+01  0.32987237569E+02  0.57528414000E+02  0.66954433254E+02  0.47000000000E+01 0. -1.
         -5    1    1    2    0  502 -0.16659801284E+02 -0.65368614934E+02 -0.63296731580E+02  0.92623814572E+02  0.47000000000E+01 0.  1.
        -11    1    1    2    0    0  0.27504361092E+02 -0.24692695330E+02 -0.29568456786E+02  0.47334054532E+02  0.00000000000E+00 0.  1.
         11    1    1    2    0    0 -0.28991288867E+01  0.57074072694E+02 -0.14000356456E+03  0.15121789845E+03  0.00000000000E+00 0. -1.
<mgrwt>
<rscale>  0 0.14306347E+03</rscale>
<asrwt>0</asrwt>
<pdfrwt beam="1">  1        2 0.14060759E-01 0.15947396E+03</pdfrwt>
<pdfrwt beam="2">  1       -2 0.41036194E-01 0.15947396E+03</pdfrwt>
<totfact> 0.23266169E+03</totfact>
</mgrwt>
</event>
<event>
 7    1  0.5928109E-006  0.1343122E+03  0.7546771E-02  0.1233659E+00
          1   -1    0    0  501    0  0.00000000000E+00  0.00000000000E+00  0.13997887781E+03  0.13997887781E+03  0.00000000000E+00 0. -1.
         -1   -1    0    0    0  501 -0.00000000000E+00 -0.00000000000E+00 -0.14771324320E+03  0.14771324320E+03  0.00000000000E+00 0.  1.
         23    2    1    2    0    0 -0.26945015995E+02  0.41073066044E+02  0.76061856168E+02  0.15435406394E+03  0.12500696160E+03 0.  0.
          5    1    3    3  502    0 -0.65892116290E+02  0.60124044319E+02  0.40475467068E+02  0.98066432223E+02  0.47000000000E+01 0. -1.
         -5    1    3    3    0  502  0.38947100295E+02 -0.19050978276E+02  0.35586389100E+02  0.56287631713E+02  0.47000000000E+01 0. -1.
        -11    1    1    2    0    0 -0.13478001913E+02  0.15679910418E+02 -0.53505149002E+02  0.57361285690E+02  0.00000000000E+00 0.  1.
         11    1    1    2    0    0  0.40423017908E+02 -0.56752976462E+02 -0.30291072549E+02  0.75976771386E+02  0.00000000000E+00 0. -1.
<mgrwt>
<rscale>  0 0.12590680E+03</rscale>
<asrwt>0</asrwt>
<pdfrwt beam="1">  1        1 0.21535212E-01 0.13431221E+03</pdfrwt>
<pdfrwt beam="2">  1       -1 0.22725114E-01 0.13431221E+03</pdfrwt>
<totfact> 0.36414226E+03</totfact>
</mgrwt>
</event>
<event>
 6    1  0.5928109E-006  0.5697453E+03  0.7546771E-02  0.9970242E-01
         -1   -1    0    0    0  501 -0.00000000000E+00  0.00000000000E+00  0.22655452703E+03  0.22655452703E+03  0.00000000000E+00 0.  1.
          1   -1    0    0  501    0  0.00000000000E+00 -0.00000000000E+00 -0.35820256926E+03  0.35820256926E+03  0.00000000000E+00 0. -1.
          5    1    1    2  502    0 -0.71352570982E+02  0.10525272289E+03 -0.18042945927E+03  0.22078542713E+03  0.47000000000E+01 0. -1.
         -5    1    1    2    0  502  0.15592946856E+02 -0.33239555667E+02 -0.13505453742E+03  0.14003508893E+03  0.47000000000E+01 0.  1.
        -11    1    1    2    0    0  0.60575171934E+02 -0.16462941170E+02  0.54640442077E+02  0.83222339532E+02  0.00000000000E+00 0. -1.
         11    1    1    2    0    0 -0.48155478074E+01 -0.55550226053E+02  0.12919551239E+03  0.14071424070E+03  0.00000000000E+00 0.  1.
<mgrwt>
<rscale>  0 0.56974525E+03</rscale>
<asrwt>0</asrwt>
<pdfrwt beam="2">  1        1 0.55108087E-01 0.56974525E+03</pdfrwt>
<pdfrwt beam="1">  1       -1 0.34854543E-01 0.56974525E+03</pdfrwt>
<totfact> 0.54856879E+02</totfact>
</mgrwt>
</event>
<event>
 7    1  0.5928109E-006  0.1735548E+03  0.7546771E-02  0.1179941E+00
         -1   -1    0    0    0  501 -0.00000000000E+00  0.00000000000E+00  0.58557245096E+02  0.58557245096E+02  0.00000000000E+00 0.  1.
          1   -1    0    0  501    0  0.00000000000E+00 -0.00000000000E+00 -0.46389636026E+03  0.46389636026E+03  0.00000000000E+00 0. -1.
         23    2    1    2    0    0  0.10856845420E+03 -0.52043142201E+02 -0.25430563531E+03  0.30788408881E+03  0.12500263235E+03 0.  0.
          5    1    3    3  502    0  0.10898767470E+03 -0.85802794210E+02 -0.19272465980E+03  0.23749803626E+03  0.47000000000E+01 0.  1.
         -5    1    3    3    0  502 -0.41922050025E+00  0.33759652009E+02 -0.61580975508E+02  0.70386052554E+02  0.47000000000E+01 0.  1.
        -11    1    1    2    0    0 -0.49271245171E+02  0.67167532948E+02 -0.52141355386E+02  0.98274381323E+02  0.00000000000E+00 0.  1.
         11    1    1    2    0    0 -0.59297209029E+02 -0.15124390747E+02 -0.98892124474E+02  0.11629513523E+03  0.00000000000E+00 0. -1.
<mgrwt>
<rscale>  0 0.16800845E+03</rscale>
<asrwt>0</asrwt>
<pdfrwt beam="2">  1        1 0.71368671E-01 0.17355476E+03</pdfrwt>
<pdfrwt beam="1">  1       -1 0.90088069E-02 0.17355476E+03</pdfrwt>
<totfact> 0.35060198E+03</totfact>
</mgrwt>
</event>
<event>
 7    1  0.5928109E-006  0.1368043E+03  0.7546771E-02  0.1229488E+00
         -1   -1    0    0    0  501 -0.00000000000E+00  0.00000000000E+00  0.36774332008E+02  0.36774332008E+02  0.00000000000E+00 0.  1.
          1   -1    0    0  501    0  0.00000000000E+00 -0.00000000000E+00 -0.44469248528E+03  0.44469248528E+03  0.00000000000E+00 0. -1.
         23    2    1    2    0    0 -0.30492922644E+02  0.46508464261E+02 -0.29902290252E+03  0.32883145467E+03  0.12499029471E+03 0.  0.
          5    1    3    3  502    0 -0.27754653418E+02  0.74538802233E+02 -0.28699211603E+03  0.29784713947E+03  0.47000000000E+01 0. -1.
         -5    1    3    3    0  502 -0.27382692261E+01 -0.28030337972E+02 -0.12030786488E+02  0.30984315205E+02  0.47000000000E+01 0. -1.
        -11    1    1    2    0    0  0.31086746813E+02 -0.61150500835E+02 -0.34452915901E+02  0.76764399261E+02  0.00000000000E+00 0.  1.
         11    1    1    2    0    0 -0.59382416935E+00  0.14642036575E+02 -0.74442334854E+02  0.75870963357E+02  0.00000000000E+00 0. -1.
<mgrwt>
<rscale>  0 0.12863976E+03</rscale>
<asrwt>0</asrwt>
<pdfrwt beam="2">  1        1 0.68414228E-01 0.13680435E+03</pdfrwt>
<pdfrwt beam="1">  1       -1 0.56575896E-02 0.13680435E+03</pdfrwt>
<totfact> 0.73694425E+03</totfact>
</mgrwt>
</event>
<event>
 7    1  0.5928109E-006  0.1292437E+03  0.7546771E-02  0.1241526E+00
          1   -1    0    0  501    0  0.00000000000E+00  0.00000000000E+00  0.94871282525E+03  0.94871282525E+03  0.00000000000E+00 0. -1.
         -1   -1    0    0    0  501 -0.00000000000E+00 -0.00000000000E+00 -0.18146469936E+02  0.18146469936E+02  0.00000000000E+00 0.  1.
         23    2    1    2    0    0 -0.22724816260E+02 -0.23690566629E+02  0.74821090149E+03  0.75929144336E+03  0.12500513041E+03 0.  0.
          5    1    3    3  502    0 -0.18454158610E+02  0.48168471810E+02  0.21129476882E+03  0.21755074575E+03  0.47000000000E+01 0.  1.
         -5    1    3    3    0  502 -0.42706576495E+01 -0.71859038439E+02  0.53691613267E+03  0.54174069761E+03  0.47000000000E+01 0.  1.
        -11    1    1    2    0    0  0.48296388753E+02  0.18454737252E+02  0.17180193141E+03  0.17941299320E+03  0.00000000000E+00 0. -1.
         11    1    1    2    0    0 -0.25571572493E+02  0.52358293764E+01  0.10553522420E+02  0.28154858630E+02  0.00000000000E+00 0.  1.
<mgrwt>
<rscale>  0 0.12095708E+03</rscale>
<asrwt>0</asrwt>
<pdfrwt beam="1">  1        1 0.14595578E+00 0.12924373E+03</pdfrwt>
<pdfrwt beam="2">  1       -1 0.27917653E-02 0.12924373E+03</pdfrwt>
<totfact> 0.70974062E+03</totfact>
</mgrwt>
</event>
<event>
 7    1  0.5928109E-006  0.1305652E+03  0.7546771E-02  0.1244358E+00
         -1   -1    0    0    0  501 -0.00000000000E+00  0.00000000000E+00  0.51000888923E+02  0.51000888923E+02  0.00000000000E+00 0.  1.
          1   -1    0    0  501    0  0.00000000000E+00 -0.00000000000E+00 -0.31506688468E+03  0.31506688468E+03  0.00000000000E+00 0. -1.
         23    2    1    2    0    0  0.34283780002E+02  0.15711200114E+02 -0.23819682027E+03  0.27163392309E+03  0.12500017444E+03 0.  0.
          5    1    3    3  502    0  0.71053387199E+02 -0.25033094518E+02 -0.13717540015E+03  0.15657081484E+03  0.47000000000E+01 0.  1.
         -5    1    3    3    0  502 -0.36769607197E+02  0.40744294632E+02 -0.10102142011E+03  0.11506310825E+03  0.47000000000E+01 0.  1.
        -11    1    1    2    0    0  0.17030285324E+02 -0.23282600858E+02  0.10917956288E+02  0.30843344346E+02  0.00000000000E+00 0.  1.
         11    1    1    2    0    0 -0.51314065326E+02  0.75714007441E+01 -0.36787131775E+02  0.63590506160E+02  0.00000000000E+00 0. -1.
<mgrwt>
<rscale>  0 0.11923881E+03</rscale>
<asrwt>0</asrwt>
<pdfrwt beam="2">  1        1 0.48471828E-01 0.13056517E+03</pdfrwt>
<pdfrwt beam="1">  1       -1 0.78462906E-02 0.13056517E+03</pdfrwt>
<totfact> 0.69412608E+03</totfact>
</mgrwt>
</event>
<event>
 7    1  0.5928109E-006  0.1258434E+03  0.7546771E-02  0.1249268E+00
         -1   -1    0    0    0  501 -0.00000000000E+00  0.00000000000E+00  0.32340154097E+03  0.32340154097E+03  0.00000000000E+00 0.  1.
          1   -1    0    0  501    0  0.00000000000E+00 -0.00000000000E+00 -0.40266270781E+02  0.40266270781E+02  0.00000000000E+00 0. -1.
         23    2    1    2    0    0 -0.30139464564E+01 -0.14291434005E+02  0.10779461068E+03  0.16569922157E+03  0.12499289972E+03 0.  0.
          5    1    3    3  502    0  0.23780534724E+00 -0.37946491677E+02  0.12829976250E+03  0.13387647979E+03  0.47000000000E+01 0. -1.
         -5    1    3    3    0  502 -0.32517518036E+01  0.23655057672E+02 -0.20505151826E+02  0.31822741784E+02  0.47000000000E+01 0. -1.
        -11    1    1    2    0    0  0.28837683402E+02  0.59257526863E+00  0.16415424247E+03  0.16666906867E+03  0.00000000000E+00 0.  1.
         11    1    1    2    0    0 -0.25823736946E+02  0.13698858736E+02  0.11186417039E+02  0.31299521509E+02  0.00000000000E+00 0. -1.
<mgrwt>
<rscale>  0 0.11633542E+03</rscale>
<asrwt>0</asrwt>
<pdfrwt beam="2">  1        1 0.61948111E-02 0.12584337E+03</pdfrwt>
<pdfrwt beam="1">  1       -1 0.49754081E-01 0.12584337E+03</pdfrwt>
<totfact> 0.48671155E+03</totfact>
</mgrwt>
</event>
<event>
 6    1  0.5928109E-006  0.3983031E+03  0.7546771E-02  0.1099304E+00
         -2   -1    0    0    0  501 -0.00000000000E+00  0.00000000000E+00  0.15859177306E+03  0.15859177306E+03  0.00000000000E+00 0.  1.
          2   -1    0    0  501    0  0.00000000000E+00 -0.00000000000E+00 -0.37495516868E+03  0.37495516868E+03  0.00000000000E+00 0. -1.
          5    1    1    2  502    0  0.17587485609E+03  0.61958858841E+02 -0.15237584136E+03  0.24085545919E+03  0.47000000000E+01 0. -1.
         -5    1    1    2    0  502 -0.18061688848E+03 -0.57674108673E+02 -0.12019422213E+02  0.19004031079E+03  0.47000000000E+01 0.  1.
        -11    1    1    2    0    0 -0.19050409552E+02 -0.20750311793E+02 -0.65057331183E+02  0.70893934044E+02  0.00000000000E+00 0.  1.
         11    1    1    2    0    0  0.23792441941E+02  0.16465561625E+02  0.13089199129E+02  0.31757237710E+02  0.00000000000E+00 0. -1.
<mgrwt>
<rscale>  0 0.27348031E+03</rscale>
<asrwt>0</asrwt>
<pdfrwt beam="2">  1        2 0.57685409E-01 0.39830310E+03</pdfrwt>
<pdfrwt beam="1">  1       -2 0.24398735E-01 0.39830310E+03</pdfrwt>
<totfact> 0.12778361E+03</totfact>
</mgrwt>
</event>
<event>
 7    1  0.5928109E-006  0.1389905E+03  0.7546771E-02  0.1225261E+00
         -1   -1    0    0    0  501 -0.00000000000E+00  0.00000000000E+00  0.51920344183E+02  0.51920344183E+02  0.00000000000E+00 0.  1.
          1   -1    0    0  501    0  0.00000000000E+00 -0.00000000000E+00 -0.30174050141E+03  0.30174050141E+03  0.00000000000E+00 0. -1.
         23    2    1    2    0    0 -0.50386425640E+02 -0.34010411161E+02 -0.13719884232E+03  0.19529943136E+03  0.12499138210E+03 0.  0.
          5    1    3    3  502    0  0.30537139707E+02 -0.45166846716E+02 -0.73336864696E+02  0.91503806845E+02  0.47000000000E+01 0.  1.
         -5    1    3    3    0  502 -0.80923565347E+02  0.11156435555E+02 -0.63861977624E+02  0.10379562452E+03  0.47000000000E+01 0.  1.
        -11    1    1    2    0    0  0.49026455612E+02  0.79578819613E+01 -0.77195815375E+01  0.50264432497E+02  0.00000000000E+00 0.  1.
         11    1    1    2    0    0  0.13599700279E+01  0.26052529200E+02 -0.10490173337E+03  0.10809698173E+03  0.00000000000E+00 0. -1.
<mgrwt>
<rscale>  0 0.13149025E+03</rscale>
<asrwt>0</asrwt>
<pdfrwt beam="2">  1        1 0.46421616E-01 0.13899045E+03</pdfrwt>
<pdfrwt beam="1">  1       -1 0.79877452E-02 0.13899045E+03</pdfrwt>
<totfact> 0.71576916E+03</totfact>
</mgrwt>
</event>
<event>
 7    1  0.5928109E-006  0.1543980E+03  0.7546771E-02  0.1206639E+00
         -1   -1    0    0    0  501 -0.00000000000E+00  0.00000000000E+00  0.79748718425E+02  0.79748718425E+02  0.00000000000E+00 0.  1.
          1   -1    0    0  501    0  0.00000000000E+00 -0.00000000000E+00 -0.23701722662E+03  0.23701722662E+03  0.00000000000E+00 0. -1.
         23    2    1    2    0    0  0.58126288675E+02 -0.69538877942E+02 -0.93872287781E+02  0.18069517316E+03  0.12499767281E+03 0.  0.
          5    1    3    3  502    0  0.95678213241E+02 -0.64130552198E+02 -0.61828914999E+02  0.13081266355E+03  0.47000000000E+01 0.  1.
         -5    1    3    3    0  502 -0.37551924566E+02 -0.54083257438E+01 -0.32043372783E+02  0.49882509613E+02  0.47000000000E+01 0.  1.
        -11    1    1    2    0    0 -0.57808009326E+02  0.32507848197E+02 -0.72167652959E+02  0.98013755515E+02  0.00000000000E+00 0. -1.
         11    1    1    2    0    0 -0.31827934844E+00  0.37031029745E+02  0.87714325485E+01  0.38057016366E+02  0.00000000000E+00 0.  1.
<mgrwt>
<rscale>  0 0.14509014E+03</rscale>
<asrwt>0</asrwt>
<pdfrwt beam="2">  1        1 0.36464188E-01 0.15439799E+03</pdfrwt>
<pdfrwt beam="1">  1       -1 0.12269034E-01 0.15439799E+03</pdfrwt>
<totfact> 0.50417368E+03</totfact>
</mgrwt>
</event>
<event>
 7    1  0.5928109E-006  0.2431115E+03  0.7546771E-02  0.1120304E+00
          2   -1    0    0  501    0  0.00000000000E+00  0.00000000000E+00  0.12752120752E+04  0.12752120752E+04  0.00000000000E+00 0. -1.
         -2   -1    0    0    0  501 -0.00000000000E+00 -0.00000000000E+00 -0.43609905555E+02  0.43609905555E+02  0.00000000000E+00 0.  1.
         23    2    1    2    0    0 -0.20141001510E+03  0.54001482213E+02  0.60339386030E+03  0.65052852110E+03  0.12498420641E+03 0.  0.
          5    1    3    3  502    0 -0.57789602534E+02 -0.23281586067E+02  0.75528406586E+02  0.98021939443E+02  0.47000000000E+01 0.  1.
         -5    1    3    3    0  502 -0.14362041257E+03  0.77283068280E+02  0.52786545372E+03  0.55250658166E+03  0.47000000000E+01 0.  1.
        -11    1    1    2    0    0  0.80462213979E+02 -0.63610128460E+02  0.35138130902E+03  0.36604540791E+03  0.00000000000E+00 0. -1.
         11    1    1    2    0    0  0.12094780112E+03  0.96086462475E+01  0.27682700035E+03  0.30224805177E+03  0.00000000000E+00 0.  1.
<mgrwt>
<rscale>  0 0.23923445E+03</rscale>
<asrwt>0</asrwt>
<pdfrwt beam="1">  1        2 0.19618644E+00 0.24311151E+03</pdfrwt>
<pdfrwt beam="2">  1       -2 0.67092172E-02 0.24311151E+03</pdfrwt>
<totfact> 0.22541180E+03</totfact>
</mgrwt>
</event>
<event>
 7    1  0.5928109E-006  0.1581069E+03  0.7546771E-02  0.1199600E+00
          1   -1    0    0  501    0  0.00000000000E+00  0.00000000000E+00  0.15034724179E+04  0.15034724179E+04  0.00000000000E+00 0. -1.
         -1   -1    0    0    0  501 -0.00000000000E+00 -0.00000000000E+00 -0.14810445157E+02  0.14810445157E+02  0.00000000000E+00 0.  1.
         23    2    1    2    0    0  0.96798984175E+02 -0.16539425681E+01  0.10029112660E+04  0.10152974004E+04  0.12500009995E+03 0.  0.
          5    1    3    3  502    0  0.31737719991E+02 -0.54947091118E+02  0.26210226245E+03  0.26971494522E+03  0.47000000000E+01 0. -1.
         -5    1    3    3    0  502  0.65061264184E+02  0.53293148550E+02  0.74080900356E+03  0.74558245522E+03  0.47000000000E+01 0. -1.
        -11    1    1    2    0    0 -0.12423572869E+02 -0.35937846549E+02  0.13112268893E+03  0.13652484583E+03  0.00000000000E+00 0.  1.
         11    1    1    2    0    0 -0.84375411307E+02  0.37591789117E+02  0.35462801779E+03  0.36646061677E+03  0.00000000000E+00 0. -1.
<mgrwt>
<rscale>  0 0.15071237E+03</rscale>
<asrwt>0</asrwt>
<pdfrwt beam="1">  1        1 0.23130333E+00 0.15810694E+03</pdfrwt>
<pdfrwt beam="2">  1       -1 0.22785312E-02 0.15810694E+03</pdfrwt>
<totfact> 0.39921431E+03</totfact>
</mgrwt>
</event>
<event>
 6    1  0.5928109E-006  0.1507395E+03  0.7546771E-02  0.1214487E+00
         -2   -1    0    0    0  501 -0.00000000000E+00  0.00000000000E+00  0.11398579377E+03  0.11398579377E+03  0.00000000000E+00 0.  1.
          2   -1    0    0  501    0  0.00000000000E+00 -0.00000000000E+00 -0.11591499389E+04  0.11591499389E+04  0.00000000000E+00 0. -1.
          5    1    1    2  502    0  0.53976359305E+02  0.65989116680E+02 -0.60145446124E+03  0.60748462518E+03  0.47000000000E+01 0. -1.
         -5    1    1    2    0  502 -0.64543896345E+02 -0.62646523023E+01 -0.52519894997E+03  0.52920807578E+03  0.47000000000E+01 0.  1.
        -11    1    1    2    0    0  0.54048297007E+01  0.10984506194E+02 -0.13297821582E+02  0.18074944516E+02  0.00000000000E+00 0. -1.
         11    1    1    2    0    0  0.51627073391E+01 -0.70708970572E+02  0.94787087686E+02  0.11836808716E+03  0.00000000000E+00 0.  1.
<mgrwt>
<rscale>  0 0.13914260E+03</rscale>
<asrwt>0</asrwt>
<pdfrwt beam="2">  1        2 0.17833076E+00 0.15073947E+03</pdfrwt>
<pdfrwt beam="1">  1       -2 0.17536276E-01 0.15073947E+03</pdfrwt>
<totfact> 0.56553510E+02</totfact>
</mgrwt>
</event>
<event>
 7    1  0.5928109E-006  0.1309985E+03  0.7546771E-02  0.1239359E+00
          2   -1    0    0  501    0  0.00000000000E+00  0.00000000000E+00  0.11865915027E+04  0.11865915027E+04  0.00000000000E+00 0. -1.
         -2   -1    0    0    0  501 -0.00000000000E+00 -0.00000000000E+00 -0.11229982338E+02  0.11229982338E+02  0.00000000000E+00 0.  1.
         23    2    1    2    0    0 -0.39123142883E+02  0.17746250249E+00  0.70134979626E+03  0.71347890647E+03  0.12501984428E+03 0.  0.
          5    1    3    3  502    0 -0.22945815081E+02 -0.61886098417E+02  0.32391285728E+03  0.33060252377E+03  0.47000000000E+01 0.  1.
         -5    1    3    3    0  502 -0.16177327802E+02  0.62063560920E+02  0.37743693898E+03  0.38287638270E+03  0.47000000000E+01 0.  1.
        -11    1    1    2    0    0  0.68505178295E+02 -0.72891901530E+01  0.30927256976E+03  0.31685266947E+03  0.00000000000E+00 0.  1.
         11    1    1    2    0    0 -0.29382035412E+02  0.71117276506E+01  0.16473915437E+03  0.16748990912E+03  0.00000000000E+00 0. -1.
<mgrwt>
<rscale>  0 0.12229469E+03</rscale>
<asrwt>0</asrwt>
<pdfrwt beam="1">  1        2 0.18255244E+00 0.13099852E+03</pdfrwt>
<pdfrwt beam="2">  1       -2 0.17276905E-02 0.13099852E+03</pdfrwt>
<totfact> 0.18659670E+04</totfact>
</mgrwt>
</event>
<event>
 7    1  0.5928109E-006  0.1501688E+03  0.7546771E-02  0.1209753E+00
          1   -1    0    0  501    0  0.00000000000E+00  0.00000000000E+00  0.14818199770E+03  0.14818199770E+03  0.00000000000E+00 0. -1.
         -1   -1    0    0    0  501 -0.00000000000E+00 -0.00000000000E+00 -0.15771072633E+03  0.15771072633E+03  0.00000000000E+00 0.  1.
         23    2    1    2    0    0 -0.82017122263E+02  0.14140273599E+02  0.63835134157E+02  0.16317347959E+03  0.12499561756E+03 0.  0.
          5    1    3    3  502    0 -0.24849942373E+02  0.52553862862E+02 -0.13131696993E+02  0.59782602851E+02  0.47000000000E+01 0.  1.
         -5    1    3    3    0  502 -0.57167179889E+02 -0.38413589263E+02  0.76966831150E+02  0.10339087674E+03  0.47000000000E+01 0.  1.
        -11    1    1    2    0    0  0.39930519285E+02  0.23731922078E+02  0.42549320793E+01  0.46644988401E+02  0.00000000000E+00 0. -1.
         11    1    1    2    0    0  0.42086602977E+02 -0.37872195677E+02 -0.77618794869E+02  0.96074256034E+02  0.00000000000E+00 0.  1.
<mgrwt>
<rscale>  0 0.14269125E+03</rscale>
<asrwt>0</asrwt>
<pdfrwt beam="1">  1        1 0.22797230E-01 0.15016877E+03</pdfrwt>
<pdfrwt beam="2">  1       -1 0.24263189E-01 0.15016877E+03</pdfrwt>
<totfact> 0.30616724E+03</totfact>
</mgrwt>
</event>
<event>
 7    1  0.5928109E-006  0.1457415E+03  0.7546771E-02  0.1210751E+00
          3   -1    0    0  501    0  0.00000000000E+00  0.00000000000E+00  0.22628193415E+02  0.22628193415E+02  0.00000000000E+00 0. -1.
         -3   -1    0    0    0  501 -0.00000000000E+00 -0.00000000000E+00 -0.84766922327E+03  0.84766922327E+03  0.00000000000E+00 0.  1.
         23    2    1    2    0    0  0.78733853938E+02 -0.49513189158E+02 -0.41979345511E+03  0.44437273330E+03  0.11220519367E+03 0.  0.
          5    1    3    3  502    0  0.93276480225E+02 -0.52860821888E+00 -0.24480835863E+03  0.26201909023E+03  0.47000000000E+01 0. -1.
         -5    1    3    3    0  502 -0.14542626287E+02 -0.48984580939E+02 -0.17498509648E+03  0.18235364306E+03  0.47000000000E+01 0.  1.
        -11    1    1    2    0    0 -0.55618610141E+02  0.52268343144E+02 -0.39154016252E+03  0.39890990004E+03  0.00000000000E+00 0.  1.
         11    1    1    2    0    0 -0.23115243797E+02 -0.27551539860E+01 -0.13707412232E+02  0.27014783349E+02  0.00000000000E+00 0. -1.
<mgrwt>
<rscale>  0 0.14193353E+03</rscale>
<asrwt>0</asrwt>
<pdfrwt beam="1">  1        3 0.34812611E-02 0.14574149E+03</pdfrwt>
<pdfrwt beam="2">  1       -3 0.13041063E+00 0.14574149E+03</pdfrwt>
<totfact> 0.45897406E+02</totfact>
</mgrwt>
</event>
<event>
 7    1  0.5928109E-006  0.1449279E+03  0.7546771E-02  0.1217021E+00
         -2   -1    0    0    0  501 -0.00000000000E+00  0.00000000000E+00  0.53646198808E+03  0.53646198808E+03  0.00000000000E+00 0.  1.
          2   -1    0    0  501    0  0.00000000000E+00 -0.00000000000E+00 -0.34952265959E+02  0.34952265959E+02  0.00000000000E+00 0. -1.
         23    2    1    2    0    0  0.49637380179E+02  0.53997607026E+02  0.19147440112E+03  0.24013860242E+03  0.12499796404E+03 0.  0.
          5    1    3    3  502    0  0.26467542958E+02 -0.39048919490E+02  0.80299329517E+02  0.93249242702E+02  0.47000000000E+01 0. -1.
         -5    1    3    3    0  502  0.23169837221E+02  0.93046526516E+02  0.11117507160E+03  0.14688935972E+03  0.47000000000E+01 0. -1.
        -11    1    1    2    0    0 -0.17604931036E+01 -0.48044619503E+02  0.24836713710E+03  0.25297750807E+03  0.00000000000E+00 0.  1.
         11    1    1    2    0    0 -0.47876887076E+02 -0.59529875235E+01  0.61668183900E+02  0.78298143541E+02  0.00000000000E+00 0. -1.
<mgrwt>
<rscale>  0 0.13729123E+03</rscale>
<asrwt>0</asrwt>
<pdfrwt beam="2">  1        2 0.53772721E-02 0.14492792E+03</pdfrwt>
<pdfrwt beam="1">  1       -2 0.82532607E-01 0.14492792E+03</pdfrwt>
<totfact> 0.18334848E+03</totfact>
</mgrwt>
</event>
<event>
 7    1  0.5928109E-006  0.1937296E+03  0.7546771E-02  0.1158224E+00
         -2   -1    0    0    0  501 -0.00000000000E+00  0.00000000000E+00  0.21162529228E+02  0.21162529228E+02  0.00000000000E+00 0. -1.
          2   -1    0    0  501    0  0.00000000000E+00 -0.00000000000E+00 -0.16765652077E+04  0.16765652077E+04  0.00000000000E+00 0.  1.
         23    2    1    2    0    0 -0.57658811969E+02  0.13631639495E+03 -0.95972399757E+03  0.97908186767E+03  0.12499781584E+03 0.  0.
          5    1    3    3  502    0 -0.80719957724E+02  0.14088097613E+03 -0.90309992975E+03  0.91759181237E+03  0.47000000000E+01 0.  1.
         -5    1    3    3    0  502  0.23061145755E+02 -0.45645811823E+01 -0.56624067819E+02  0.61490055303E+02  0.47000000000E+01 0.  1.
        -11    1    1    2    0    0 -0.13902850465E+02 -0.82955663684E+02 -0.43636581503E+03  0.44439853275E+03  0.00000000000E+00 0.  1.
         11    1    1    2    0    0  0.71561662434E+02 -0.53360731266E+02 -0.25931286592E+03  0.27424733655E+03  0.00000000000E+00 0. -1.
<mgrwt>
<rscale>  0 0.19026288E+03</rscale>
<asrwt>0</asrwt>
<pdfrwt beam="2">  1        2 0.25793317E+00 0.19372958E+03</pdfrwt>
<pdfrwt beam="1">  1       -2 0.32557730E-02 0.19372958E+03</pdfrwt>
<totfact> 0.41054039E+03</totfact>
</mgrwt>
</event>
<event>
 6    1  0.5928109E-006  0.2008191E+03  0.7546771E-02  0.1173784E+00
         -1   -1    0    0    0  501 -0.00000000000E+00  0.00000000000E+00  0.43567781793E+02  0.43567781793E+02  0.00000000000E+00 0.  1.
          1   -1    0    0  501    0  0.00000000000E+00 -0.00000000000E+00 -0.65242045120E+03  0.65242045120E+03  0.00000000000E+00 0. -1.
          5    1    1    2  502    0 -0.83385221323E+02 -0.43425105474E+02 -0.14556420940E+03  0.17334896590E+03  0.47000000000E+01 0. -1.
         -5    1    1    2    0  502  0.85879436159E+02 -0.22797114764E+02 -0.35535522375E+03  0.36632555336E+03  0.47000000000E+01 0.  1.
        -11    1    1    2    0    0  0.19595183674E+02  0.82942691484E+02 -0.78063554455E+02  0.11557413131E+03  0.00000000000E+00 0.  1.
         11    1    1    2    0    0 -0.22089398509E+02 -0.16720471246E+02 -0.29869681795E+02  0.40739582419E+02  0.00000000000E+00 0. -1.
<mgrwt>
<rscale>  0 0.17395574E+03</rscale>
<asrwt>0</asrwt>
<pdfrwt beam="2">  1        1 0.10037237E+00 0.20081909E+03</pdfrwt>
<pdfrwt beam="1">  1       -1 0.67027358E-02 0.20081909E+03</pdfrwt>
<totfact> 0.34846911E+03</totfact>
</mgrwt>
</event>
<event>
 7    1  0.5928109E-006  0.1497287E+03  0.7546771E-02  0.1210161E+00
         -3   -1    0    0    0  501 -0.00000000000E+00  0.00000000000E+00  0.43918701215E+03  0.43918701215E+03  0.00000000000E+00 0.  1.
          3   -1    0    0  501    0  0.00000000000E+00 -0.00000000000E+00 -0.54545056695E+02  0.54545056695E+02  0.00000000000E+00 0. -1.
         23    2    1    2    0    0 -0.56749842578E+02 -0.60075914729E+02  0.90072908937E+02  0.17473357379E+03  0.12485604800E+03 0.  0.
          5    1    3    3  502    0  0.96712529856E+01  0.28782415109E+02 -0.15635906120E+01  0.30765164869E+02  0.47000000000E+01 0. -1.
         -5    1    3    3    0  502 -0.66421095564E+02 -0.88858329839E+02  0.91636499549E+02  0.14396840892E+03  0.47000000000E+01 0. -1.
        -11    1    1    2    0    0  0.41463107898E+02 -0.17656776332E+01  0.44105313072E+02  0.60560594244E+02  0.00000000000E+00 0. -1.
         11    1    1    2    0    0  0.15286734680E+02  0.61841592363E+02  0.25046373345E+03  0.25843790081E+03  0.00000000000E+00 0.  1.
<mgrwt>
<rscale>  0 0.14238061E+03</rscale>
<asrwt>0</asrwt>
<pdfrwt beam="2">  1        3 0.83915475E-02 0.14972873E+03</pdfrwt>
<pdfrwt beam="1">  1       -3 0.67567230E-01 0.14972873E+03</pdfrwt>
<totfact> 0.49761242E+02</totfact>
</mgrwt>
</event>
<event>
 7    1  0.5928109E-006  0.1284661E+03  0.7546771E-02  0.1248327E+00
         -2   -1    0    0    0  501 -0.00000000000E+00  0.00000000000E+00  0.16972459878E+02  0.16972459878E+02  0.00000000000E+00 0.  1.
          2   -1    0    0  501    0  0.00000000000E+00 -0.00000000000E+00 -0.72454720635E+03  0.72454720635E+03  0.00000000000E+00 0. -1.
         23    2    1    2    0    0 -0.24794841080E+02  0.16234835598E+02 -0.49585021051E+03  0.51222160537E+03  0.12500075085E+03 0.  0.
          5    1    3    3  502    0 -0.26506328264E+02  0.28635166292E+02 -0.39658853825E+02  0.55834334180E+02  0.47000000000E+01 0. -1.
         -5    1    3    3    0  502  0.17114871845E+01 -0.12400330694E+02 -0.45619135669E+03  0.45638727119E+03  0.47000000000E+01 0. -1.
        -11    1    1    2    0    0  0.47377380495E+02 -0.12275572434E+02 -0.19465810166E+03  0.20071642285E+03  0.00000000000E+00 0. -1.
         11    1    1    2    0    0 -0.22582539415E+02 -0.39592631647E+01 -0.17066434300E+02  0.28581638003E+02  0.00000000000E+00 0.  1.
<mgrwt>
<rscale>  0 0.11688436E+03</rscale>
<asrwt>0</asrwt>
<pdfrwt beam="2">  1        2 0.11146881E+00 0.12846611E+03</pdfrwt>
<pdfrwt beam="1">  1       -2 0.26111474E-02 0.12846611E+03</pdfrwt>
<totfact> 0.19742496E+04</totfact>
</mgrwt>
</event>
<event>
 7    1  0.5928109E-006  0.1427420E+03  0.7546771E-02  0.1225081E+00
          4   -1    0    0  501    0  0.00000000000E+00  0.00000000000E+00  0.39407847152E+03  0.39407847152E+03  0.00000000000E+00 0. -1.
         -4   -1    0    0    0  501 -0.00000000000E+00 -0.00000000000E+00 -0.57191714551E+02  0.57191714551E+02  0.00000000000E+00 0.  1.
         23    2    1    2    0    0  0.32518054961E+02  0.60738916398E+02  0.31496166950E+03  0.34579780131E+03  0.12501450423E+03 0.  0.
          5    1    3    3  502    0  0.23709596174E+02  0.47706028312E+02  0.31922302877E+02  0.62282690284E+02  0.47000000000E+01 0. -1.
         -5    1    3    3    0  502  0.88084587865E+01  0.13032888086E+02  0.28303936663E+03  0.28351511102E+03  0.47000000000E+01 0. -1.
        -11    1    1    2    0    0 -0.49475924743E+02 -0.40897797481E+02  0.38215192845E+02  0.74705407650E+02  0.00000000000E+00 0. -1.
         11    1    1    2    0    0  0.16957869782E+02 -0.19841118916E+02 -0.16290105380E+02  0.30766977113E+02  0.00000000000E+00 0.  1.
<mgrwt>
<rscale>  0 0.13161348E+03</rscale>
<asrwt>0</asrwt>
<pdfrwt beam="1">  1        4 0.60627455E-01 0.14274196E+03</pdfrwt>
<pdfrwt beam="2">  1       -4 0.87987256E-02 0.14274196E+03</pdfrwt>
<totfact> 0.41009788E+02</totfact>
</mgrwt>
</event>
<event>
 7    1  0.5928109E-006  0.1358155E+03  0.7546771E-02  0.1228062E+00
         -2   -1    0    0    0  501 -0.00000000000E+00  0.00000000000E+00  0.75444150921E+02  0.75444150921E+02  0.00000000000E+00 0.  1.
          2   -1    0    0  501    0  0.00000000000E+00 -0.00000000000E+00 -0.27659343445E+03  0.27659343445E+03  0.00000000000E+00 0. -1.
         23    2    1    2    0    0  0.21575304350E+02 -0.48519778328E+02 -0.19712568198E+03  0.23938333936E+03  0.12500474400E+03 0.  0.
          5    1    3    3  502    0  0.34139149662E+02 -0.13092737833E+02 -0.19808844300E+03  0.20148950984E+03  0.47000000000E+01 0. -1.
         -5    1    3    3    0  502 -0.12563845312E+02 -0.35427040495E+02  0.96276102646E+00  0.37893829525E+02  0.47000000000E+01 0. -1.
        -11    1    1    2    0    0  0.37386152054E+02  0.23829976570E+02 -0.16902287293E+02  0.47447649725E+02  0.00000000000E+00 0. -1.
         11    1    1    2    0    0 -0.58961456404E+02  0.24689801758E+02  0.12878685743E+02  0.65206596281E+02  0.00000000000E+00 0.  1.
<mgrwt>
<rscale>  0 0.12959242E+03</rscale>
<asrwt>0</asrwt>
<pdfrwt beam="2">  1        2 0.42552836E-01 0.13581549E+03</pdfrwt>
<pdfrwt beam="1">  1       -2 0.11606793E-01 0.13581549E+03</pdfrwt>
<totfact> 0.59532046E+03</totfact>
</mgrwt>
</event>
<event>
 7    1  0.5928109E-006  0.1562711E+03  0.7546771E-02  0.1201396E+00
         -3   -1    0    0    0  501 -0.00000000000E+00  0.00000000000E+00  0.86493960364E+02  0.86493960364E+02  0.00000000000E+00 0.  1.
          3   -1    0    0  501    0  0.00000000000E+00 -0.00000000000E+00 -0.26823659759E+03  0.26823659759E+03  0.00000000000E+00 0. -1.
         23    2    1    2    0    0  0.32258991880E+02 -0.88038127276E+02 -0.15860877085E+03  0.22265985409E+03  0.12501725489E+03 0.  0.
          5    1    3    3  502    0  0.59215617244E+02 -0.92208823687E+02 -0.70702024284E+02  0.13049836294E+03  0.47000000000E+01 0. -1.
         -5    1    3    3    0  502 -0.26956625364E+02  0.41706964111E+01 -0.87906746565E+02  0.92161491152E+02  0.47000000000E+01 0. -1.
        -11    1    1    2    0    0 -0.56334576815E+02  0.64041440469E+02 -0.39904925041E+02  0.94166308650E+02  0.00000000000E+00 0. -1.
         11    1    1    2    0    0  0.24075584935E+02  0.23996686806E+02  0.16771058667E+02  0.37904395213E+02  0.00000000000E+00 0.  1.
<mgrwt>
<rscale>  0 0.14925160E+03</rscale>
<asrwt>0</asrwt>
<pdfrwt beam="2">  1        3 0.41267169E-01 0.15627114E+03</pdfrwt>
<pdfrwt beam="1">  1       -3 0.13306763E-01 0.15627114E+03</pdfrwt>
<totfact> 0.62967677E+02</totfact>
</mgrwt>
</event>
<event>
 7    1  0.5928109E-006  0.1456612E+03  0.7546771E-02  0.1209353E+00
         -2   -1    0    0    0  501 -0.00000000000E+00  0.00000000000E+00  0.20058218506E+02  0.20058218506E+02  0.00000000000E+00 0.  1.
          2   -1    0    0  501    0  0.00000000000E+00 -0.00000000000E+00 -0.98420928944E+03  0.98420928944E+03  0.00000000000E+00 0. -1.
         23    2    1    2    0    0  0.49424185554E+02  0.56119671602E+02 -0.51001886013E+03  0.53041154885E+03  0.12500002325E+03 0.  0.
          5    1    3    3  502    0  0.29798479264E+02  0.29846336233E+02 -0.48972611215E+03  0.49156129635E+03  0.47000000000E+01 0. -1.
         -5    1    3    3    0  502  0.19625706290E+02  0.26273335369E+02 -0.20292747981E+02  0.38850252501E+02  0.47000000000E+01 0. -1.
        -11    1    1    2    0    0 -0.16935422526E+01  0.31357913460E+02 -0.16688581033E+03  0.16981478296E+03  0.00000000000E+00 0. -1.
         11    1    1    2    0    0 -0.47730643302E+02 -0.87477585062E+02 -0.28724640047E+03  0.30404117613E+03  0.00000000000E+00 0.  1.
<mgrwt>
<rscale>  0 0.14299614E+03</rscale>
<asrwt>0</asrwt>
<pdfrwt beam="2">  1        2 0.15141681E+00 0.14566116E+03</pdfrwt>
<pdfrwt beam="1">  1       -2 0.30858798E-02 0.14566116E+03</pdfrwt>
<totfact> 0.10545273E+04</totfact>
</mgrwt>
</event>
<event>
 7    1  0.5928109E-006  0.1282320E+03  0.7546771E-02  0.1244634E+00
          2   -1    0    0  501    0  0.00000000000E+00  0.00000000000E+00  0.61854034272E+03  0.61854034272E+03  0.00000000000E+00 0. -1.
         -2   -1    0    0    0  501 -0.00000000000E+00 -0.00000000000E+00 -0.26231335632E+02  0.26231335632E+02  0.00000000000E+00 0.  1.
         23    2    1    2    0    0  0.10211294168E+02  0.26729666501E+02  0.48298013446E+03  0.49971318049E+03  0.12499882748E+03 0.  0.
          5    1    3    3  502    0 -0.80809695718E+01  0.65479192909E+01  0.46825671123E+03  0.46839578876E+03  0.47000000000E+01 0.  1.
         -5    1    3    3    0  502  0.18292263740E+02  0.20181747210E+02  0.14723423233E+02  0.31317391732E+02  0.47000000000E+01 0.  1.
        -11    1    1    2    0    0 -0.45591221720E+02  0.63410212914E+01  0.63116756928E+02  0.78118455271E+02  0.00000000000E+00 0. -1.
         11    1    1    2    0    0  0.35379927552E+02 -0.33070687793E+02  0.46212115700E+02  0.66940042591E+02  0.00000000000E+00 0.  1.
<mgrwt>
<rscale>  0 0.11907289E+03</rscale>
<asrwt>0</asrwt>
<pdfrwt beam="1">  1        2 0.95160042E-01 0.12823203E+03</pdfrwt>
<pdfrwt beam="2">  1       -2 0.40355906E-02 0.12823203E+03</pdfrwt>
<totfact> 0.12512607E+04</totfact>
</mgrwt>
</event>
<event>
 7    1  0.5928109E-006  0.1296406E+03  0.7546771E-02  0.1241132E+00
         -3   -1    0    0    0  501 -0.00000000000E+00  0.00000000000E+00  0.21865960324E+02  0.21865960324E+02  0.00000000000E+00 0.  1.
          3   -1    0    0  501    0  0.00000000000E+00 -0.00000000000E+00 -0.67394506573E+03  0.67394506573E+03  0.00000000000E+00 0. -1.
         23    2    1    2    0    0 -0.20286626144E+01  0.34300092591E+02 -0.48072244085E+03  0.49789631618E+03  0.12500425873E+03 0.  0.
          5    1    3    3  502    0 -0.18043660827E+02  0.39887719183E+01 -0.45341659960E+03  0.45381734959E+03  0.47000000000E+01 0.  1.
         -5    1    3    3    0  502  0.16014998212E+02  0.30311320673E+02 -0.27305841249E+02  0.44078966583E+02  0.47000000000E+01 0.  1.
        -11    1    1    2    0    0  0.34978381488E+02 -0.49168524383E+02 -0.84473612624E+02  0.10381147428E+03  0.00000000000E+00 0.  1.
         11    1    1    2    0    0 -0.32949718874E+02  0.14868431792E+02 -0.86883051935E+02  0.94103235605E+02  0.00000000000E+00 0. -1.
<mgrwt>
<rscale>  0 0.12119882E+03</rscale>
<asrwt>0</asrwt>
<pdfrwt beam="2">  1        3 0.10368383E+00 0.12964057E+03</pdfrwt>
<pdfrwt beam="1">  1       -3 0.33639946E-02 0.12964057E+03</pdfrwt>
<totfact> 0.81646579E+02</totfact>
</mgrwt>
</event>
<event>
 7    1  0.5928109E-006  0.1250082E+03  0.7546771E-02  0.1254476E+00
          2   -1    0    0  501    0  0.00000000000E+00  0.00000000000E+00  0.72675319803E+03  0.72675319803E+03  0.00000000000E+00 0. -1.
         -2   -1    0    0    0  501 -0.00000000000E+00 -0.00000000000E+00 -0.69633514431E+02  0.69633514431E+02  0.00000000000E+00 0.  1.
         23    2    1    2    0    0  0.11385877337E+01  0.12036902411E+01  0.69327417888E+03  0.70445449017E+03  0.12499718543E+03 0.  0.
          5    1    3    3  502    0 -0.31810232772E+02 -0.50883516357E+02  0.26551462005E+03  0.27225195427E+03  0.47000000000E+01 0. -1.
         -5    1    3    3    0  502  0.32948820506E+02  0.52087206598E+02  0.42775955883E+03  0.43220253590E+03  0.47000000000E+01 0. -1.
        -11    1    1    2    0    0  0.30805073801E+02 -0.34348223394E+00  0.12890783910E+02  0.33395252084E+02  0.00000000000E+00 0. -1.
         11    1    1    2    0    0 -0.31943661535E+02 -0.86020800716E+00 -0.49045279192E+02  0.58536970207E+02  0.00000000000E+00 0.  1.
<mgrwt>
<rscale>  0 0.11335728E+03</rscale>
<asrwt>0</asrwt>
<pdfrwt beam="1">  1        2 0.11180818E+00 0.12500817E+03</pdfrwt>
<pdfrwt beam="2">  1       -2 0.10712849E-01 0.12500817E+03</pdfrwt>
<totfact> 0.23356274E+03</totfact>
</mgrwt>
</event>
<event>
 7    1  0.5928109E-006  0.2000060E+03  0.7546771E-02  0.1154132E+00
         -1   -1    0    0    0  501 -0.00000000000E+00  0.00000000000E+00  0.45177333170E+03  0.45177333170E+03  0.00000000000E+00 0.  1.
          1   -1    0    0  501    0  0.00000000000E+00 -0.00000000000E+00 -0.80690994931E+02  0.80690994931E+02  0.00000000000E+00 0. -1.
         23    2    1    2    0    0  0.12502331508E+03  0.93482451635E+02  0.17096661929E+03  0.26311974444E+03  0.12503046398E+03 0.  0.
          5    1    3    3  502    0 -0.16217584609E+02 -0.77534433247E+01  0.44269881852E+02  0.48010815169E+02  0.47000000000E+01 0.  1.
         -5    1    3    3    0  502  0.14124089969E+03  0.10123589496E+03  0.12669673743E+03  0.21510892927E+03  0.47000000000E+01 0.  1.
        -11    1    1    2    0    0 -0.26580149547E+02 -0.34056275626E+02  0.12434453075E+03  0.13163546857E+03  0.00000000000E+00 0.  1.
         11    1    1    2    0    0 -0.98443165537E+02 -0.59426176009E+02  0.75771186738E+02  0.13770911363E+03  0.00000000000E+00 0. -1.
<mgrwt>
<rscale>  0 0.19488037E+03</rscale>
<asrwt>0</asrwt>
<pdfrwt beam="2">  1        1 0.12414000E-01 0.20000604E+03</pdfrwt>
<pdfrwt beam="1">  1       -1 0.69503588E-01 0.20000604E+03</pdfrwt>
<totfact> 0.10368180E+03</totfact>
</mgrwt>
</event>
<event>
 7    1  0.5928109E-006  0.2778477E+03  0.7546771E-02  0.1098823E+00
          2   -1    0    0  501    0  0.00000000000E+00  0.00000000000E+00  0.30298637634E+04  0.30298637634E+04  0.00000000000E+00 0.  1.
         -2   -1    0    0    0  501 -0.00000000000E+00 -0.00000000000E+00 -0.51140416606E+02  0.51140416606E+02  0.00000000000E+00 0. -1.
         23    2    1    2    0    0  0.11741314219E+03 -0.21855345690E+03  0.26245907703E+04  0.26392567281E+04  0.12509159021E+03 0.  0.
          5    1    3    3  502    0  0.10335754208E+03 -0.16594921358E+03  0.14171396801E+04  0.14305694271E+04  0.47000000000E+01 0.  1.
         -5    1    3    3    0  502  0.14055600104E+02 -0.52604243318E+02  0.12074510902E+04  0.12086873010E+04  0.47000000000E+01 0.  1.
        -11    1    1    2    0    0 -0.24453030652E+01  0.35413655456E+02  0.11017221275E+03  0.11574982921E+03  0.00000000000E+00 0.  1.
         11    1    1    2    0    0 -0.11496783912E+03  0.18313980144E+03  0.24396036372E+03  0.32599762265E+03  0.00000000000E+00 0. -1.
<mgrwt>
<rscale>  0 0.27433633E+03</rscale>
<asrwt>0</asrwt>
<pdfrwt beam="1">  1        2 0.46613274E+00 0.27784774E+03</pdfrwt>
<pdfrwt beam="2">  1       -2 0.78677588E-02 0.27784774E+03</pdfrwt>
<totfact> 0.19397343E+02</totfact>
</mgrwt>
</event>
<event>
 7    1  0.5928109E-006  0.1396546E+03  0.7546771E-02  0.1224887E+00
         -2   -1    0    0    0  501 -0.00000000000E+00  0.00000000000E+00  0.38454620411E+02  0.38454620411E+02  0.00000000000E+00 0.  1.
          2   -1    0    0  501    0  0.00000000000E+00 -0.00000000000E+00 -0.52199757485E+03  0.52199757485E+03  0.00000000000E+00 0. -1.
         23    2    1    2    0    0  0.21895108236E+02 -0.58368531476E+02 -0.39439016823E+03  0.41838620239E+03  0.12496850934E+03 0.  0.
          5    1    3    3  502    0 -0.19008510022E+02 -0.86788689555E+02 -0.27136353459E+03  0.28557636106E+03  0.47000000000E+01 0. -1.
         -5    1    3    3    0  502  0.40903618259E+02  0.28420158078E+02 -0.12302663364E+03  0.13280984134E+03  0.47000000000E+01 0. -1.
        -11    1    1    2    0    0  0.25033089000E+02  0.53289161375E+02 -0.29077173997E+02  0.65664848378E+02  0.00000000000E+00 0.  1.
         11    1    1    2    0    0 -0.46928197236E+02  0.50793701015E+01 -0.60075612214E+02  0.76401144490E+02  0.00000000000E+00 0. -1.
<mgrwt>
<rscale>  0 0.13174673E+03</rscale>
<asrwt>0</asrwt>
<pdfrwt beam="2">  1        2 0.80307316E-01 0.13965461E+03</pdfrwt>
<pdfrwt beam="1">  1       -2 0.59160957E-02 0.13965461E+03</pdfrwt>
<totfact> 0.85820503E+03</totfact>
</mgrwt>
</event>
<event>
 6    1  0.5928109E-006  0.1583366E+03  0.7546771E-02  0.1216813E+00
         -2   -1    0    0    0  501 -0.00000000000E+00  0.00000000000E+00  0.17749933919E+02  0.17749933919E+02  0.00000000000E+00 0.  1.
          2   -1    0    0  501    0  0.00000000000E+00 -0.00000000000E+00 -0.27491105758E+04  0.27491105758E+04  0.00000000000E+00 0. -1.
          5    1    1    2  502    0 -0.39669219968E+02  0.57451644626E+02 -0.12623176422E+04  0.12642556143E+04  0.47000000000E+01 0. -1.
         -5    1    1    2    0  502  0.32740178004E+02 -0.81411690150E+02 -0.13528338381E+04  0.13556847959E+04  0.47000000000E+01 0.  1.
        -11    1    1    2    0    0 -0.23385950877E+02 -0.10742268882E+02 -0.90639786149E+02  0.94222448877E+02  0.00000000000E+00 0. -1.
         11    1    1    2    0    0  0.30314992841E+02  0.34702314405E+02 -0.25569375464E+02  0.52697650590E+02  0.00000000000E+00 0.  1.
<mgrwt>
<rscale>  0 0.13744180E+03</rscale>
<asrwt>0</asrwt>
<pdfrwt beam="2">  1        2 0.42294014E+00 0.15833663E+03</pdfrwt>
<pdfrwt beam="1">  1       -2 0.27307587E-02 0.15833663E+03</pdfrwt>
<totfact> 0.14464429E+03</totfact>
</mgrwt>
</event>
<event>
 7    1  0.5928109E-006  0.1126743E+03  0.7546771E-02  0.1264711E+00
          2   -1    0    0  501    0  0.00000000000E+00  0.00000000000E+00  0.61394708158E+02  0.61394708158E+02  0.00000000000E+00 0. -1.
         -2   -1    0    0    0  501 -0.00000000000E+00 -0.00000000000E+00 -0.17495673026E+03  0.17495673026E+03  0.00000000000E+00 0.  1.
         23    2    1    2    0    0 -0.12430679491E+02 -0.97627820481E+01 -0.56325329900E+02  0.12596843193E+03  0.11156016023E+03 0.  0.
          5    1    3    3  502    0  0.60590278474E+01  0.13834915600E+02  0.30300870770E+02  0.34181127505E+02  0.47000000000E+01 0. -1.
         -5    1    3    3    0  502 -0.18489707339E+02 -0.23597697648E+02 -0.86626200670E+02  0.91787304428E+02  0.47000000000E+01 0.  1.
        -11    1    1    2    0    0  0.23649501014E+02  0.48179188032E+02 -0.39330146398E+02  0.66538661493E+02  0.00000000000E+00 0. -1.
         11    1    1    2    0    0 -0.11218821523E+02 -0.38416405984E+02 -0.17906545808E+02  0.43844344993E+02  0.00000000000E+00 0.  1.
<mgrwt>
<rscale>  0 0.10779373E+03</rscale>
<asrwt>0</asrwt>
<pdfrwt beam="1">  1        2 0.94453396E-02 0.11267432E+03</pdfrwt>
<pdfrwt beam="2">  1       -2 0.26916420E-01 0.11267432E+03</pdfrwt>
<totfact> 0.79527488E+03</totfact>
</mgrwt>
</event>
<event>
 7    1  0.5928109E-006  0.1765713E+03  0.7546771E-02  0.1174078E+00
         -3   -1    0    0    0  501 -0.00000000000E+00  0.00000000000E+00  0.11853493874E+03  0.11853493874E+03  0.00000000000E+00 0.  1.
          3   -1    0    0  501    0  0.00000000000E+00 -0.00000000000E+00 -0.27908396316E+03  0.27908396316E+03  0.00000000000E+00 0. -1.
         23    2    1    2    0    0 -0.11398852902E+03 -0.60477830202E+02 -0.15062259481E+03  0.23208745482E+03  0.12052579774E+03 0.  0.
          5    1    3    3  502    0 -0.11114345772E+03 -0.56634651896E-01 -0.12168167186E+03  0.16486779754E+03  0.47000000000E+01 0. -1.
         -5    1    3    3    0  502 -0.28450713024E+01 -0.60421195551E+02 -0.28940922956E+02  0.67219657274E+02  0.47000000000E+01 0.  1.
        -11    1    1    2    0    0  0.23632315365E+02  0.27033819525E+02  0.42666105682E+02  0.55764776532E+02  0.00000000000E+00 0.  1.
         11    1    1    2    0    0  0.90356213654E+02  0.33444010677E+02 -0.52592535286E+02  0.10976667055E+03  0.00000000000E+00 0. -1.
<mgrwt>
<rscale>  0 0.17366593E+03</rscale>
<asrwt>0</asrwt>
<pdfrwt beam="2">  1        3 0.42935994E-01 0.17657129E+03</pdfrwt>
<pdfrwt beam="1">  1       -3 0.18236144E-01 0.17657129E+03</pdfrwt>
<totfact> 0.34388654E+02</totfact>
</mgrwt>
</event>
<event>
 7    1  0.5928109E-006  0.1257451E+03  0.7546771E-02  0.1250179E+00
          1   -1    0    0  501    0  0.00000000000E+00  0.00000000000E+00  0.92990756770E+03  0.92990756770E+03  0.00000000000E+00 0. -1.
         -1   -1    0    0    0  501 -0.00000000000E+00 -0.00000000000E+00 -0.12661830777E+02  0.12661830777E+02  0.00000000000E+00 0.  1.
         23    2    1    2    0    0 -0.46460636404E+01  0.12799628923E+02  0.57308306350E+03  0.58671631797E+03  0.12500569462E+03 0.  0.
          5    1    3    3  502    0  0.81402975713E+01  0.66451670189E+02  0.37888719107E+03  0.38478524202E+03  0.47000000000E+01 0.  1.
         -5    1    3    3    0  502 -0.12786361212E+02 -0.53652041266E+02  0.19419587243E+03  0.20193107595E+03  0.47000000000E+01 0.  1.
        -11    1    1    2    0    0 -0.23900879732E+02 -0.37170837633E+02  0.25959621184E+03  0.26333081176E+03  0.00000000000E+00 0. -1.
         11    1    1    2    0    0  0.28546943373E+02  0.24371208710E+02  0.84566461588E+02  0.92522268754E+02  0.00000000000E+00 0.  1.
<mgrwt>
<rscale>  0 0.11580721E+03</rscale>
<asrwt>0</asrwt>
<pdfrwt beam="1">  1        1 0.14306265E+00 0.12574514E+03</pdfrwt>
<pdfrwt beam="2">  1       -1 0.19479747E-02 0.12574514E+03</pdfrwt>
<totfact> 0.12312847E+04</totfact>
</mgrwt>
</event>
<event>
 7    1  0.5928109E-006  0.1347137E+03  0.7546771E-02  0.1231645E+00
         -1   -1    0    0    0  501 -0.00000000000E+00  0.00000000000E+00  0.18103212787E+03  0.18103212787E+03  0.00000000000E+00 0.  1.
          1   -1    0    0  501    0  0.00000000000E+00 -0.00000000000E+00 -0.90405873609E+02  0.90405873609E+02  0.00000000000E+00 0. -1.
         23    2    1    2    0    0  0.19337729857E+02 -0.48744130988E+02  0.58934004397E+01  0.13484257729E+03  0.12408807509E+03 0.  0.
          5    1    3    3  502    0 -0.24918589944E+01 -0.35841832397E+02 -0.56618174298E+02  0.67220190209E+02  0.47000000000E+01 0. -1.
         -5    1    3    3    0  502  0.21829588851E+02 -0.12902298591E+02  0.62511574738E+02  0.67622387081E+02  0.47000000000E+01 0.  1.
        -11    1    1    2    0    0  0.37553112237E+02  0.19876407490E+02  0.25575272009E+02  0.49592361828E+02  0.00000000000E+00 0. -1.
         11    1    1    2    0    0 -0.56890842093E+02  0.28867723498E+02  0.59157581808E+02  0.87003062356E+02  0.00000000000E+00 0.  1.
<mgrwt>
<rscale>  0 0.12721703E+03</rscale>
<asrwt>0</asrwt>
<pdfrwt beam="2">  1        1 0.13908596E-01 0.13471373E+03</pdfrwt>
<pdfrwt beam="1">  1       -1 0.27851097E-01 0.13471373E+03</pdfrwt>
<totfact> 0.45670366E+03</totfact>
</mgrwt>
</event>
<event>
 7    1  0.5928109E-006  0.1335644E+03  0.7546771E-02  0.1235149E+00
         -2   -1    0    0    0  501 -0.00000000000E+00  0.00000000000E+00  0.12792260022E+02  0.12792260022E+02  0.00000000000E+00 0.  1.
          2   -1    0    0  501    0  0.00000000000E+00 -0.00000000000E+00 -0.11571278587E+04  0.11571278587E+04  0.00000000000E+00 0. -1.
         23    2    1    2    0    0  0.13409383384E+02 -0.45081790514E+02 -0.78605846241E+03  0.79732512827E+03  0.12500909751E+03 0.  0.
          5    1    3    3  502    0 -0.29726448052E+02 -0.45662476673E+02 -0.68706372947E+03  0.68923681115E+03  0.47000000000E+01 0. -1.
         -5    1    3    3    0  502  0.43135831437E+02  0.58068615937E+00 -0.98994732939E+02  0.10808831713E+03  0.47000000000E+01 0. -1.
        -11    1    1    2    0    0 -0.52457542435E+02  0.23673650279E+02 -0.21379834814E+03  0.22140905389E+03  0.00000000000E+00 0.  1.
         11    1    1    2    0    0  0.39048159051E+02  0.21408140235E+02 -0.14447878816E+03  0.15118593659E+03  0.00000000000E+00 0. -1.
<mgrwt>
<rscale>  0 0.12494906E+03</rscale>
<asrwt>0</asrwt>
<pdfrwt beam="2">  1        2 0.17801966E+00 0.13356442E+03</pdfrwt>
<pdfrwt beam="1">  1       -2 0.19680402E-02 0.13356442E+03</pdfrwt>
<totfact> 0.16068830E+04</totfact>
</mgrwt>
</event>
<event>
 7    1  0.5928109E-006  0.1400173E+03  0.7546771E-02  0.1223686E+00
          1   -1    0    0  501    0  0.00000000000E+00  0.00000000000E+00  0.80163674946E+02  0.80163674946E+02  0.00000000000E+00 0. -1.
         -1   -1    0    0    0  501 -0.00000000000E+00 -0.00000000000E+00 -0.21408841052E+03  0.21408841052E+03  0.00000000000E+00 0.  1.
         23    2    1    2    0    0 -0.50453057386E+02  0.37876102757E+02 -0.34775539604E+02  0.14427122739E+03  0.12499895494E+03 0.  0.
          5    1    3    3  502    0  0.99078545028E+01 -0.18878945814E+02  0.31321111278E+02  0.38179604341E+02  0.47000000000E+01 0.  1.
         -5    1    3    3    0  502 -0.60360911889E+02  0.56755048571E+02 -0.66096650883E+02  0.10609162304E+03  0.47000000000E+01 0.  1.
        -11    1    1    2    0    0  0.66254303105E+02 -0.19322943001E+02 -0.10430619696E+03  0.12507114587E+03  0.00000000000E+00 0.  1.
         11    1    1    2    0    0 -0.15801245719E+02 -0.18553159756E+02  0.51570009855E+01  0.24909712210E+02  0.00000000000E+00 0. -1.
<mgrwt>
<rscale>  0 0.13257339E+03</rscale>
<asrwt>0</asrwt>
<pdfrwt beam="1">  1        1 0.12332873E-01 0.14001732E+03</pdfrwt>
<pdfrwt beam="2">  1       -1 0.32936678E-01 0.14001732E+03</pdfrwt>
<totfact> 0.40387471E+03</totfact>
</mgrwt>
</event>
<event>
 6    1  0.5928109E-006  0.1910247E+03  0.7546771E-02  0.1166793E+00
         -1   -1    0    0    0  501 -0.00000000000E+00  0.00000000000E+00  0.17955967182E+02  0.17955967182E+02  0.00000000000E+00 0.  1.
          1   -1    0    0  501    0  0.00000000000E+00 -0.00000000000E+00 -0.19684227510E+04  0.19684227510E+04  0.00000000000E+00 0. -1.
          5    1    1    2  502    0  0.34611830628E+02  0.11084955535E+03 -0.13766986285E+04  0.13815957464E+04  0.47000000000E+01 0. -1.
         -5    1    1    2    0  502  0.34015044897E+02  0.82903486145E+01 -0.78432278606E+02  0.86020145819E+02  0.47000000000E+01 0.  1.
        -11    1    1    2    0    0 -0.43543141055E+02 -0.11981984271E+03 -0.38307371095E+03  0.40373043960E+03  0.00000000000E+00 0.  1.
         11    1    1    2    0    0 -0.25083734471E+02  0.67993874323E+00 -0.11226216583E+03  0.11503238644E+03  0.00000000000E+00 0. -1.
<mgrwt>
<rscale>  0 0.18104715E+03</rscale>
<asrwt>0</asrwt>
<pdfrwt beam="2">  1        1 0.30283424E+00 0.19102474E+03</pdfrwt>
<pdfrwt beam="1">  1       -1 0.27624567E-02 0.19102474E+03</pdfrwt>
<totfact> 0.15136646E+03</totfact>
</mgrwt>
</event>
<event>
 7    1  0.5928109E-006  0.1712278E+03  0.7546771E-02  0.1183181E+00
          1   -1    0    0  501    0  0.00000000000E+00  0.00000000000E+00  0.61036274400E+03  0.61036274400E+03  0.00000000000E+00 0. -1.
         -1   -1    0    0    0  501 -0.00000000000E+00 -0.00000000000E+00 -0.43640580655E+02  0.43640580655E+02  0.00000000000E+00 0.  1.
         23    2    1    2    0    0 -0.11663559233E+03  0.94902051275E+01  0.37335421937E+03  0.41074606248E+03  0.12500011731E+03 0.  0.
          5    1    3    3  502    0 -0.98771391518E+02 -0.47248239365E+02  0.27016732575E+03  0.29154872287E+03  0.47000000000E+01 0.  1.
         -5    1    3    3    0  502 -0.17864200816E+02  0.56738444492E+02  0.10318689362E+03  0.11919733961E+03  0.47000000000E+01 0.  1.
        -11    1    1    2    0    0  0.52728800109E+02 -0.13062398434E+02  0.19060518979E+02  0.57569575276E+02  0.00000000000E+00 0.  1.
         11    1    1    2    0    0  0.63906792226E+02  0.35721933064E+01  0.17430742500E+03  0.18568768690E+03  0.00000000000E+00 0. -1.
<mgrwt>
<rscale>  0 0.16498529E+03</rscale>
<asrwt>0</asrwt>
<pdfrwt beam="1">  1        1 0.93901955E-01 0.17122779E+03</pdfrwt>
<pdfrwt beam="2">  1       -1 0.67139359E-02 0.17122779E+03</pdfrwt>
<totfact> 0.37941585E+03</totfact>
</mgrwt>
</event>
<event>
 7    1  0.5928109E-006  0.1471924E+03  0.7546771E-02  0.1213654E+00
          4   -1    0    0  501    0  0.00000000000E+00  0.00000000000E+00  0.53521961030E+02  0.53521961030E+02  0.00000000000E+00 0. -1.
         -4   -1    0    0    0  501 -0.00000000000E+00 -0.00000000000E+00 -0.40868848401E+03  0.40868848401E+03  0.00000000000E+00 0.  1.
         23    2    1    2    0    0  0.77451899037E+02 -0.63914396931E+01 -0.93196828112E+02  0.17421607254E+03  0.12500377592E+03 0.  0.
          5    1    3    3  502    0  0.64153235165E+02  0.17946890248E+02  0.97548012357E+01  0.67490551922E+02  0.47000000000E+01 0.  1.
         -5    1    3    3    0  502  0.13298663872E+02 -0.24338329941E+02 -0.10295162935E+03  0.10672552061E+03  0.47000000000E+01 0.  1.
        -11    1    1    2    0    0 -0.69435024293E+02 -0.22944442543E+02 -0.23884595477E+03  0.24979003213E+03  0.00000000000E+00 0.  1.
         11    1    1    2    0    0 -0.80168747437E+01  0.29335882236E+02 -0.23123740104E+02  0.38204340377E+02  0.00000000000E+00 0. -1.
<mgrwt>
<rscale>  0 0.13975872E+03</rscale>
<asrwt>0</asrwt>
<pdfrwt beam="1">  1        4 0.82341478E-02 0.14719236E+03</pdfrwt>
<pdfrwt beam="2">  1       -4 0.62875152E-01 0.14719236E+03</pdfrwt>
<totfact> 0.42652407E+02</totfact>
</mgrwt>
</event>
<event>
 7    1  0.5928109E-006  0.1313170E+03  0.7546771E-02  0.1238130E+00
          1   -1    0    0  501    0  0.00000000000E+00  0.00000000000E+00  0.16856495010E+03  0.16856495010E+03  0.00000000000E+00 0. -1.
         -1   -1    0    0    0  501 -0.00000000000E+00 -0.00000000000E+00 -0.86120622178E+02  0.86120622178E+02  0.00000000000E+00 0.  1.
         23    2    1    2    0    0 -0.52795410926E+01 -0.39914361609E+02  0.79200188803E+02  0.15335192295E+03  0.12499244997E+03 0.  0.
          5    1    3    3  502    0 -0.56018657446E+02 -0.33874551587E+00  0.67391624403E+02  0.87760616283E+02  0.47000000000E+01 0. -1.
         -5    1    3    3    0  502  0.50739116354E+02 -0.39575616093E+02  0.11808564400E+02  0.65591306670E+02  0.47000000000E+01 0. -1.
        -11    1    1    2    0    0  0.30313560455E+02  0.27981704248E+02 -0.34994514090E+02  0.54097169394E+02  0.00000000000E+00 0.  1.
         11    1    1    2    0    0 -0.25034019362E+02  0.11932657361E+02  0.38238653212E+02  0.47236479935E+02  0.00000000000E+00 0. -1.
<mgrwt>
<rscale>  0 0.12306183E+03</rscale>
<asrwt>0</asrwt>
<pdfrwt beam="1">  1        1 0.25933069E-01 0.13131695E+03</pdfrwt>
<pdfrwt beam="2">  1       -1 0.13249327E-01 0.13131695E+03</pdfrwt>
<totfact> 0.67718254E+03</totfact>
</mgrwt>
</event>
<event>
 7    1  0.5928109E-006  0.1289247E+03  0.7546771E-02  0.1242744E+00
         -2   -1    0    0    0  501 -0.00000000000E+00  0.00000000000E+00  0.24979989500E+02  0.24979989500E+02  0.00000000000E+00 0.  1.
          2   -1    0    0  501    0  0.00000000000E+00 -0.00000000000E+00 -0.52244215882E+03  0.52244215882E+03  0.00000000000E+00 0. -1.
         23    2    1    2    0    0 -0.14720231908E+02  0.27971450394E+02 -0.31931647001E+03  0.34436113738E+03  0.12498999020E+03 0.  0.
          5    1    3    3  502    0  0.18381485314E+02 -0.24938238336E+01  0.25738249508E+01  0.19308359188E+02  0.47000000000E+01 0. -1.
         -5    1    3    3    0  502 -0.33101717222E+02  0.30465274228E+02 -0.32189029496E+03  0.32505277819E+03  0.47000000000E+01 0. -1.
        -11    1    1    2    0    0 -0.30604934236E+02 -0.40187414610E+02 -0.92082802405E+02  0.10502824759E+03  0.00000000000E+00 0.  1.
         11    1    1    2    0    0  0.45325166144E+02  0.12215964216E+02 -0.86062896905E+02  0.98032763357E+02  0.00000000000E+00 0. -1.
<mgrwt>
<rscale>  0 0.12021413E+03</rscale>
<asrwt>0</asrwt>
<pdfrwt beam="2">  1        2 0.80375714E-01 0.12892473E+03</pdfrwt>
<pdfrwt beam="1">  1       -2 0.38430754E-02 0.12892473E+03</pdfrwt>
<totfact> 0.16267171E+04</totfact>
</mgrwt>
</event>
<event>
 7    1  0.5928109E-006  0.1301169E+03  0.7546771E-02  0.1243795E+00
          1   -1    0    0  501    0  0.00000000000E+00  0.00000000000E+00  0.12061400876E+04  0.12061400876E+04  0.00000000000E+00 0. -1.
         -1   -1    0    0    0  501 -0.00000000000E+00 -0.00000000000E+00 -0.14456791903E+02  0.14456791903E+02  0.00000000000E+00 0.  1.
         23    2    1    2    0    0 -0.35603505933E+02  0.62481349171E+01  0.99082705387E+03  0.99933410992E+03  0.12499505489E+03 0.  0.
          5    1    3    3  502    0  0.10121459389E+02 -0.34050821495E+02  0.96795922822E+02  0.10321551753E+03  0.47000000000E+01 0. -1.
         -5    1    3    3    0  502 -0.45724965323E+02  0.40298956412E+02  0.89403113105E+03  0.89611859239E+03  0.47000000000E+01 0. -1.
        -11    1    1    2    0    0  0.33296472949E+01 -0.23950055043E+02  0.88329703276E+01  0.25743213717E+02  0.00000000000E+00 0.  1.
         11    1    1    2    0    0  0.32273858639E+02  0.17701920126E+02  0.19202327147E+03  0.19551955583E+03  0.00000000000E+00 0. -1.
<mgrwt>
<rscale>  0 0.11957787E+03</rscale>
<asrwt>0</asrwt>
<pdfrwt beam="1">  1        1 0.18555993E+00 0.13011692E+03</pdfrwt>
<pdfrwt beam="2">  1       -1 0.22241228E-02 0.13011692E+03</pdfrwt>
<totfact> 0.64741612E+03</totfact>
</mgrwt>
</event>
<event>
 7    1  0.5928109E-006  0.1166288E+03  0.7546771E-02  0.1258765E+00
          1   -1    0    0  501    0  0.00000000000E+00  0.00000000000E+00  0.11667499800E+04  0.11667499800E+04  0.00000000000E+00 0. -1.
         -1   -1    0    0    0  501 -0.00000000000E+00 -0.00000000000E+00 -0.34222972351E+02  0.34222972351E+02  0.00000000000E+00 0.  1.
         23    2    1    2    0    0  0.30929707741E+02 -0.88765410638E+01  0.10901642273E+04  0.10963851168E+04  0.11210192757E+03 0.  0.
          5    1    3    3  502    0  0.70768038108E+02 -0.19885186843E+02  0.77377597155E+03  0.77727400575E+03  0.47000000000E+01 0. -1.
         -5    1    3    3    0  502 -0.39838330368E+02  0.11008645779E+02  0.31638825571E+03  0.31911111106E+03  0.47000000000E+01 0.  1.
        -11    1    1    2    0    0  0.25845577380E+02 -0.18458488387E+02  0.20899677513E+02  0.38019813043E+02  0.00000000000E+00 0. -1.
         11    1    1    2    0    0 -0.56775285121E+02  0.27335029450E+02  0.21463102891E+02  0.66568022513E+02  0.00000000000E+00 0.  1.
<mgrwt>
<rscale>  0 0.11098046E+03</rscale>
<asrwt>0</asrwt>
<pdfrwt beam="1">  1        1 0.17949997E+00 0.11662882E+03</pdfrwt>
<pdfrwt beam="2">  1       -1 0.52650736E-02 0.11662882E+03</pdfrwt>
<totfact> 0.19539651E+03</totfact>
</mgrwt>
</event>
<event>
 7    1  0.5928109E-006  0.1318603E+03  0.7546771E-02  0.1237327E+00
         -2   -1    0    0    0  501 -0.00000000000E+00  0.00000000000E+00  0.36617968058E+02  0.36617968058E+02  0.00000000000E+00 0.  1.
          2   -1    0    0  501    0  0.00000000000E+00 -0.00000000000E+00 -0.38324674675E+03  0.38324674675E+03  0.00000000000E+00 0. -1.
         23    2    1    2    0    0  0.13814617396E+02 -0.39657316243E+02 -0.23013195882E+03  0.26523172186E+03  0.12499440556E+03 0.  0.
          5    1    3    3  502    0 -0.35036174428E+02 -0.39127559662E+02 -0.20177040608E+03  0.20854708392E+03  0.47000000000E+01 0. -1.
         -5    1    3    3    0  502  0.48850791824E+02 -0.52975658149E+00 -0.28361552750E+02  0.56684637939E+02  0.47000000000E+01 0. -1.
        -11    1    1    2    0    0 -0.33237631540E+02 -0.12474948278E+02 -0.14297153489E+02  0.38272354027E+02  0.00000000000E+00 0. -1.
         11    1    1    2    0    0  0.19423014144E+02  0.52132264521E+02 -0.10219966638E+03  0.11636063892E+03  0.00000000000E+00 0.  1.
<mgrwt>
<rscale>  0 0.12356627E+03</rscale>
<asrwt>0</asrwt>
<pdfrwt beam="2">  1        2 0.58961034E-01 0.13186033E+03</pdfrwt>
<pdfrwt beam="1">  1       -2 0.56335339E-02 0.13186033E+03</pdfrwt>
<totfact> 0.12860276E+04</totfact>
</mgrwt>
</event>
<event>
 7    1  0.5928109E-006  0.2936974E+03  0.7546771E-02  0.1090133E+00
         -1   -1    0    0    0  501 -0.00000000000E+00  0.00000000000E+00  0.39250299957E+03  0.39250299957E+03  0.00000000000E+00 0.  1.
          1   -1    0    0  501    0  0.00000000000E+00 -0.00000000000E+00 -0.39491865010E+03  0.39491865010E+03  0.00000000000E+00 0. -1.
         23    2    1    2    0    0 -0.21740951207E+03  0.15285574922E+03 -0.27044623366E+03  0.39924847240E+03  0.12500560551E+03 0.  0.
          5    1    3    3  502    0  0.54822426269E+01  0.15801441934E+02 -0.62853499828E+02  0.65210374880E+02  0.47000000000E+01 0. -1.
         -5    1    3    3    0  502 -0.22289175470E+03  0.13705430728E+03 -0.20759273383E+03  0.33403809752E+03  0.47000000000E+01 0. -1.
        -11    1    1    2    0    0  0.12682172708E+03 -0.75262728294E+02  0.86518311227E+02  0.17097849837E+03  0.00000000000E+00 0.  1.
         11    1    1    2    0    0  0.90587784997E+02 -0.77593020923E+02  0.18151227190E+03  0.21719467889E+03  0.00000000000E+00 0. -1.
<mgrwt>
<rscale>  0 0.29041368E+03</rscale>
<asrwt>0</asrwt>
<pdfrwt beam="2">  1        1 0.60756715E-01 0.29369742E+03</pdfrwt>
<pdfrwt beam="1">  1       -1 0.60385077E-01 0.29369742E+03</pdfrwt>
<totfact> 0.17804849E+02</totfact>
</mgrwt>
</event>
<event>
 7    1  0.5928109E-006  0.1574742E+03  0.7546771E-02  0.1200208E+00
          4   -1    0    0  501    0  0.00000000000E+00  0.00000000000E+00  0.11149461320E+04  0.11149461320E+04  0.00000000000E+00 0. -1.
         -4   -1    0    0    0  501 -0.00000000000E+00 -0.00000000000E+00 -0.20940574852E+02  0.20940574852E+02  0.00000000000E+00 0.  1.
         23    2    1    2    0    0  0.84503976456E+02  0.45080923427E+02  0.78259731476E+03  0.79828358100E+03  0.12499962776E+03 0.  0.
          5    1    3    3  502    0  0.34691431538E+02  0.71297019586E+02  0.63993815391E+03  0.64484858010E+03  0.47000000000E+01 0.  1.
         -5    1    3    3    0  502  0.49812544918E+02 -0.26216096160E+02  0.14265916085E+03  0.15343500091E+03  0.47000000000E+01 0.  1.
        -11    1    1    2    0    0 -0.26175323887E+02 -0.33283665398E+02  0.24416154039E+03  0.24780598816E+03  0.00000000000E+00 0. -1.
         11    1    1    2    0    0 -0.58328652569E+02 -0.11797258029E+02  0.67246702014E+02  0.89797137701E+02  0.00000000000E+00 0.  1.
<mgrwt>
<rscale>  0 0.15021580E+03</rscale>
<asrwt>0</asrwt>
<pdfrwt beam="1">  1        4 0.17153013E+00 0.15747418E+03</pdfrwt>
<pdfrwt beam="2">  1       -4 0.32216278E-02 0.15747418E+03</pdfrwt>
<totfact> 0.18512626E+02</totfact>
</mgrwt>
</event>
<event>
 7    1  0.5928109E-006  0.1976918E+03  0.7546771E-02  0.1155884E+00
         -1   -1    0    0    0  501 -0.00000000000E+00  0.00000000000E+00  0.12148707193E+03  0.12148707193E+03  0.00000000000E+00 0.  1.
          1   -1    0    0  501    0  0.00000000000E+00 -0.00000000000E+00 -0.29642084136E+03  0.29642084136E+03  0.00000000000E+00 0. -1.
         23    2    1    2    0    0 -0.13607164905E+03 -0.70282766831E+02 -0.11647466712E+03  0.22945237007E+03  0.12500752402E+03 0.  0.
          5    1    3    3  502    0 -0.15897152941E+03 -0.67621204788E+02 -0.93163789094E+02  0.19633175010E+03  0.47000000000E+01 0.  1.
         -5    1    3    3    0  502  0.22899880357E+02 -0.26615620433E+01 -0.23310878028E+02  0.33120619972E+02  0.47000000000E+01 0.  1.
        -11    1    1    2    0    0  0.41402050098E+02  0.42560638365E+02  0.19743467907E+02  0.62572695446E+02  0.00000000000E+00 0.  1.
         11    1    1    2    0    0  0.94669598955E+02  0.27722128466E+02 -0.78202570218E+02  0.12588284777E+03  0.00000000000E+00 0. -1.
<mgrwt>
<rscale>  0 0.19288624E+03</rscale>
<asrwt>0</asrwt>
<pdfrwt beam="2">  1        1 0.45603206E-01 0.19769179E+03</pdfrwt>
<pdfrwt beam="1">  1       -1 0.18690319E-01 0.19769179E+03</pdfrwt>
<totfact> 0.19835698E+03</totfact>
</mgrwt>
</event>
<event>
 7    1  0.5928109E-006  0.1532651E+03  0.7546771E-02  0.1205236E+00
         -2   -1    0    0    0  501 -0.00000000000E+00  0.00000000000E+00  0.45480046425E+02  0.45480046425E+02  0.00000000000E+00 0.  1.
          2   -1    0    0  501    0  0.00000000000E+00 -0.00000000000E+00 -0.93587201904E+03  0.93587201904E+03  0.00000000000E+00 0. -1.
         23    2    1    2    0    0  0.76173016454E+02 -0.45455152074E+02 -0.82406810672E+03  0.83819952024E+03  0.12498676704E+03 0.  0.
          5    1    3    3  502    0  0.48885162632E+02 -0.16962232732E+01 -0.72271644713E+03  0.72438511115E+03  0.47000000000E+01 0. -1.
         -5    1    3    3    0  502  0.27287853822E+02 -0.43758928800E+02 -0.10135165959E+03  0.11381440909E+03  0.47000000000E+01 0. -1.
        -11    1    1    2    0    0 -0.43956317867E+02  0.65675308772E+02 -0.69151551419E+02  0.10501114763E+03  0.00000000000E+00 0.  1.
         11    1    1    2    0    0 -0.32216698588E+02 -0.20220156698E+02  0.28276855276E+01  0.38141397592E+02  0.00000000000E+00 0. -1.
<mgrwt>
<rscale>  0 0.14618902E+03</rscale>
<asrwt>0</asrwt>
<pdfrwt beam="2">  1        2 0.14398030E+00 0.15326510E+03</pdfrwt>
<pdfrwt beam="1">  1       -2 0.69969308E-02 0.15326510E+03</pdfrwt>
<totfact> 0.33098361E+03</totfact>
</mgrwt>
</event>
<event>
 7    1  0.5928109E-006  0.1379569E+03  0.7546771E-02  0.1220754E+00
         -2   -1    0    0    0  501 -0.00000000000E+00  0.00000000000E+00  0.29143760409E+02  0.29143760409E+02  0.00000000000E+00 0.  1.
          2   -1    0    0  501    0  0.00000000000E+00 -0.00000000000E+00 -0.82575911379E+03  0.82575911379E+03  0.00000000000E+00 0. -1.
         23    2    1    2    0    0  0.52692523856E+02  0.25112209389E+02 -0.63877491578E+03  0.65350248743E+03  0.12499993169E+03 0.  0.
          5    1    3    3  502    0 -0.18039398577E+01  0.57508924293E+02 -0.15199297853E+03  0.16258685707E+03  0.47000000000E+01 0. -1.
         -5    1    3    3    0  502  0.54496463714E+02 -0.32396714904E+02 -0.48678193726E+03  0.49091563036E+03  0.47000000000E+01 0. -1.
        -11    1    1    2    0    0 -0.81069358692E+02 -0.42749986237E+02 -0.11766752901E+03  0.14914908523E+03  0.00000000000E+00 0.  1.
         11    1    1    2    0    0  0.28376834836E+02  0.17637776848E+02 -0.40172908596E+02  0.52251301539E+02  0.00000000000E+00 0. -1.
<mgrwt>
<rscale>  0 0.13462221E+03</rscale>
<asrwt>0</asrwt>
<pdfrwt beam="2">  1        2 0.12703985E+00 0.13795691E+03</pdfrwt>
<pdfrwt beam="1">  1       -2 0.44836559E-02 0.13795691E+03</pdfrwt>
<totfact> 0.76045558E+03</totfact>
</mgrwt>
</event>
<event>
 7    1  0.5928109E-006  0.2181527E+03  0.7546771E-02  0.1138744E+00
         -1   -1    0    0    0  501 -0.00000000000E+00  0.00000000000E+00  0.26563841064E+02  0.26563841064E+02  0.00000000000E+00 0.  1.
          1   -1    0    0  501    0  0.00000000000E+00 -0.00000000000E+00 -0.16794669815E+04  0.16794669815E+04  0.00000000000E+00 0. -1.
         23    2    1    2    0    0  0.17874922538E+03  0.26120290063E+01 -0.97421227000E+03  0.99833869081E+03  0.12502994152E+03 0.  0.
          5    1    3    3  502    0  0.15825032033E+03 -0.45930904426E+02 -0.76259339935E+03  0.78020740486E+03  0.47000000000E+01 0. -1.
         -5    1    3    3    0  502  0.20498905051E+02  0.48542933432E+02 -0.21161887065E+03  0.21813128595E+03  0.47000000000E+01 0. -1.
        -11    1    1    2    0    0 -0.10374160226E+03 -0.34140454792E+01 -0.54125749949E+03  0.55112036480E+03  0.00000000000E+00 0. -1.
         11    1    1    2    0    0 -0.75007623122E+02  0.80201647291E+00 -0.13743337093E+03  0.15657176694E+03  0.00000000000E+00 0.  1.
<mgrwt>
<rscale>  0 0.21360329E+03</rscale>
<asrwt>0</asrwt>
<pdfrwt beam="2">  1        1 0.25837959E+00 0.21815269E+03</pdfrwt>
<pdfrwt beam="1">  1       -1 0.40867440E-02 0.21815269E+03</pdfrwt>
<totfact> 0.13023211E+03</totfact>
</mgrwt>
</event>
<event>
 7    1  0.5928109E-006  0.1274767E+03  0.7546771E-02  0.1245675E+00
         -1   -1    0    0    0  501 -0.00000000000E+00  0.00000000000E+00  0.24508179868E+02  0.24508179868E+02  0.00000000000E+00 0.  1.
          1   -1    0    0  501    0  0.00000000000E+00 -0.00000000000E+00 -0.94331001915E+03  0.94331001915E+03  0.00000000000E+00 0. -1.
         23    2    1    2    0    0 -0.14504180314E+02  0.20391519816E+02 -0.82323108920E+03  0.83304245826E+03  0.12499650280E+03 0.  0.
          5    1    3    3  502    0 -0.20484960386E+02 -0.50399375477E+02 -0.42541565751E+03  0.42890593643E+03  0.47000000000E+01 0.  1.
         -5    1    3    3    0  502  0.59807800718E+01  0.70790895293E+02 -0.39781543169E+03  0.40413652183E+03  0.47000000000E+01 0.  1.
        -11    1    1    2    0    0  0.35397787059E+02  0.15037626734E+02 -0.83465847719E+02  0.91900387822E+02  0.00000000000E+00 0. -1.
         11    1    1    2    0    0 -0.20893606745E+02 -0.35429146550E+02 -0.12104902363E+02  0.42875352935E+02  0.00000000000E+00 0.  1.
<mgrwt>
<rscale>  0 0.11845094E+03</rscale>
<asrwt>0</asrwt>
<pdfrwt beam="2">  1        1 0.14512464E+00 0.12747671E+03</pdfrwt>
<pdfrwt beam="1">  1       -1 0.37704886E-02 0.12747671E+03</pdfrwt>
<totfact> 0.46203660E+03</totfact>
</mgrwt>
</event>
<event>
 6    1  0.5928109E-006  0.1396672E+03  0.7546771E-02  0.1227515E+00
          1   -1    0    0  501    0  0.00000000000E+00  0.00000000000E+00  0.82555107476E+03  0.82555107476E+03  0.00000000000E+00 0. -1.
         -1   -1    0    0    0  501 -0.00000000000E+00 -0.00000000000E+00 -0.21598420005E+02  0.21598420005E+02  0.00000000000E+00 0.  1.
          5    1    1    2  502    0  0.81945849333E+01 -0.76538011942E+02  0.26239759733E+03  0.27349553484E+03  0.47000000000E+01 0. -1.
         -5    1    1    2    0  502  0.35872199784E+02  0.43469966828E+02  0.35712672252E+03  0.36157715453E+03  0.47000000000E+01 0.  1.
        -11    1    1    2    0    0  0.19272926332E+02 -0.14101353798E+02  0.61418413594E+02  0.65897764732E+02  0.00000000000E+00 0. -1.
         11    1    1    2    0    0 -0.63339711049E+02  0.47169398912E+02  0.12300992130E+03  0.14617904066E+03  0.00000000000E+00 0.  1.
<mgrwt>
<rscale>  0 0.12996036E+03</rscale>
<asrwt>0</asrwt>
<pdfrwt beam="1">  1        1 0.12700783E+00 0.13966724E+03</pdfrwt>
<pdfrwt beam="2">  1       -1 0.33228345E-02 0.13966724E+03</pdfrwt>
<totfact> 0.68874059E+03</totfact>
</mgrwt>
</event>
<event>
 7    1  0.5928109E-006  0.1349004E+03  0.7546771E-02  0.1229350E+00
         -1   -1    0    0    0  501 -0.00000000000E+00  0.00000000000E+00  0.18352549484E+02  0.18352549484E+02  0.00000000000E+00 0.  1.
          1   -1    0    0  501    0  0.00000000000E+00 -0.00000000000E+00 -0.99120507145E+03  0.99120507145E+03  0.00000000000E+00 0. -1.
         23    2    1    2    0    0  0.13552901184E+02  0.48893257893E+02 -0.72756098654E+03  0.73996156167E+03  0.12499556718E+03 0.  0.
          5    1    3    3  502    0 -0.30706501185E+02  0.59229803894E+02 -0.61279506471E+03  0.61643405180E+03  0.47000000000E+01 0.  1.
         -5    1    3    3    0  502  0.44259402369E+02 -0.10336546001E+02 -0.11476592183E+03  0.12352750987E+03  0.47000000000E+01 0.  1.
        -11    1    1    2    0    0  0.44812931659E+00 -0.64477741217E+02 -0.23925840311E+03  0.24779459920E+03  0.00000000000E+00 0. -1.
         11    1    1    2    0    0 -0.14001030501E+02  0.15584483324E+02 -0.60331323154E+01  0.21801460068E+02  0.00000000000E+00 0.  1.
<mgrwt>
<rscale>  0 0.12873153E+03</rscale>
<asrwt>0</asrwt>
<pdfrwt beam="2">  1        1 0.15249306E+00 0.13490042E+03</pdfrwt>
<pdfrwt beam="1">  1       -1 0.28234696E-02 0.13490042E+03</pdfrwt>
<totfact> 0.65073193E+03</totfact>
</mgrwt>
</event>
<event>
 6    1  0.5928109E-006  0.1506306E+03  0.7546771E-02  0.1215641E+00
          1   -1    0    0  501    0  0.00000000000E+00  0.00000000000E+00  0.14503311239E+04  0.14503311239E+04  0.00000000000E+00 0. -1.
         -1   -1    0    0    0  501 -0.00000000000E+00 -0.00000000000E+00 -0.14518623537E+02  0.14518623537E+02  0.00000000000E+00 0.  1.
          5    1    1    2  502    0 -0.25605050232E+02 -0.96336258541E+02  0.66398760647E+03  0.67144465509E+03  0.47000000000E+01 0. -1.
         -5    1    1    2    0  502  0.56989546398E+01  0.47557473848E+02  0.48292419534E+03  0.48531645330E+03  0.47000000000E+01 0.  1.
        -11    1    1    2    0    0  0.19206181775E+02 -0.89594670002E+01  0.10293522053E+02  0.23560688945E+02  0.00000000000E+00 0. -1.
         11    1    1    2    0    0  0.69991381729E+00  0.57738251694E+02  0.27860717653E+03  0.28452795012E+03  0.00000000000E+00 0.  1.
<mgrwt>
<rscale>  0 0.13829590E+03</rscale>
<asrwt>0</asrwt>
<pdfrwt beam="1">  1        1 0.22312775E+00 0.15063061E+03</pdfrwt>
<pdfrwt beam="2">  1       -1 0.22336355E-02 0.15063061E+03</pdfrwt>
<totfact> 0.44458805E+03</totfact>
</mgrwt>
</event>
<event>
 6    1  0.5928109E-006  0.1966392E+03  0.7546771E-02  0.1194566E+00
          2   -1    0    0  501    0  0.00000000000E+00  0.00000000000E+00  0.33889383257E+03  0.33889383257E+03  0.00000000000E+00 0. -1.
         -2   -1    0    0    0  501 -0.00000000000E+00 -0.00000000000E+00 -0.57291160984E+02  0.57291160984E+02  0.00000000000E+00 0.  1.
          5    1    1    2  502    0 -0.83675576594E+02 -0.51257995759E+02  0.13984107652E+03  0.17089938833E+03  0.47000000000E+01 0. -1.
         -5    1    1    2    0  502  0.78768826866E+02 -0.19099077193E+02  0.22917550757E+02  0.84359984401E+02  0.47000000000E+01 0.  1.
        -11    1    1    2    0    0 -0.10937585233E+02  0.26926439823E+02  0.38615038421E+02  0.48329960941E+02  0.00000000000E+00 0.  1.
         11    1    1    2    0    0  0.15844334961E+02  0.43430633129E+02  0.80229005886E+02  0.92595659886E+02  0.00000000000E+00 0. -1.
<mgrwt>
<rscale>  0 0.15491016E+03</rscale>
<asrwt>0</asrwt>
<pdfrwt beam="1">  1        2 0.52137512E-01 0.19663920E+03</pdfrwt>
<pdfrwt beam="2">  1       -2 0.88140249E-02 0.19663920E+03</pdfrwt>
<totfact> 0.75723864E+03</totfact>
</mgrwt>
</event>
<event>
 7    1  0.5928109E-006  0.1267890E+03  0.7546771E-02  0.1247298E+00
         -2   -1    0    0    0  501 -0.00000000000E+00  0.00000000000E+00  0.21626499820E+02  0.21626499820E+02  0.00000000000E+00 0. -1.
          2   -1    0    0  501    0  0.00000000000E+00 -0.00000000000E+00 -0.56473609380E+03  0.56473609380E+03  0.00000000000E+00 0.  1.
         23    2    1    2    0    0 -0.20172555601E+02  0.68187730618E+01 -0.33622974809E+03  0.35934092959E+03  0.12498812949E+03 0.  0.
          5    1    3    3  502    0  0.21738872082E+02 -0.38742753186E+02 -0.52668286025E+02  0.69062419858E+02  0.47000000000E+01 0.  1.
         -5    1    3    3    0  502 -0.41911427683E+02  0.45561526248E+02 -0.28356146206E+03  0.29027850973E+03  0.47000000000E+01 0.  1.
        -11    1    1    2    0    0  0.47074808867E+02  0.22425275485E+02 -0.13769912501E+03  0.14724122942E+03  0.00000000000E+00 0.  1.
         11    1    1    2    0    0 -0.26902253266E+02 -0.29244048547E+02 -0.69180720881E+02  0.79780434618E+02  0.00000000000E+00 0. -1.
<mgrwt>
<rscale>  0 0.11748908E+03</rscale>
<asrwt>0</asrwt>
<pdfrwt beam="2">  1        2 0.86882472E-01 0.12678904E+03</pdfrwt>
<pdfrwt beam="1">  1       -2 0.33271540E-02 0.12678904E+03</pdfrwt>
<totfact> 0.18433145E+04</totfact>
</mgrwt>
</event>
<event>
 7    1  0.5928109E-006  0.1828910E+03  0.7546771E-02  0.1170389E+00
         -3   -1    0    0    0  501 -0.00000000000E+00  0.00000000000E+00  0.13953853501E+03  0.13953853501E+03  0.00000000000E+00 0.  1.
          3   -1    0    0  501    0  0.00000000000E+00 -0.00000000000E+00 -0.27646423177E+03  0.27646423177E+03  0.00000000000E+00 0. -1.
         23    2    1    2    0    0  0.13343498574E+03  0.42298300334E+01 -0.17138643042E+03  0.25064402797E+03  0.12500533326E+03 0.  0.
          5    1    3    3  502    0  0.15224573691E+03  0.72930591816E+01 -0.17339625052E+03  0.23091189405E+03  0.47000000000E+01 0. -1.
         -5    1    3    3    0  502 -0.18810751164E+02 -0.30632291482E+01  0.20098201063E+01  0.19732133920E+02  0.47000000000E+01 0. -1.
        -11    1    1    2    0    0 -0.17129055214E+02  0.34874540350E+02  0.11549340322E+02  0.40534249211E+02  0.00000000000E+00 0.  1.
         11    1    1    2    0    0 -0.11630593053E+03 -0.39104370384E+02  0.22911393342E+02  0.12482448960E+03  0.00000000000E+00 0. -1.
<mgrwt>
<rscale>  0 0.17735385E+03</rscale>
<asrwt>0</asrwt>
<pdfrwt beam="2">  1        3 0.42532959E-01 0.18289101E+03</pdfrwt>
<pdfrwt beam="1">  1       -3 0.21467467E-01 0.18289101E+03</pdfrwt>
<totfact> 0.26354043E+02</totfact>
</mgrwt>
</event>
<event>
 6    1  0.5928109E-006  0.1803354E+03  0.7546771E-02  0.1187488E+00
         -1   -1    0    0    0  501 -0.00000000000E+00  0.00000000000E+00  0.83504518788E+02  0.83504518788E+02  0.00000000000E+00 0.  1.
          1   -1    0    0  501    0  0.00000000000E+00 -0.00000000000E+00 -0.26313915328E+03  0.26313915328E+03  0.00000000000E+00 0. -1.
          5    1    1    2  502    0  0.51366710057E+02 -0.15882253539E+02 -0.14194498692E+03  0.15185932369E+03  0.47000000000E+01 0. -1.
         -5    1    1    2    0  502 -0.55239792808E+02 -0.35791324088E+02  0.16248301371E+02  0.67959921181E+02  0.47000000000E+01 0.  1.
        -11    1    1    2    0    0 -0.67638739605E+01  0.81456880370E+02 -0.47543235088E+02  0.94558619666E+02  0.00000000000E+00 0.  1.
         11    1    1    2    0    0  0.10636956712E+02 -0.29783302743E+02 -0.63947138523E+01  0.32265807531E+02  0.00000000000E+00 0. -1.
<mgrwt>
<rscale>  0 0.16107571E+03</rscale>
<asrwt>0</asrwt>
<pdfrwt beam="2">  1        1 0.40482946E-01 0.18033536E+03</pdfrwt>
<pdfrwt beam="1">  1       -1 0.12846849E-01 0.18033536E+03</pdfrwt>
<totfact> 0.41542275E+03</totfact>
</mgrwt>
</event>
<event>
 6    1  0.5928109E-006  0.2232212E+03  0.7546771E-02  0.1152800E+00
         -1   -1    0    0    0  501 -0.00000000000E+00  0.00000000000E+00  0.51368153245E+02  0.51368153245E+02  0.00000000000E+00 0.  1.
          1   -1    0    0  501    0  0.00000000000E+00 -0.00000000000E+00 -0.93770220088E+03  0.93770220088E+03  0.00000000000E+00 0. -1.
          5    1    1    2  502    0 -0.64555940591E+02 -0.72029408413E+02 -0.64180252398E+03  0.64906723453E+03  0.47000000000E+01 0. -1.
         -5    1    1    2    0  502  0.85381848644E+02 -0.23281926292E+02 -0.15644223252E+03  0.17980091848E+03  0.47000000000E+01 0.  1.
        -11    1    1    2    0    0  0.31301736703E+02  0.65405254352E+02 -0.58763695015E+02  0.93331762382E+02  0.00000000000E+00 0.  1.
         11    1    1    2    0    0 -0.52127644755E+02  0.29906080352E+02 -0.29325596115E+02  0.66870438739E+02  0.00000000000E+00 0. -1.
<mgrwt>
<rscale>  0 0.19641448E+03</rscale>
<asrwt>0</asrwt>
<pdfrwt beam="2">  1        1 0.14426187E+00 0.22322124E+03</pdfrwt>
<pdfrwt beam="1">  1       -1 0.79027931E-02 0.22322124E+03</pdfrwt>
<totfact> 0.15644826E+03</totfact>
</mgrwt>
</event>
<event>
 7    1  0.5928109E-006  0.1398895E+03  0.7546771E-02  0.1223340E+00
          1   -1    0    0  501    0  0.00000000000E+00  0.00000000000E+00  0.88465681031E+02  0.88465681031E+02  0.00000000000E+00 0. -1.
         -1   -1    0    0    0  501 -0.00000000000E+00 -0.00000000000E+00 -0.20584851352E+03  0.20584851352E+03  0.00000000000E+00 0.  1.
         23    2    1    2    0    0 -0.60307110464E+02 -0.17527784936E+02 -0.13860638973E+02  0.14057448979E+03  0.12499959620E+03 0.  0.
          5    1    3    3  502    0 -0.53318731027E+02 -0.43769375423E+02 -0.56847321977E+02  0.89511749616E+02  0.47000000000E+01 0. -1.
         -5    1    3    3    0  502 -0.69883794370E+01  0.26241590486E+02  0.42986683005E+02  0.51062740175E+02  0.47000000000E+01 0. -1.
        -11    1    1    2    0    0  0.49830077179E+02 -0.13066359212E+01 -0.19278745433E+01  0.49884472427E+02  0.00000000000E+00 0. -1.
         11    1    1    2    0    0  0.10477033286E+02  0.18834420858E+02 -0.10159431897E+03  0.10385523233E+03  0.00000000000E+00 0.  1.
<mgrwt>
<rscale>  0 0.13281363E+03</rscale>
<asrwt>0</asrwt>
<pdfrwt beam="1">  1        1 0.13610105E-01 0.13988949E+03</pdfrwt>
<pdfrwt beam="2">  1       -1 0.31669002E-01 0.13988949E+03</pdfrwt>
<totfact> 0.37950530E+03</totfact>
</mgrwt>
</event>
<event>
 7    1  0.5928109E-006  0.1320856E+03  0.7546771E-02  0.1236684E+00
         -1   -1    0    0    0  501 -0.00000000000E+00  0.00000000000E+00  0.12204300683E+03  0.12204300683E+03  0.00000000000E+00 0.  1.
          1   -1    0    0  501    0  0.00000000000E+00 -0.00000000000E+00 -0.11317796523E+03  0.11317796523E+03  0.00000000000E+00 0. -1.
         23    2    1    2    0    0 -0.41632374576E+02 -0.93977537058E+01 -0.23522603451E+01  0.13210658140E+03  0.12500017333E+03 0.  0.
          5    1    3    3  502    0  0.71774983995E+01  0.51595554212E+02  0.88537080097E+01  0.53048052210E+02  0.47000000000E+01 0.  1.
         -5    1    3    3    0  502 -0.48809872975E+02 -0.60993307918E+02 -0.11205968355E+02  0.79058529188E+02  0.47000000000E+01 0.  1.
        -11    1    1    2    0    0  0.32457237323E+02 -0.19095825828E+02  0.44536454493E+02  0.58323396656E+02  0.00000000000E+00 0.  1.
         11    1    1    2    0    0  0.91751372528E+01  0.28493579534E+02 -0.33319152546E+02  0.44790994013E+02  0.00000000000E+00 0. -1.
<mgrwt>
<rscale>  0 0.12397247E+03</rscale>
<asrwt>0</asrwt>
<pdfrwt beam="2">  1        1 0.17411995E-01 0.13208564E+03</pdfrwt>
<pdfrwt beam="1">  1       -1 0.18775847E-01 0.13208564E+03</pdfrwt>
<totfact> 0.64834290E+03</totfact>
</mgrwt>
</event>
<event>
 7    1  0.5928109E-006  0.1456809E+03  0.7546771E-02  0.1215351E+00
          1   -1    0    0  501    0  0.00000000000E+00  0.00000000000E+00  0.13662114987E+03  0.13662114987E+03  0.00000000000E+00 0. -1.
         -1   -1    0    0    0  501 -0.00000000000E+00 -0.00000000000E+00 -0.13440903158E+03  0.13440903158E+03  0.00000000000E+00 0.  1.
         23    2    1    2    0    0  0.65275879987E+02  0.36678987799E+02  0.30125887534E+02  0.14876324975E+03  0.12496658242E+03 0.  0.
          5    1    3    3  502    0  0.17928896179E+02  0.75407590550E+02 -0.54536688071E+01  0.77843320422E+02  0.47000000000E+01 0.  1.
         -5    1    3    3    0  502  0.47346983808E+02 -0.38728602751E+02  0.35579556341E+02  0.70919929330E+02  0.47000000000E+01 0.  1.
        -11    1    1    2    0    0  0.92208774954E+01  0.21128598071E+02 -0.13946587282E+02  0.26943450689E+02  0.00000000000E+00 0. -1.
         11    1    1    2    0    0 -0.74496757482E+02 -0.57807585870E+02 -0.13967181958E+02  0.95323481008E+02  0.00000000000E+00 0.  1.
<mgrwt>
<rscale>  0 0.13850752E+03</rscale>
<asrwt>0</asrwt>
<pdfrwt beam="1">  1        1 0.21018638E-01 0.14568094E+03</pdfrwt>
<pdfrwt beam="2">  1       -1 0.20678313E-01 0.14568094E+03</pdfrwt>
<totfact> 0.43950065E+03</totfact>
</mgrwt>
</event>
<event>
 7    1  0.5928109E-006  0.1587937E+03  0.7546771E-02  0.1199044E+00
         -2   -1    0    0    0  501 -0.00000000000E+00  0.00000000000E+00  0.47682363332E+02  0.47682363332E+02  0.00000000000E+00 0.  1.
          2   -1    0    0  501    0  0.00000000000E+00 -0.00000000000E+00 -0.43967924976E+03  0.43967924976E+03  0.00000000000E+00 0. -1.
         23    2    1    2    0    0 -0.91134135354E+02 -0.35846888180E+02 -0.20292312487E+03  0.25766884243E+03  0.12500003092E+03 0.  0.
          5    1    3    3  502    0 -0.33276006230E+02 -0.72860275891E+02 -0.64045905058E+02  0.10266391941E+03  0.47000000000E+01 0. -1.
         -5    1    3    3    0  502 -0.57858129125E+02  0.37013387711E+02 -0.13887721982E+03  0.15500492302E+03  0.47000000000E+01 0. -1.
        -11    1    1    2    0    0  0.49709272929E+02 -0.15952368039E+02 -0.37608686305E+02  0.64342079130E+02  0.00000000000E+00 0.  1.
         11    1    1    2    0    0  0.41424862426E+02  0.51799256219E+02 -0.15146507525E+03  0.16535069154E+03  0.00000000000E+00 0. -1.
<mgrwt>
<rscale>  0 0.15116895E+03</rscale>
<asrwt>0</asrwt>
<pdfrwt beam="2">  1        2 0.67642965E-01 0.15879370E+03</pdfrwt>
<pdfrwt beam="1">  1       -2 0.73357478E-02 0.15879370E+03</pdfrwt>
<totfact> 0.75146836E+03</totfact>
</mgrwt>
</event>
<event>
 7    1  0.5928109E-006  0.1420909E+03  0.7546771E-02  0.1220879E+00
         -2   -1    0    0    0  501 -0.00000000000E+00  0.00000000000E+00  0.68603309302E+02  0.68603309302E+02  0.00000000000E+00 0.  1.
          2   -1    0    0  501    0  0.00000000000E+00 -0.00000000000E+00 -0.29144096601E+03  0.29144096601E+03  0.00000000000E+00 0. -1.
         23    2    1    2    0    0  0.23028171967E+02 -0.63433449373E+02 -0.19711943565E+03  0.24299359744E+03  0.12504286178E+03 0.  0.
          5    1    3    3  502    0 -0.36348396491E+02  0.18157748087E+02 -0.62290641982E+02  0.74519284897E+02  0.47000000000E+01 0.  1.
         -5    1    3    3    0  502  0.59376568457E+02 -0.81591197459E+02 -0.13482879367E+03  0.16847431254E+03  0.47000000000E+01 0.  1.
        -11    1    1    2    0    0  0.29870638557E+01  0.78777599399E+02 -0.23609375991E+01  0.78869555241E+02  0.00000000000E+00 0.  1.
         11    1    1    2    0    0 -0.26015235823E+02 -0.15344150026E+02 -0.23357283461E+02  0.38181122634E+02  0.00000000000E+00 0. -1.
<mgrwt>
<rscale>  0 0.13453398E+03</rscale>
<asrwt>0</asrwt>
<pdfrwt beam="2">  1        2 0.44837072E-01 0.14209087E+03</pdfrwt>
<pdfrwt beam="1">  1       -2 0.10554355E-01 0.14209087E+03</pdfrwt>
<totfact> 0.65666889E+03</totfact>
</mgrwt>
</event>
<event>
 6    1  0.5928109E-006  0.2693329E+03  0.7546771E-02  0.1106578E+00
          1   -1    0    0  501    0  0.00000000000E+00  0.00000000000E+00  0.53297444463E+03  0.53297444463E+03  0.00000000000E+00 0. -1.
         -1   -1    0    0    0  501 -0.00000000000E+00 -0.00000000000E+00 -0.14105508229E+03  0.14105508229E+03  0.00000000000E+00 0.  1.
          5    1    1    2  502    0  0.14267712958E+03  0.22223987389E+02  0.94305428232E+02  0.17252904890E+03  0.47000000000E+01 0. -1.
         -5    1    1    2    0  502 -0.16957692442E+02 -0.89137730581E+02  0.24096252946E+03  0.25752306489E+03  0.47000000000E+01 0.  1.
        -11    1    1    2    0    0 -0.13827899161E+03  0.96877698325E+02 -0.10722946325E+02  0.16917845469E+03  0.00000000000E+00 0.  1.
         11    1    1    2    0    0  0.12559554471E+02 -0.29963955132E+02  0.67374350968E+02  0.74798958442E+02  0.00000000000E+00 0. -1.
<mgrwt>
<rscale>  0 0.26094300E+03</rscale>
<asrwt>0</asrwt>
<pdfrwt beam="1">  1        1 0.81996067E-01 0.26933291E+03</pdfrwt>
<pdfrwt beam="2">  1       -1 0.21700782E-01 0.26933291E+03</pdfrwt>
<totfact> 0.73269284E+02</totfact>
</mgrwt>
</event>
<event>
 7    1  0.5928109E-006  0.1452539E+03  0.7546771E-02  0.1216688E+00
          1   -1    0    0  501    0  0.00000000000E+00  0.00000000000E+00  0.70917319413E+03  0.70917319413E+03  0.00000000000E+00 0. -1.
         -1   -1    0    0    0  501 -0.00000000000E+00 -0.00000000000E+00 -0.24301388902E+02  0.24301388902E+02  0.00000000000E+00 0.  1.
         23    2    1    2    0    0  0.23200921510E+02 -0.70238177250E+02  0.40325213379E+03  0.42861520421E+03  0.12500810202E+03 0.  0.
          5    1    3    3  502    0 -0.29679025641E+02  0.27787633240E+01  0.24148128789E+03  0.24335954571E+03  0.47000000000E+01 0.  1.
         -5    1    3    3    0  502  0.52879947151E+02 -0.73016940574E+02  0.16177084590E+03  0.18525565850E+03  0.47000000000E+01 0.  1.
        -11    1    1    2    0    0  0.12144870660E+02  0.63708404876E+02  0.96412171373E+02  0.11619623713E+03  0.00000000000E+00 0.  1.
         11    1    1    2    0    0 -0.35345792170E+02  0.65297723740E+01  0.18520750006E+03  0.18866314169E+03  0.00000000000E+00 0. -1.
<mgrwt>
<rscale>  0 0.13753282E+03</rscale>
<asrwt>0</asrwt>
<pdfrwt beam="1">  1        1 0.10910355E+00 0.14525395E+03</pdfrwt>
<pdfrwt beam="2">  1       -1 0.37386758E-02 0.14525395E+03</pdfrwt>
<totfact> 0.72741219E+03</totfact>
</mgrwt>
</event>
<event>
 7    1  0.5928109E-006  0.3046172E+03  0.7546771E-02  0.1084629E+00
          1   -1    0    0  501    0  0.00000000000E+00  0.00000000000E+00  0.16128360041E+03  0.16128360041E+03  0.00000000000E+00 0. -1.
         -1   -1    0    0    0  501 -0.00000000000E+00 -0.00000000000E+00 -0.75900333872E+03  0.75900333872E+03  0.00000000000E+00 0.  1.
         23    2    1    2    0    0 -0.27604477448E+03  0.31034613589E+02 -0.62536904992E+02  0.31097026034E+03  0.12501109380E+03 0.  0.
          5    1    3    3  502    0 -0.14470185780E+02 -0.32060629857E+02 -0.81724954317E+01  0.36416341729E+02  0.47000000000E+01 0.  1.
         -5    1    3    3    0  502 -0.26157458870E+03  0.63095243447E+02 -0.54364409561E+02  0.27455391861E+03  0.47000000000E+01 0.  1.
        -11    1    1    2    0    0  0.19865222708E+03 -0.61454343163E+02 -0.39200558513E+03  0.44374285616E+03  0.00000000000E+00 0. -1.
         11    1    1    2    0    0  0.77392547399E+02  0.30419729574E+02 -0.14317724818E+03  0.16557382262E+03  0.00000000000E+00 0.  1.
<mgrwt>
<rscale>  0 0.30122765E+03</rscale>
<asrwt>0</asrwt>
<pdfrwt beam="1">  1        1 0.24812862E-01 0.30461720E+03</pdfrwt>
<pdfrwt beam="2">  1       -1 0.11676974E+00 0.30461720E+03</pdfrwt>
<totfact> 0.13664484E+02</totfact>
</mgrwt>
</event>
<event>
 7    1  0.5928109E-006  0.1654773E+03  0.7546771E-02  0.1189651E+00
          2   -1    0    0  501    0  0.00000000000E+00  0.00000000000E+00  0.13492300122E+04  0.13492300122E+04  0.00000000000E+00 0. -1.
         -2   -1    0    0    0  501 -0.00000000000E+00 -0.00000000000E+00 -0.51587443399E+02  0.51587443399E+02  0.00000000000E+00 0.  1.
         23    2    1    2    0    0 -0.87207585401E+01  0.10808878126E+03  0.12348890747E+04  0.12459268698E+04  0.12499400641E+03 0.  0.
          5    1    3    3  502    0 -0.53396933399E+01  0.94975845921E+02  0.12245614693E+04  0.12282596654E+04  0.47000000000E+01 0. -1.
         -5    1    3    3    0  502 -0.33810652003E+01  0.13112935337E+02  0.10327605444E+02  0.17667204342E+02  0.47000000000E+01 0. -1.
        -11    1    1    2    0    0 -0.30425264979E+02 -0.88131865388E+02  0.23933129893E+02  0.96258595213E+02  0.00000000000E+00 0. -1.
         11    1    1    2    0    0  0.39146023519E+02 -0.19956915870E+02  0.38820364143E+02  0.58631990590E+02  0.00000000000E+00 0.  1.
<mgrwt>
<rscale>  0 0.15915728E+03</rscale>
<asrwt>0</asrwt>
<pdfrwt beam="1">  1        2 0.20757382E+00 0.16547730E+03</pdfrwt>
<pdfrwt beam="2">  1       -2 0.79365308E-02 0.16547730E+03</pdfrwt>
<totfact> 0.15830766E+03</totfact>
</mgrwt>
</event>
<event>
 7    1  0.5928109E-006  0.2807827E+03  0.7546771E-02  0.1097055E+00
          2   -1    0    0  501    0  0.00000000000E+00  0.00000000000E+00  0.10073019190E+03  0.10073019190E+03  0.00000000000E+00 0. -1.
         -2   -1    0    0    0  501 -0.00000000000E+00 -0.00000000000E+00 -0.12889842400E+04  0.12889842400E+04  0.00000000000E+00 0.  1.
         23    2    1    2    0    0 -0.24585893400E+03 -0.52604820397E+02 -0.15180172083E+03  0.31919071544E+03  0.12500027129E+03 0.  0.
          5    1    3    3  502    0 -0.62573734233E+02  0.15601668188E+02 -0.96037740444E+02  0.11577660323E+03  0.47000000000E+01 0. -1.
         -5    1    3    3    0  502 -0.18328519977E+03 -0.68206488585E+02 -0.55763980386E+02  0.20341411221E+03  0.47000000000E+01 0. -1.
        -11    1    1    2    0    0  0.80617123280E+02  0.62103322986E+02 -0.35893830651E+03  0.37308531353E+03  0.00000000000E+00 0.  1.
         11    1    1    2    0    0  0.16524181072E+03 -0.94985025887E+01 -0.67751402075E+03  0.69743840292E+03  0.00000000000E+00 0. -1.
<mgrwt>
<rscale>  0 0.27751342E+03</rscale>
<asrwt>0</asrwt>
<pdfrwt beam="1">  1        2 0.15496953E-01 0.28078275E+03</pdfrwt>
<pdfrwt beam="2">  1       -2 0.19830526E+00 0.28078275E+03</pdfrwt>
<totfact> 0.55465313E+01</totfact>
</mgrwt>
</event>
<event>
 7    1  0.5928109E-006  0.2966575E+03  0.7546771E-02  0.1088710E+00
         -2   -1    0    0    0  501 -0.00000000000E+00  0.00000000000E+00  0.21403440647E+03  0.21403440647E+03  0.00000000000E+00 0.  1.
          2   -1    0    0  501    0  0.00000000000E+00 -0.00000000000E+00 -0.88216495461E+03  0.88216495461E+03  0.00000000000E+00 0. -1.
         23    2    1    2    0    0 -0.21810404672E+03  0.15751613498E+03 -0.74594903236E+03  0.80277372766E+03  0.12499996383E+03 0.  0.
          5    1    3    3  502    0 -0.35801738775E+02 -0.16192051593E+02 -0.58372479101E+02  0.70522218843E+02  0.47000000000E+01 0. -1.
         -5    1    3    3    0  502 -0.18230230795E+03  0.17370818658E+03 -0.68757655326E+03  0.73225150881E+03  0.47000000000E+01 0. -1.
        -11    1    1    2    0    0  0.15922989396E+03 -0.14399092325E+03  0.30804656571E+02  0.21687893391E+03  0.00000000000E+00 0. -1.
         11    1    1    2    0    0  0.58874152768E+02 -0.13525211736E+02  0.47013827652E+02  0.76546699518E+02  0.00000000000E+00 0.  1.
<mgrwt>
<rscale>  0 0.29316147E+03</rscale>
<asrwt>0</asrwt>
<pdfrwt beam="2">  1        2 0.13571768E+00 0.29665754E+03</pdfrwt>
<pdfrwt beam="1">  1       -2 0.32928370E-01 0.29665754E+03</pdfrwt>
<totfact> 0.27023215E+02</totfact>
</mgrwt>
</event>
<event>
 7    1  0.5928109E-006  0.1566702E+03  0.7546771E-02  0.1200590E+00
         -2   -1    0    0    0  501 -0.00000000000E+00  0.00000000000E+00  0.18563051578E+03  0.18563051578E+03  0.00000000000E+00 0.  1.
          2   -1    0    0  501    0  0.00000000000E+00 -0.00000000000E+00 -0.11413721697E+03  0.11413721697E+03  0.00000000000E+00 0. -1.
         23    2    1    2    0    0 -0.25803223986E+02  0.90856957523E+02  0.16970141718E+02  0.15758655631E+03  0.12499897568E+03 0.  0.
          5    1    3    3  502    0 -0.63080506963E+01  0.14756251871E+02  0.63836274948E+02  0.65990139204E+02  0.47000000000E+01 0.  1.
         -5    1    3    3    0  502 -0.19495173289E+02  0.76100705652E+02 -0.46866133230E+02  0.91596417104E+02  0.47000000000E+01 0.  1.
        -11    1    1    2    0    0  0.26215493499E+01 -0.59646299956E+02  0.76874822471E+02  0.97335974590E+02  0.00000000000E+00 0.  1.
         11    1    1    2    0    0  0.23181674636E+02 -0.31210657567E+02 -0.22351665374E+02  0.44845201858E+02  0.00000000000E+00 0. -1.
<mgrwt>
<rscale>  0 0.14990475E+03</rscale>
<asrwt>0</asrwt>
<pdfrwt beam="2">  1        2 0.17559572E-01 0.15667015E+03</pdfrwt>
<pdfrwt beam="1">  1       -2 0.28558541E-01 0.15667015E+03</pdfrwt>
<totfact> 0.35003689E+03</totfact>
</mgrwt>
</event>
<event>
 7    1  0.5928109E-006  0.1496130E+03  0.7546771E-02  0.1209784E+00
          3   -1    0    0  501    0  0.00000000000E+00  0.00000000000E+00  0.10122516069E+03  0.10122516069E+03  0.00000000000E+00 0. -1.
         -3   -1    0    0    0  501 -0.00000000000E+00 -0.00000000000E+00 -0.19457444365E+03  0.19457444365E+03  0.00000000000E+00 0.  1.
         23    2    1    2    0    0 -0.14549756399E+02  0.80903695103E+02 -0.17357540085E+02  0.15061648275E+03  0.12500774930E+03 0.  0.
          5    1    3    3  502    0 -0.18832078917E+02 -0.53805497436E+01  0.41394994771E+02  0.46035129021E+02  0.47000000000E+01 0.  1.
         -5    1    3    3    0  502  0.42823225187E+01  0.86284244847E+02 -0.58752534856E+02  0.10458135373E+03  0.47000000000E+01 0.  1.
        -11    1    1    2    0    0  0.18005258705E+02 -0.47996609425E+02 -0.94325494808E+02  0.10735531113E+03  0.00000000000E+00 0.  1.
         11    1    1    2    0    0 -0.34555023065E+01 -0.32907085678E+02  0.18333751941E+02  0.37827810461E+02  0.00000000000E+00 0. -1.
<mgrwt>
<rscale>  0 0.14266762E+03</rscale>
<asrwt>0</asrwt>
<pdfrwt beam="1">  1        3 0.15573102E-01 0.14961297E+03</pdfrwt>
<pdfrwt beam="2">  1       -3 0.29934530E-01 0.14961297E+03</pdfrwt>
<totfact> 0.87867574E+02</totfact>
</mgrwt>
</event>
<event>
 7    1  0.5928109E-006  0.2432904E+03  0.7546771E-02  0.1120353E+00
          2   -1    0    0  501    0  0.00000000000E+00  0.00000000000E+00  0.51508909307E+03  0.51508909307E+03  0.00000000000E+00 0. -1.
         -2   -1    0    0    0  501 -0.00000000000E+00 -0.00000000000E+00 -0.10852255552E+03  0.10852255552E+03  0.00000000000E+00 0.  1.
         23    2    1    2    0    0  0.20598508787E+03 -0.33678419816E+02  0.24139575910E+03  0.34272747278E+03  0.12500446271E+03 0.  0.
          5    1    3    3  502    0  0.19166271464E+03 -0.65395968914E+02  0.22839032474E+03  0.30527931369E+03  0.47000000000E+01 0.  1.
         -5    1    3    3    0  502  0.14322373231E+02  0.31717549098E+02  0.13005434356E+02  0.37448159081E+02  0.47000000000E+01 0.  1.
        -11    1    1    2    0    0 -0.18821669641E+03  0.54628392436E+01  0.16009601826E+03  0.24715602862E+03  0.00000000000E+00 0.  1.
         11    1    1    2    0    0 -0.17768391460E+02  0.28215580572E+02  0.50747601953E+01  0.33728147194E+02  0.00000000000E+00 0. -1.
<mgrwt>
<rscale>  0 0.23916091E+03</rscale>
<asrwt>0</asrwt>
<pdfrwt beam="1">  1        2 0.79244474E-01 0.24329038E+03</pdfrwt>
<pdfrwt beam="2">  1       -2 0.16695778E-01 0.24329038E+03</pdfrwt>
<totfact> 0.17169056E+03</totfact>
</mgrwt>
</event>
<event>
 6    1  0.5928109E-006  0.1812483E+03  0.7546771E-02  0.1193794E+00
         -1   -1    0    0    0  501 -0.00000000000E+00  0.00000000000E+00  0.15304003772E+02  0.15304003772E+02  0.00000000000E+00 0.  1.
          1   -1    0    0  501    0  0.00000000000E+00 -0.00000000000E+00 -0.14184178758E+04  0.14184178758E+04  0.00000000000E+00 0. -1.
          5    1    1    2  502    0  0.43728986406E+02 -0.10426547652E+02 -0.93256839680E+03  0.93366313083E+03  0.47000000000E+01 0. -1.
         -5    1    1    2    0  502 -0.66259397064E+02 -0.22550192862E+02 -0.17329160079E+03  0.18695156539E+03  0.47000000000E+01 0.  1.
        -11    1    1    2    0    0  0.52547155287E+02  0.40884056773E+02 -0.18393920110E+03  0.19561784000E+03  0.00000000000E+00 0.  1.
         11    1    1    2    0    0 -0.30016744628E+02 -0.79073162592E+01 -0.11331467338E+03  0.11748934340E+03  0.00000000000E+00 0. -1.
<mgrwt>
<rscale>  0 0.15556750E+03</rscale>
<asrwt>0</asrwt>
<pdfrwt beam="2">  1        1 0.21821813E+00 0.18124835E+03</pdfrwt>
<pdfrwt beam="1">  1       -1 0.23544622E-02 0.18124835E+03</pdfrwt>
<totfact> 0.43415161E+03</totfact>
</mgrwt>
</event>
<event>
 7    1  0.5928109E-006  0.1763220E+03  0.7546771E-02  0.1176879E+00
         -2   -1    0    0    0  501 -0.00000000000E+00  0.00000000000E+00  0.26828406545E+02  0.26828406545E+02  0.00000000000E+00 0.  1.
          2   -1    0    0  501    0  0.00000000000E+00 -0.00000000000E+00 -0.10552621625E+04  0.10552621625E+04  0.00000000000E+00 0. -1.
         23    2    1    2    0    0  0.11919213101E+03  0.35458333139E+02 -0.63293780464E+03  0.65703858145E+03  0.12500150193E+03 0.  0.
          5    1    3    3  502    0  0.89201077882E+02 -0.58449926375E+01 -0.17819126455E+03  0.19941216862E+03  0.47000000000E+01 0. -1.
         -5    1    3    3    0  502  0.29991053130E+02  0.41303325777E+02 -0.45474654009E+03  0.45762641282E+03  0.47000000000E+01 0. -1.
        -11    1    1    2    0    0 -0.23158318187E+02 -0.51824799914E+02 -0.11777526635E+03  0.13074070120E+03  0.00000000000E+00 0.  1.
         11    1    1    2    0    0 -0.96033812825E+02  0.16366466774E+02 -0.27772068493E+03  0.29431128636E+03  0.00000000000E+00 0. -1.
<mgrwt>
<rscale>  0 0.17093208E+03</rscale>
<asrwt>0</asrwt>
<pdfrwt beam="2">  1        2 0.16234801E+00 0.17632196E+03</pdfrwt>
<pdfrwt beam="1">  1       -2 0.41274474E-02 0.17632196E+03</pdfrwt>
<totfact> 0.62642711E+03</totfact>
</mgrwt>
</event>
<event>
 7    1  0.5928109E-006  0.1886843E+03  0.7546771E-02  0.1164652E+00
          2   -1    0    0  501    0  0.00000000000E+00  0.00000000000E+00  0.10760472850E+04  0.10760472850E+04  0.00000000000E+00 0. -1.
         -2   -1    0    0    0  501 -0.00000000000E+00 -0.00000000000E+00 -0.30145850197E+02  0.30145850197E+02  0.00000000000E+00 0.  1.
         23    2    1    2    0    0  0.13562181907E+03 -0.39797536372E+02  0.62938073613E+03  0.65705546714E+03  0.12499861674E+03 0.  0.
          5    1    3    3  502    0  0.10670816977E+03  0.22390039202E+02  0.48525756169E+03  0.49737806398E+03  0.47000000000E+01 0. -1.
         -5    1    3    3    0  502  0.28913649304E+02 -0.62187575573E+02  0.14412317444E+03  0.15967740316E+03  0.47000000000E+01 0. -1.
        -11    1    1    2    0    0 -0.49601842070E+02  0.22318258858E+02  0.55929329087E+02  0.78016262838E+02  0.00000000000E+00 0.  1.
         11    1    1    2    0    0 -0.86019977000E+02  0.17479277514E+02  0.36059136955E+03  0.37112140517E+03  0.00000000000E+00 0. -1.
<mgrwt>
<rscale>  0 0.18329501E+03</rscale>
<asrwt>0</asrwt>
<pdfrwt beam="1">  1        2 0.16554571E+00 0.18868433E+03</pdfrwt>
<pdfrwt beam="2">  1       -2 0.46378239E-02 0.18868433E+03</pdfrwt>
<totfact> 0.51232341E+03</totfact>
</mgrwt>
</event>
<event>
 7    1  0.5928109E-006  0.3001272E+03  0.7546771E-02  0.1086727E+00
         -1   -1    0    0    0  501 -0.00000000000E+00  0.00000000000E+00  0.61248740022E+02  0.61248740022E+02  0.00000000000E+00 0.  1.
          1   -1    0    0  501    0  0.00000000000E+00 -0.00000000000E+00 -0.17121874250E+04  0.17121874250E+04  0.00000000000E+00 0. -1.
         23    2    1    2    0    0  0.13570949249E+03  0.23678862735E+03 -0.12108567811E+04  0.12474976965E+04  0.12486167491E+03 0.  0.
          5    1    3    3  502    0  0.61980973787E+02  0.20586072365E+03 -0.97435687626E+03  0.99780443523E+03  0.47000000000E+01 0.  1.
         -5    1    3    3    0  502  0.73728518702E+02  0.30927903698E+02 -0.23649990488E+03  0.24969326123E+03  0.47000000000E+01 0.  1.
        -11    1    1    2    0    0 -0.56725543320E+02 -0.17096050365E+03 -0.23085710673E+03  0.29281442041E+03  0.00000000000E+00 0.  1.
         11    1    1    2    0    0 -0.78983949170E+02 -0.65828123695E+02 -0.20922479706E+03  0.23312404809E+03  0.00000000000E+00 0. -1.
<mgrwt>
<rscale>  0 0.29704622E+03</rscale>
<asrwt>0</asrwt>
<pdfrwt beam="2">  1        1 0.26341342E+00 0.30012724E+03</pdfrwt>
<pdfrwt beam="1">  1       -1 0.94228841E-02 0.30012724E+03</pdfrwt>
<totfact> 0.34615349E+02</totfact>
</mgrwt>
</event>
<event>
 7    1  0.5928109E-006  0.1363873E+03  0.7546771E-02  0.1230382E+00
          2   -1    0    0  501    0  0.00000000000E+00  0.00000000000E+00  0.12327160581E+03  0.12327160581E+03  0.00000000000E+00 0. -1.
         -2   -1    0    0    0  501 -0.00000000000E+00 -0.00000000000E+00 -0.21280613766E+03  0.21280613766E+03  0.00000000000E+00 0.  1.
         23    2    1    2    0    0  0.54435986825E+02 -0.41252611883E+01  0.63091569672E+02  0.15027324426E+03  0.12498482842E+03 0.  0.
          5    1    3    3  502    0  0.60374016535E+02  0.80106125060E+01  0.96342828466E+02  0.11407551175E+03  0.47000000000E+01 0. -1.
         -5    1    3    3    0  502 -0.59380297098E+01 -0.12135873694E+02 -0.33251258794E+02  0.36197732505E+02  0.47000000000E+01 0. -1.
        -11    1    1    2    0    0  0.17554392867E+01 -0.35817621836E+02 -0.39710108407E+02  0.53505853051E+02  0.00000000000E+00 0. -1.
         11    1    1    2    0    0 -0.56191426112E+02  0.39942883024E+02 -0.11291599312E+03  0.13229864615E+03  0.00000000000E+00 0.  1.
<mgrwt>
<rscale>  0 0.12804751E+03</rscale>
<asrwt>0</asrwt>
<pdfrwt beam="1">  1        2 0.18964863E-01 0.13638732E+03</pdfrwt>
<pdfrwt beam="2">  1       -2 0.32739406E-01 0.13638732E+03</pdfrwt>
<totfact> 0.24858079E+03</totfact>
</mgrwt>
</event>
<event>
 7    1  0.5928109E-006  0.1697298E+03  0.7546771E-02  0.1184630E+00
          1   -1    0    0  501    0  0.00000000000E+00  0.00000000000E+00  0.55389597881E+02  0.55389597881E+02  0.00000000000E+00 0.  1.
         -1   -1    0    0    0  501 -0.00000000000E+00 -0.00000000000E+00 -0.45245324466E+03  0.45245324466E+03  0.00000000000E+00 0. -1.
         23    2    1    2    0    0  0.61332689530E+02 -0.97067205440E+02 -0.22142490686E+03  0.27899316916E+03  0.12499783151E+03 0.  0.
          5    1    3    3  502    0 -0.71857812008E+01  0.16634123975E+02  0.22439922915E+01  0.18853515144E+02  0.47000000000E+01 0. -1.
         -5    1    3    3    0  502  0.68518470731E+02 -0.11370132942E+03 -0.22366889915E+03  0.26013965401E+03  0.47000000000E+01 0. -1.
        -11    1    1    2    0    0  0.13790111024E+02  0.88515513347E+01 -0.70535724903E+02  0.72414125768E+02  0.00000000000E+00 0. -1.
         11    1    1    2    0    0 -0.75122800553E+02  0.88215654106E+02 -0.10510301501E+03  0.15643554761E+03  0.00000000000E+00 0.  1.
<mgrwt>
<rscale>  0 0.16365599E+03</rscale>
<asrwt>0</asrwt>
<pdfrwt beam="1">  1        1 0.85214765E-02 0.16972978E+03</pdfrwt>
<pdfrwt beam="2">  1       -1 0.69608193E-01 0.16972978E+03</pdfrwt>
<totfact> 0.17005728E+03</totfact>
</mgrwt>
</event>
<event>
 7    1  0.5928109E-006  0.1342677E+03  0.7546771E-02  0.1235832E+00
          2   -1    0    0  501    0  0.00000000000E+00  0.00000000000E+00  0.19788075642E+03  0.19788075642E+03  0.00000000000E+00 0. -1.
         -2   -1    0    0    0  501 -0.00000000000E+00 -0.00000000000E+00 -0.71202824529E+02  0.71202824529E+02  0.00000000000E+00 0.  1.
         23    2    1    2    0    0  0.13909436932E+02 -0.46997455507E+02  0.96333974076E+02  0.16525143642E+03  0.12500227766E+03 0.  0.
          5    1    3    3  502    0  0.60647797020E+02 -0.56532663213E+01  0.15502572602E+02  0.63028045034E+02  0.47000000000E+01 0.  1.
         -5    1    3    3    0  502 -0.46738360087E+02 -0.41344189186E+02  0.80831401474E+02  0.10222339139E+03  0.47000000000E+01 0.  1.
        -11    1    1    2    0    0  0.11770929229E+02  0.31313896634E+02  0.55372180673E+02  0.64693069875E+02  0.00000000000E+00 0. -1.
         11    1    1    2    0    0 -0.25680366162E+02  0.15683558873E+02 -0.25028222857E+02  0.39139074651E+02  0.00000000000E+00 0.  1.
<mgrwt>
<rscale>  0 0.12451313E+03</rscale>
<asrwt>0</asrwt>
<pdfrwt beam="1">  1        2 0.30443193E-01 0.13426765E+03</pdfrwt>
<pdfrwt beam="2">  1       -2 0.10954281E-01 0.13426765E+03</pdfrwt>
<totfact> 0.93296748E+03</totfact>
</mgrwt>
</event>
<event>
 7    1  0.5928109E-006  0.1403793E+03  0.7546771E-02  0.1224345E+00
         -2   -1    0    0    0  501 -0.00000000000E+00  0.00000000000E+00  0.14525151332E+02  0.14525151332E+02  0.00000000000E+00 0.  1.
          2   -1    0    0  501    0  0.00000000000E+00 -0.00000000000E+00 -0.10880773704E+04  0.10880773704E+04  0.00000000000E+00 0. -1.
         23    2    1    2    0    0 -0.11221987190E+02  0.62892169970E+02 -0.64764265723E+03  0.66268194530E+03  0.12499996450E+03 0.  0.
          5    1    3    3  502    0 -0.26325249495E+02 -0.29632269388E+02 -0.11253953089E+03  0.11940823322E+03  0.47000000000E+01 0. -1.
         -5    1    3    3    0  502  0.15103262305E+02  0.92524439358E+02 -0.53510312635E+03  0.54327371208E+03  0.47000000000E+01 0. -1.
        -11    1    1    2    0    0 -0.26677556506E+02  0.92472151766E+01 -0.93627480321E+02  0.97792167789E+02  0.00000000000E+00 0.  1.
         11    1    1    2    0    0  0.37899543696E+02 -0.72139385147E+02 -0.33228208155E+03  0.34212840867E+03  0.00000000000E+00 0. -1.
<mgrwt>
<rscale>  0 0.13211895E+03</rscale>
<asrwt>0</asrwt>
<pdfrwt beam="2">  1        2 0.16739653E+00 0.14037930E+03</pdfrwt>
<pdfrwt beam="1">  1       -2 0.22346385E-02 0.14037930E+03</pdfrwt>
<totfact> 0.14666345E+04</totfact>
</mgrwt>
</event>
<event>
 7    1  0.5928109E-006  0.1492588E+03  0.7546771E-02  0.1210142E+00
          2   -1    0    0  501    0  0.00000000000E+00  0.00000000000E+00  0.12613629763E+03  0.12613629763E+03  0.00000000000E+00 0. -1.
         -2   -1    0    0    0  501 -0.00000000000E+00 -0.00000000000E+00 -0.25960289338E+03  0.25960289338E+03  0.00000000000E+00 0.  1.
         23    2    1    2    0    0 -0.79713840808E+02 -0.17317929561E+02  0.56068369151E+02  0.15944228611E+03  0.12499589386E+03 0.  0.
          5    1    3    3  502    0 -0.17145554204E+02 -0.48262836479E+02  0.71229519202E+02  0.87857872839E+02  0.47000000000E+01 0.  1.
         -5    1    3    3    0  502 -0.62568286604E+02  0.30944906918E+02 -0.15161150052E+02  0.71584413273E+02  0.47000000000E+01 0.  1.
        -11    1    1    2    0    0  0.31017221652E+02 -0.21935037644E+02 -0.14914409160E+02  0.40812418650E+02  0.00000000000E+00 0. -1.
         11    1    1    2    0    0  0.48696619156E+02  0.39252967204E+02 -0.17462055574E+03  0.18548448625E+03  0.00000000000E+00 0.  1.
<mgrwt>
<rscale>  0 0.14239489E+03</rscale>
<asrwt>0</asrwt>
<pdfrwt beam="1">  1        2 0.19405584E-01 0.14925877E+03</pdfrwt>
<pdfrwt beam="2">  1       -2 0.39938906E-01 0.14925877E+03</pdfrwt>
<totfact> 0.16800249E+03</totfact>
</mgrwt>
</event>
<event>
 7    1  0.5928109E-006  0.1260812E+03  0.7546771E-02  0.1249133E+00
          2   -1    0    0  501    0  0.00000000000E+00  0.00000000000E+00  0.51773103038E+03  0.51773103038E+03  0.00000000000E+00 0. -1.
         -2   -1    0    0    0  501 -0.00000000000E+00 -0.00000000000E+00 -0.31309320595E+02  0.31309320595E+02  0.00000000000E+00 0.  1.
         23    2    1    2    0    0  0.12535571691E+02 -0.10671910699E+02  0.41239833419E+03  0.43124105515E+03  0.12500172545E+03 0.  0.
          5    1    3    3  502    0 -0.29351019353E+00  0.35739438505E+02  0.33322894244E+02  0.49090721055E+02  0.47000000000E+01 0.  1.
         -5    1    3    3    0  502  0.12829081884E+02 -0.46411349204E+02  0.37907543995E+03  0.38215033410E+03  0.47000000000E+01 0.  1.
        -11    1    1    2    0    0  0.25878186435E+02  0.21138978966E+02 -0.37581910849E+00  0.33416735402E+02  0.00000000000E+00 0.  1.
         11    1    1    2    0    0 -0.38413758126E+02 -0.10467068267E+02  0.74399194703E+02  0.84382560425E+02  0.00000000000E+00 0. -1.
<mgrwt>
<rscale>  0 0.11641383E+03</rscale>
<asrwt>0</asrwt>
<pdfrwt beam="1">  1        2 0.79650921E-01 0.12608117E+03</pdfrwt>
<pdfrwt beam="2">  1       -2 0.48168189E-02 0.12608117E+03</pdfrwt>
<totfact> 0.11718921E+04</totfact>
</mgrwt>
</event>
<event>
 7    1  0.5928109E-006  0.1351396E+03  0.7546771E-02  0.1234242E+00
          1   -1    0    0  501    0  0.00000000000E+00  0.00000000000E+00  0.38211333793E+02  0.38211333793E+02  0.00000000000E+00 0. -1.
         -1   -1    0    0    0  501 -0.00000000000E+00 -0.00000000000E+00 -0.38358562173E+03  0.38358562173E+03  0.00000000000E+00 0.  1.
         23    2    1    2    0    0 -0.39935886834E+02 -0.32309711479E+02 -0.14904988310E+03  0.20119286374E+03  0.12499563294E+03 0.  0.
          5    1    3    3  502    0  0.41848832589E+00  0.35870054186E+02 -0.10359641142E+03  0.10973213923E+03  0.47000000000E+01 0.  1.
         -5    1    3    3    0  502 -0.40354375159E+02 -0.68179765665E+02 -0.45453471683E+02  0.91460724515E+02  0.47000000000E+01 0.  1.
        -11    1    1    2    0    0 -0.18683570658E+02 -0.16033229329E+02 -0.46681598942E+02  0.52776054561E+02  0.00000000000E+00 0. -1.
         11    1    1    2    0    0  0.58619457491E+02  0.48342940809E+02 -0.14964280589E+03  0.16782803722E+03  0.00000000000E+00 0.  1.
<mgrwt>
<rscale>  0 0.12553070E+03</rscale>
<asrwt>0</asrwt>
<pdfrwt beam="1">  1        1 0.58786667E-02 0.13513956E+03</pdfrwt>
<pdfrwt beam="2">  1       -1 0.59013173E-01 0.13513956E+03</pdfrwt>
<totfact> 0.38256235E+03</totfact>
</mgrwt>
</event>
<event>
 7    1  0.5928109E-006  0.1309397E+03  0.7546771E-02  0.1249591E+00
         -2   -1    0    0    0  501 -0.00000000000E+00  0.00000000000E+00  0.14786639098E+02  0.14786639098E+02  0.00000000000E+00 0.  1.
          2   -1    0    0  501    0  0.00000000000E+00 -0.00000000000E+00 -0.99554953527E+03  0.99554953527E+03  0.00000000000E+00 0. -1.
         23    2    1    2    0    0  0.25689733698E+02  0.29316891743E+02 -0.81897090407E+03  0.82937238676E+03  0.12500308652E+03 0.  0.
          5    1    3    3  502    0  0.16367268982E+02  0.56794490942E+02 -0.76983867749E+03  0.77211863147E+03  0.47000000000E+01 0. -1.
         -5    1    3    3    0  502  0.93224647160E+01 -0.27477599199E+02 -0.49132226582E+02  0.57253755292E+02  0.47000000000E+01 0. -1.
        -11    1    1    2    0    0  0.10448706610E+02 -0.22992394978E+02 -0.12996111527E+03  0.13239228519E+03  0.00000000000E+00 0. -1.
         11    1    1    2    0    0 -0.36138440307E+02 -0.63244967649E+01 -0.31830876827E+02  0.48571502414E+02  0.00000000000E+00 0.  1.
<mgrwt>
<rscale>  0 0.11614741E+03</rscale>
<asrwt>0</asrwt>
<pdfrwt beam="2">  1        2 0.15316151E+00 0.13093973E+03</pdfrwt>
<pdfrwt beam="1">  1       -2 0.22748670E-02 0.13093973E+03</pdfrwt>
<totfact> 0.16118394E+04</totfact>
</mgrwt>
</event>
<event>
 7    1  0.5928109E-006  0.1817163E+03  0.7546771E-02  0.1171132E+00
         -2   -1    0    0    0  501 -0.00000000000E+00  0.00000000000E+00  0.70928398754E+02  0.70928398754E+02  0.00000000000E+00 0.  1.
          2   -1    0    0  501    0  0.00000000000E+00 -0.00000000000E+00 -0.41726085026E+03  0.41726085026E+03  0.00000000000E+00 0. -1.
         23    2    1    2    0    0  0.10358552908E+03 -0.81646436114E+02 -0.19219054492E+03  0.26449580087E+03  0.12499888302E+03 0.  0.
          5    1    3    3  502    0 -0.20255612387E+02 -0.82198353032E+01 -0.76619589563E+02  0.79815456087E+02  0.47000000000E+01 0. -1.
         -5    1    3    3    0  502  0.12384114146E+03 -0.73426600811E+02 -0.11557095536E+03  0.18468034478E+03  0.47000000000E+01 0. -1.
        -11    1    1    2    0    0 -0.53027969704E+02  0.95877697253E+02 -0.10251386474E+03  0.15004529604E+03  0.00000000000E+00 0.  1.
         11    1    1    2    0    0 -0.50557559374E+02 -0.14231261139E+02 -0.51628041850E+02  0.73648152106E+02  0.00000000000E+00 0. -1.
<mgrwt>
<rscale>  0 0.17660241E+03</rscale>
<asrwt>0</asrwt>
<pdfrwt beam="2">  1        2 0.64193975E-01 0.18171633E+03</pdfrwt>
<pdfrwt beam="1">  1       -2 0.10912062E-01 0.18171633E+03</pdfrwt>
<totfact> 0.42998394E+03</totfact>
</mgrwt>
</event>
<event>
 7    1  0.5928109E-006  0.1300238E+03  0.7546771E-02  0.1237168E+00
         -1   -1    0    0    0  501 -0.00000000000E+00  0.00000000000E+00  0.30505270403E+03  0.30505270403E+03  0.00000000000E+00 0.  1.
          1   -1    0    0  501    0  0.00000000000E+00 -0.00000000000E+00 -0.51577397761E+02  0.51577397761E+02  0.00000000000E+00 0. -1.
         23    2    1    2    0    0 -0.30433667232E+02 -0.18818867293E+02  0.78613752344E+02  0.15194178130E+03  0.12500329987E+03 0.  0.
          5    1    3    3  502    0 -0.14884688335E+02 -0.30027407497E+02  0.10987687788E+03  0.11497050682E+03  0.47000000000E+01 0.  1.
         -5    1    3    3    0  502 -0.15548978896E+02  0.11208540204E+02 -0.31263125531E+02  0.36971274473E+02  0.47000000000E+01 0.  1.
        -11    1    1    2    0    0 -0.33529572141E+02  0.21083895343E+02  0.90564739037E+02  0.98847027308E+02  0.00000000000E+00 0. -1.
         11    1    1    2    0    0  0.63963239372E+02 -0.22650280495E+01  0.84296814891E+02  0.10584129319E+03  0.00000000000E+00 0.  1.
<mgrwt>
<rscale>  0 0.12366633E+03</rscale>
<asrwt>0</asrwt>
<pdfrwt beam="2">  1        1 0.79349845E-02 0.13002378E+03</pdfrwt>
<pdfrwt beam="1">  1       -1 0.46931184E-01 0.13002378E+03</pdfrwt>
<totfact> 0.38846151E+03</totfact>
</mgrwt>
</event>
<event>
 7    1  0.5928109E-006  0.1267423E+03  0.7546771E-02  0.1247802E+00
         -2   -1    0    0    0  501 -0.00000000000E+00  0.00000000000E+00  0.17337063233E+02  0.17337063233E+02  0.00000000000E+00 0.  1.
          2   -1    0    0  501    0  0.00000000000E+00 -0.00000000000E+00 -0.72272173640E+03  0.72272173640E+03  0.00000000000E+00 0. -1.
         23    2    1    2    0    0  0.16471894917E+02 -0.12826345740E+02 -0.47816919000E+03  0.49468110216E+03  0.12501111993E+03 0.  0.
          5    1    3    3  502    0 -0.28322221151E+02  0.45456605332E+01 -0.23288049390E+02  0.37245596854E+02  0.47000000000E+01 0. -1.
         -5    1    3    3    0  502  0.44794116069E+02 -0.17372006273E+02 -0.45488114061E+03  0.45743550531E+03  0.47000000000E+01 0. -1.
        -11    1    1    2    0    0 -0.49335300077E+02  0.11273703759E+02 -0.18533412485E+03  0.19211924959E+03  0.00000000000E+00 0. -1.
         11    1    1    2    0    0  0.32863405160E+02  0.15526419813E+01 -0.41881358323E+02  0.53258447882E+02  0.00000000000E+00 0.  1.
<mgrwt>
<rscale>  0 0.11719209E+03</rscale>
<asrwt>0</asrwt>
<pdfrwt beam="2">  1        2 0.11118794E+00 0.12674233E+03</pdfrwt>
<pdfrwt beam="1">  1       -2 0.26672410E-02 0.12674233E+03</pdfrwt>
<totfact> 0.19175411E+04</totfact>
</mgrwt>
</event>
<event>
 7    1  0.5928109E-006  0.1511292E+03  0.7546771E-02  0.1208174E+00
          1   -1    0    0  501    0  0.00000000000E+00  0.00000000000E+00  0.13889764833E+03  0.13889764833E+03  0.00000000000E+00 0. -1.
         -1   -1    0    0    0  501 -0.00000000000E+00 -0.00000000000E+00 -0.21859475169E+03  0.21859475169E+03  0.00000000000E+00 0.  1.
         23    2    1    2    0    0  0.54901762428E+02 -0.64781508220E+02  0.66956012651E+02  0.16529715410E+03  0.12501677566E+03 0.  0.
          5    1    3    3  502    0  0.42695598955E+02  0.31082313387E+02  0.34456439725E+02  0.63232591392E+02  0.47000000000E+01 0.  1.
         -5    1    3    3    0  502  0.12206163473E+02 -0.95863821607E+02  0.32499572926E+02  0.10206456271E+03  0.47000000000E+01 0.  1.
        -11    1    1    2    0    0  0.22582292607E+02  0.32771337818E+02 -0.38702574711E+02  0.55514050573E+02  0.00000000000E+00 0.  1.
         11    1    1    2    0    0 -0.77484055035E+02  0.32010170402E+02 -0.10795054130E+03  0.13668119534E+03  0.00000000000E+00 0. -1.
<mgrwt>
<rscale>  0 0.14390095E+03</rscale>
<asrwt>0</asrwt>
<pdfrwt beam="1">  1        1 0.21368869E-01 0.15112922E+03</pdfrwt>
<pdfrwt beam="2">  1       -1 0.33629962E-01 0.15112922E+03</pdfrwt>
<totfact> 0.19244191E+03</totfact>
</mgrwt>
</event>
<event>
 7    1  0.5928109E-006  0.1519066E+03  0.7546771E-02  0.1206948E+00
          1   -1    0    0  501    0  0.00000000000E+00  0.00000000000E+00  0.51326099070E+02  0.51326099070E+02  0.00000000000E+00 0. -1.
         -1   -1    0    0    0  501 -0.00000000000E+00 -0.00000000000E+00 -0.37722479901E+03  0.37722479901E+03  0.00000000000E+00 0.  1.
         23    2    1    2    0    0 -0.86295675846E+02 -0.18406674088E+01 -0.16216986955E+03  0.22220414358E+03  0.12500113242E+03 0.  0.
          5    1    3    3  502    0 -0.60399998951E+02 -0.61724689085E+02 -0.93328400454E+02  0.12724141404E+03  0.47000000000E+01 0. -1.
         -5    1    3    3    0  502 -0.25895676894E+02  0.59884021676E+02 -0.68841469100E+02  0.94962729540E+02  0.47000000000E+01 0. -1.
        -11    1    1    2    0    0  0.32617519333E+02  0.13067839044E+02 -0.14374826934E+03  0.14798052549E+03  0.00000000000E+00 0.  1.
         11    1    1    2    0    0  0.53678156512E+02 -0.11227171635E+02 -0.19980561046E+02  0.58366229013E+02  0.00000000000E+00 0. -1.
<mgrwt>
<rscale>  0 0.14484977E+03</rscale>
<asrwt>0</asrwt>
<pdfrwt beam="1">  1        1 0.78963231E-02 0.15190660E+03</pdfrwt>
<pdfrwt beam="2">  1       -1 0.58034583E-01 0.15190660E+03</pdfrwt>
<totfact> 0.26660730E+03</totfact>
</mgrwt>
</event>
<event>
 7    1  0.5928109E-006  0.1974621E+03  0.7546771E-02  0.1156289E+00
          1   -1    0    0  501    0  0.00000000000E+00  0.00000000000E+00  0.62472813617E+03  0.62472813617E+03  0.00000000000E+00 0. -1.
         -1   -1    0    0    0  501 -0.00000000000E+00 -0.00000000000E+00 -0.59203997428E+02  0.59203997428E+02  0.00000000000E+00 0.  1.
         23    2    1    2    0    0  0.86294473713E+02  0.12618294050E+03  0.37047607485E+03  0.41981402270E+03  0.12498968337E+03 0.  0.
          5    1    3    3  502    0  0.20100740381E+02  0.12248614322E+02 -0.25813663788E+01  0.24141701867E+02  0.47000000000E+01 0.  1.
         -5    1    3    3    0  502  0.66193733332E+02  0.11393432618E+03  0.37305744123E+03  0.39567232083E+03  0.47000000000E+01 0.  1.
        -11    1    1    2    0    0 -0.10420932887E+03 -0.10880425112E+03  0.14988417166E+03  0.21251638572E+03  0.00000000000E+00 0. -1.
         11    1    1    2    0    0  0.17914855159E+02 -0.17378689382E+02  0.45163892220E+02  0.51601725170E+02  0.00000000000E+00 0.  1.
<mgrwt>
<rscale>  0 0.19242891E+03</rscale>
<asrwt>0</asrwt>
<pdfrwt beam="1">  1        1 0.96112016E-01 0.19746213E+03</pdfrwt>
<pdfrwt beam="2">  1       -1 0.91083077E-02 0.19746213E+03</pdfrwt>
<totfact> 0.23217578E+03</totfact>
</mgrwt>
</event>
<event>
 7    1  0.5928109E-006  0.1296857E+03  0.7546771E-02  0.1242597E+00
         -1   -1    0    0    0  501 -0.00000000000E+00  0.00000000000E+00  0.12676850598E+03  0.12676850598E+03  0.00000000000E+00 0.  1.
          1   -1    0    0  501    0  0.00000000000E+00 -0.00000000000E+00 -0.11343143311E+03  0.11343143311E+03  0.00000000000E+00 0. -1.
         23    2    1    2    0    0 -0.34199105598E+02  0.49206069767E+01 -0.32632906643E+02  0.13372841642E+03  0.12499836625E+03 0.  0.
          5    1    3    3  502    0 -0.66531848151E+01  0.12315802999E+02  0.46866174369E+02  0.49137278839E+02  0.47000000000E+01 0. -1.
         -5    1    3    3    0  502 -0.27545920783E+02 -0.73951960227E+01 -0.79499081012E+02  0.84591137584E+02  0.47000000000E+01 0. -1.
        -11    1    1    2    0    0 -0.96079087330E+01 -0.35203051304E+02  0.37894948603E+02  0.52607925838E+02  0.00000000000E+00 0.  1.
         11    1    1    2    0    0  0.43807014331E+02  0.30282444327E+02  0.80750309121E+01  0.53863596828E+02  0.00000000000E+00 0. -1.
<mgrwt>
<rscale>  0 0.12030337E+03</rscale>
<asrwt>0</asrwt>
<pdfrwt beam="2">  1        1 0.17450990E-01 0.12968571E+03</pdfrwt>
<pdfrwt beam="1">  1       -1 0.19502847E-01 0.12968571E+03</pdfrwt>
<totfact> 0.60761791E+03</totfact>
</mgrwt>
</event>
<event>
 7    1  0.5928109E-006  0.1274369E+03  0.7546771E-02  0.1245297E+00
          3   -1    0    0  501    0  0.00000000000E+00  0.00000000000E+00  0.15411935864E+03  0.15411935864E+03  0.00000000000E+00 0. -1.
         -3   -1    0    0    0  501 -0.00000000000E+00 -0.00000000000E+00 -0.82037790172E+02  0.82037790172E+02  0.00000000000E+00 0.  1.
         23    2    1    2    0    0  0.24485303497E+02 -0.39162640034E+01  0.55013308776E+02  0.13880426309E+03  0.12500116839E+03 0.  0.
          5    1    3    3  502    0 -0.20608436616E+02  0.46427796328E+02  0.49088662179E+02  0.70795725056E+02  0.47000000000E+01 0.  1.
         -5    1    3    3    0  502  0.45093740113E+02 -0.50344060331E+02  0.59246465965E+01  0.68008538032E+02  0.47000000000E+01 0.  1.
        -11    1    1    2    0    0  0.42149329703E+01  0.37328912357E+02 -0.17421875419E+02  0.41409360063E+02  0.00000000000E+00 0.  1.
         11    1    1    2    0    0 -0.28700236467E+02 -0.33412648353E+02  0.34490135110E+02  0.55943525659E+02  0.00000000000E+00 0. -1.
<mgrwt>
<rscale>  0 0.11867622E+03</rscale>
<asrwt>0</asrwt>
<pdfrwt beam="1">  1        3 0.23710671E-01 0.12743688E+03</pdfrwt>
<pdfrwt beam="2">  1       -3 0.12621198E-01 0.12743688E+03</pdfrwt>
<totfact> 0.18715600E+03</totfact>
</mgrwt>
</event>
<event>
 7    1  0.5928109E-006  0.1366204E+03  0.7546771E-02  0.1230994E+00
          1   -1    0    0  501    0  0.00000000000E+00  0.00000000000E+00  0.56185157630E+03  0.56185157630E+03  0.00000000000E+00 0. -1.
         -1   -1    0    0    0  501 -0.00000000000E+00 -0.00000000000E+00 -0.25856644467E+02  0.25856644467E+02  0.00000000000E+00 0.  1.
         23    2    1    2    0    0 -0.14960164367E+02  0.53074078275E+02  0.28866149396E+03  0.31935965745E+03  0.12499787360E+03 0.  0.
          5    1    3    3  502    0  0.14631490385E+02 -0.37836948243E+02  0.82032025487E+02  0.91635464580E+02  0.47000000000E+01 0.  1.
         -5    1    3    3    0  502 -0.29591654752E+02  0.90911026519E+02  0.20662946848E+03  0.22772419287E+03  0.47000000000E+01 0.  1.
        -11    1    1    2    0    0 -0.57324594288E+01 -0.74026229760E+02  0.16599602615E+03  0.18184450633E+03  0.00000000000E+00 0. -1.
         11    1    1    2    0    0  0.20692623796E+02  0.20952151484E+02  0.81337411724E+02  0.86504057000E+02  0.00000000000E+00 0.  1.
<mgrwt>
<rscale>  0 0.12764415E+03</rscale>
<asrwt>0</asrwt>
<pdfrwt beam="1">  1        1 0.86438695E-01 0.13662040E+03</pdfrwt>
<pdfrwt beam="2">  1       -1 0.39779457E-02 0.13662040E+03</pdfrwt>
<totfact> 0.91354768E+03</totfact>
</mgrwt>
</event>
<event>
 7    1  0.5928109E-006  0.1445449E+03  0.7546771E-02  0.1218669E+00
          2   -1    0    0  501    0  0.00000000000E+00  0.00000000000E+00  0.15685016965E+03  0.15685016965E+03  0.00000000000E+00 0. -1.
         -2   -1    0    0    0  501 -0.00000000000E+00 -0.00000000000E+00 -0.10635931165E+03  0.10635931165E+03  0.00000000000E+00 0.  1.
         23    2    1    2    0    0 -0.71430678654E+02  0.12865844952E+02  0.32717497588E+02  0.14820141590E+03  0.12500141282E+03 0.  0.
          5    1    3    3  502    0 -0.12419477525E+02 -0.22562930762E+02 -0.40101371141E+02  0.47890909722E+02  0.47000000000E+01 0. -1.
         -5    1    3    3    0  502 -0.59011201129E+02  0.35428775714E+02  0.72818868729E+02  0.10031050618E+03  0.47000000000E+01 0. -1.
        -11    1    1    2    0    0 -0.16590858854E+02 -0.18885199397E+02  0.72080108476E+00  0.25148099490E+02  0.00000000000E+00 0.  1.
         11    1    1    2    0    0  0.88021537508E+02  0.60193544450E+01  0.17052559323E+02  0.89859965906E+02  0.00000000000E+00 0. -1.
<mgrwt>
<rscale>  0 0.13610431E+03</rscale>
<asrwt>0</asrwt>
<pdfrwt beam="1">  1        2 0.24130795E-01 0.14454489E+03</pdfrwt>
<pdfrwt beam="2">  1       -2 0.16362971E-01 0.14454489E+03</pdfrwt>
<totfact> 0.63237202E+03</totfact>
</mgrwt>
</event>
<event>
 7    1  0.5928109E-006  0.1627289E+03  0.7546771E-02  0.1192465E+00
         -2   -1    0    0    0  501 -0.00000000000E+00  0.00000000000E+00  0.90410546454E+02  0.90410546454E+02  0.00000000000E+00 0.  1.
          2   -1    0    0  501    0  0.00000000000E+00 -0.00000000000E+00 -0.29153829503E+03  0.29153829503E+03  0.00000000000E+00 0. -1.
         23    2    1    2    0    0 -0.78776986427E+02  0.68191060222E+02 -0.17611421321E+03  0.23978513657E+03  0.12499944536E+03 0.  0.
          5    1    3    3  502    0 -0.63332070019E+02  0.54291453843E+02 -0.19447403219E+03  0.21166188190E+03  0.47000000000E+01 0.  1.
         -5    1    3    3    0  502 -0.15444916408E+02  0.13899606379E+02  0.18359818979E+02  0.28123254671E+02  0.47000000000E+01 0.  1.
        -11    1    1    2    0    0  0.29782376230E+02 -0.32699943026E+02 -0.58247914723E+02  0.73137512792E+02  0.00000000000E+00 0. -1.
         11    1    1    2    0    0  0.48994610198E+02 -0.35491117196E+02  0.33234379354E+02  0.69026192125E+02  0.00000000000E+00 0.  1.
<mgrwt>
<rscale>  0 0.15670705E+03</rscale>
<asrwt>0</asrwt>
<pdfrwt beam="2">  1        2 0.44852044E-01 0.16272890E+03</pdfrwt>
<pdfrwt beam="1">  1       -2 0.13909315E-01 0.16272890E+03</pdfrwt>
<totfact> 0.42500322E+03</totfact>
</mgrwt>
</event>
<event>
 7    1  0.5928109E-006  0.1302449E+03  0.7546771E-02  0.1241578E+00
         -1   -1    0    0    0  501 -0.00000000000E+00  0.00000000000E+00  0.54343900993E+02  0.54343900993E+02  0.00000000000E+00 0.  1.
          1   -1    0    0  501    0  0.00000000000E+00 -0.00000000000E+00 -0.55180452320E+03  0.55180452320E+03  0.00000000000E+00 0. -1.
         23    2    1    2    0    0  0.17191510829E+01 -0.36544325337E+02 -0.49229203955E+03  0.50923000053E+03  0.12500119214E+03 0.  0.
          5    1    3    3  502    0 -0.26299836131E+02 -0.38460500073E+02 -0.47187191462E+03  0.47418992529E+03  0.47000000000E+01 0. -1.
         -5    1    3    3    0  502  0.28018987214E+02  0.19161747360E+01 -0.20420124937E+02  0.35040075236E+02  0.47000000000E+01 0. -1.
        -11    1    1    2    0    0  0.29553853269E+02 -0.13486206079E+02 -0.17118585949E+02  0.36719939847E+02  0.00000000000E+00 0.  1.
         11    1    1    2    0    0 -0.31273004352E+02  0.50030531415E+02  0.11950003297E+02  0.60198483815E+02  0.00000000000E+00 0. -1.
<mgrwt>
<rscale>  0 0.12092542E+03</rscale>
<asrwt>0</asrwt>
<pdfrwt beam="2">  1        1 0.84893002E-01 0.13024493E+03</pdfrwt>
<pdfrwt beam="1">  1       -1 0.83606003E-02 0.13024493E+03</pdfrwt>
<totfact> 0.30923211E+03</totfact>
</mgrwt>
</event>
<event>
 7    1  0.5928109E-006  0.1396523E+03  0.7546771E-02  0.1224815E+00
         -1   -1    0    0    0  501 -0.00000000000E+00  0.00000000000E+00  0.21523188132E+03  0.21523188132E+03  0.00000000000E+00 0.  1.
          1   -1    0    0  501    0  0.00000000000E+00 -0.00000000000E+00 -0.73041558065E+02  0.73041558065E+02  0.00000000000E+00 0. -1.
         23    2    1    2    0    0 -0.24997072190E+02  0.57021766172E+02  0.86635696748E+02  0.16434265262E+03  0.12500571221E+03 0.  0.
          5    1    3    3  502    0 -0.73157138844E+01  0.83892920905E+01  0.10762673208E+03  0.10830283168E+03  0.47000000000E+01 0. -1.
         -5    1    3    3    0  502 -0.17681358306E+02  0.48632474082E+02 -0.20991035333E+02  0.56039820942E+02  0.47000000000E+01 0. -1.
        -11    1    1    2    0    0 -0.95960949631E+01 -0.28917359613E+02  0.70596295873E+02  0.76890413684E+02  0.00000000000E+00 0.  1.
         11    1    1    2    0    0  0.34593167153E+02 -0.28104406560E+02 -0.15041669369E+02  0.47040373076E+02  0.00000000000E+00 0. -1.
<mgrwt>
<rscale>  0 0.13179617E+03</rscale>
<asrwt>0</asrwt>
<pdfrwt beam="2">  1        1 0.11237163E-01 0.13965230E+03</pdfrwt>
<pdfrwt beam="1">  1       -1 0.33112597E-01 0.13965230E+03</pdfrwt>
<totfact> 0.45223607E+03</totfact>
</mgrwt>
</event>
<event>
 7    1  0.5928109E-006  0.1251587E+03  0.7546771E-02  0.1250672E+00
         -1   -1    0    0    0  501 -0.00000000000E+00  0.00000000000E+00  0.20956134094E+02  0.20956134094E+02  0.00000000000E+00 0.  1.
          1   -1    0    0  501    0  0.00000000000E+00 -0.00000000000E+00 -0.66849931368E+03  0.66849931368E+03  0.00000000000E+00 0. -1.
         23    2    1    2    0    0  0.59178279262E+01  0.22990701562E+01 -0.50615433571E+03  0.52139899221E+03  0.12499756438E+03 0.  0.
          5    1    3    3  502    0 -0.15224729010E+02 -0.11423305582E+02 -0.58802662195E+01  0.20468312453E+02  0.47000000000E+01 0.  1.
         -5    1    3    3    0  502  0.21142556936E+02  0.13722375739E+02 -0.50027406950E+03  0.50093067975E+03  0.47000000000E+01 0.  1.
        -11    1    1    2    0    0  0.16661064488E+02 -0.35072159573E+02 -0.11212434490E+03  0.11865713702E+03  0.00000000000E+00 0. -1.
         11    1    1    2    0    0 -0.22578892415E+02  0.32773089416E+02 -0.29264498970E+02  0.49399318543E+02  0.00000000000E+00 0.  1.
<mgrwt>
<rscale>  0 0.11552255E+03</rscale>
<asrwt>0</asrwt>
<pdfrwt beam="2">  1        1 0.10284604E+00 0.12515869E+03</pdfrwt>
<pdfrwt beam="1">  1       -1 0.32240209E-02 0.12515869E+03</pdfrwt>
<totfact> 0.97346389E+03</totfact>
</mgrwt>
</event>
<event>
 6    1  0.5928109E-006  0.2560238E+03  0.7546771E-02  0.1120870E+00
         -1   -1    0    0    0  501 -0.00000000000E+00  0.00000000000E+00  0.19060971894E+03  0.19060971894E+03  0.00000000000E+00 0.  1.
          1   -1    0    0  501    0  0.00000000000E+00 -0.00000000000E+00 -0.34194620126E+03  0.34194620126E+03  0.00000000000E+00 0. -1.
          5    1    1    2  502    0  0.12814897577E+03  0.47150464430E+02 -0.23082691289E+03  0.26823213827E+03  0.47000000000E+01 0. -1.
         -5    1    1    2    0  502  0.40433273015E+02 -0.43549856443E+02  0.20571862460E+02  0.63061327991E+02  0.47000000000E+01 0.  1.
        -11    1    1    2    0    0 -0.51063027916E+02 -0.44774941746E+02  0.19894841975E+02  0.70767456967E+02  0.00000000000E+00 0. -1.
         11    1    1    2    0    0 -0.11751922087E+03  0.41174333759E+02  0.39023726141E+02  0.13049499697E+03  0.00000000000E+00 0.  1.
<mgrwt>
<rscale>  0 0.23838945E+03</rscale>
<asrwt>0</asrwt>
<pdfrwt beam="2">  1        1 0.52607107E-01 0.25602378E+03</pdfrwt>
<pdfrwt beam="1">  1       -1 0.29324573E-01 0.25602378E+03</pdfrwt>
<totfact> 0.78985764E+02</totfact>
</mgrwt>
</event>
<event>
 7    1  0.5928109E-006  0.1344686E+03  0.7546771E-02  0.1232987E+00
          3   -1    0    0  501    0  0.00000000000E+00  0.00000000000E+00  0.91760825077E+03  0.91760825077E+03  0.00000000000E+00 0. -1.
         -3   -1    0    0    0  501 -0.00000000000E+00 -0.00000000000E+00 -0.18635770927E+02  0.18635770927E+02  0.00000000000E+00 0.  1.
         23    2    1    2    0    0  0.22345122439E+02  0.44230981978E+02  0.68398185775E+03  0.69707459801E+03  0.12500451669E+03 0.  0.
          5    1    3    3  502    0 -0.21544484875E+02  0.36239500614E+02  0.60306745121E+03  0.60455761260E+03  0.47000000000E+01 0. -1.
         -5    1    3    3    0  502  0.43889607315E+02  0.79914813638E+01  0.80914406537E+02  0.92516985413E+02  0.47000000000E+01 0. -1.
        -11    1    1    2    0    0  0.10707532149E+02  0.24151527027E+02  0.80374994022E+02  0.84605479530E+02  0.00000000000E+00 0. -1.
         11    1    1    2    0    0 -0.33052654588E+02 -0.68382509004E+02  0.13461562807E+03  0.15456394416E+03  0.00000000000E+00 0.  1.
<mgrwt>
<rscale>  0 0.12634155E+03</rscale>
<asrwt>0</asrwt>
<pdfrwt beam="1">  1        3 0.14117047E+00 0.13446863E+03</pdfrwt>
<pdfrwt beam="2">  1       -3 0.28670424E-02 0.13446863E+03</pdfrwt>
<totfact> 0.50772607E+02</totfact>
</mgrwt>
</event>
<event>
 7    1  0.5928109E-006  0.1625250E+03  0.7546771E-02  0.1193558E+00
          2   -1    0    0  501    0  0.00000000000E+00  0.00000000000E+00  0.51846784997E+03  0.51846784997E+03  0.00000000000E+00 0. -1.
         -2   -1    0    0    0  501 -0.00000000000E+00 -0.00000000000E+00 -0.44314381929E+02  0.44314381929E+02  0.00000000000E+00 0.  1.
         23    2    1    2    0    0  0.96048266458E+02 -0.39545870178E+02  0.29911366606E+03  0.34041647246E+03  0.12500097665E+03 0.  0.
          5    1    3    3  502    0  0.35172043844E+02 -0.37467898911E+02  0.21069783370E+02  0.55739948764E+02  0.47000000000E+01 0. -1.
         -5    1    3    3    0  502  0.60876222614E+02 -0.20779712680E+01  0.27804388269E+03  0.28467652370E+03  0.47000000000E+01 0. -1.
        -11    1    1    2    0    0 -0.78997347030E+02 -0.90631582900E+01  0.13672582278E+03  0.15816659664E+03  0.00000000000E+00 0.  1.
         11    1    1    2    0    0 -0.17050919427E+02  0.48609028468E+02  0.38313979196E+02  0.64199162797E+02  0.00000000000E+00 0. -1.
<mgrwt>
<rscale>  0 0.15576931E+03</rscale>
<asrwt>0</asrwt>
<pdfrwt beam="1">  1        2 0.79764280E-01 0.16252504E+03</pdfrwt>
<pdfrwt beam="2">  1       -2 0.68175976E-02 0.16252504E+03</pdfrwt>
<totfact> 0.70280796E+03</totfact>
</mgrwt>
</event>
<event>
 7    1  0.5928109E-006  0.1612764E+03  0.7546771E-02  0.1193212E+00
          1   -1    0    0  501    0  0.00000000000E+00  0.00000000000E+00  0.31519921852E+03  0.31519921852E+03  0.00000000000E+00 0. -1.
         -1   -1    0    0    0  501 -0.00000000000E+00 -0.00000000000E+00 -0.72982361604E+02  0.72982361604E+02  0.00000000000E+00 0.  1.
         23    2    1    2    0    0 -0.91090264037E+02  0.45712074735E+02  0.11639969719E+03  0.19889432621E+03  0.12499213380E+03 0.  0.
          5    1    3    3  502    0  0.24353538162E+02 -0.39947324052E+01 -0.32067452494E+01  0.25326387881E+02  0.47000000000E+01 0.  1.
         -5    1    3    3    0  502 -0.11544380220E+03  0.49706807140E+02  0.11960644244E+03  0.17356793833E+03  0.47000000000E+01 0.  1.
        -11    1    1    2    0    0  0.25014705452E+02  0.24001196568E+02  0.70205476772E+02  0.78298160223E+02  0.00000000000E+00 0.  1.
         11    1    1    2    0    0  0.66075558585E+02 -0.69713271303E+02  0.55611682960E+02  0.11098909370E+03  0.00000000000E+00 0. -1.
<mgrwt>
<rscale>  0 0.15606517E+03</rscale>
<asrwt>0</asrwt>
<pdfrwt beam="1">  1        1 0.48492187E-01 0.16127636E+03</pdfrwt>
<pdfrwt beam="2">  1       -1 0.11228056E-01 0.16127636E+03</pdfrwt>
<totfact> 0.40671747E+03</totfact>
</mgrwt>
</event>
<event>
 7    1  0.5928109E-006  0.1444705E+03  0.7546771E-02  0.1217381E+00
          1   -1    0    0  501    0  0.00000000000E+00  0.00000000000E+00  0.70943853966E+03  0.70943853966E+03  0.00000000000E+00 0. -1.
         -1   -1    0    0    0  501 -0.00000000000E+00 -0.00000000000E+00 -0.26810613063E+02  0.26810613063E+02  0.00000000000E+00 0.  1.
         23    2    1    2    0    0  0.14025447757E+02  0.71054152299E+02  0.49051107122E+03  0.51134414765E+03  0.12500528229E+03 0.  0.
          5    1    3    3  502    0  0.11390280221E+02 -0.40803116423E+01 -0.19761454763E+01  0.13129454580E+02  0.47000000000E+01 0.  1.
         -5    1    3    3    0  502  0.26351675359E+01  0.75134463941E+02  0.49248721670E+03  0.49821469307E+03  0.47000000000E+01 0.  1.
        -11    1    1    2    0    0  0.11116198388E+01 -0.54549184438E+02  0.19484904250E+03  0.20234376340E+03  0.00000000000E+00 0. -1.
         11    1    1    2    0    0 -0.15137067596E+02 -0.16504967861E+02 -0.27321871282E+01  0.22561241676E+02  0.00000000000E+00 0.  1.
<mgrwt>
<rscale>  0 0.13703101E+03</rscale>
<asrwt>0</asrwt>
<pdfrwt beam="1">  1        1 0.10914438E+00 0.14447050E+03</pdfrwt>
<pdfrwt beam="2">  1       -1 0.41247102E-02 0.14447050E+03</pdfrwt>
<totfact> 0.62906877E+03</totfact>
</mgrwt>
</event>
<event>
 7    1  0.5928109E-006  0.1777364E+03  0.7546771E-02  0.1175966E+00
         -2   -1    0    0    0  501 -0.00000000000E+00  0.00000000000E+00  0.26116425730E+02  0.26116425730E+02  0.00000000000E+00 0.  1.
          2   -1    0    0  501    0  0.00000000000E+00 -0.00000000000E+00 -0.11246458742E+04  0.11246458742E+04  0.00000000000E+00 0. -1.
         23    2    1    2    0    0  0.66879463681E+02  0.10720143268E+03 -0.72071749389E+03  0.74230987413E+03  0.12500093358E+03 0.  0.
          5    1    3    3  502    0  0.20355653664E+02  0.92250996289E+02 -0.64612731295E+03  0.65301393055E+03  0.47000000000E+01 0. -1.
         -5    1    3    3    0  502  0.46523810017E+02  0.14950436392E+02 -0.74590180947E+02  0.89295943584E+02  0.47000000000E+01 0. -1.
        -11    1    1    2    0    0 -0.50834500498E+02 -0.12275500938E+03 -0.32240724277E+03  0.34871101067E+03  0.00000000000E+00 0.  1.
         11    1    1    2    0    0 -0.16044963183E+02  0.15553576698E+02 -0.55404711784E+02  0.59741415112E+02  0.00000000000E+00 0. -1.
<mgrwt>
<rscale>  0 0.17181670E+03</rscale>
<asrwt>0</asrwt>
<pdfrwt beam="2">  1        2 0.17302239E+00 0.17773644E+03</pdfrwt>
<pdfrwt beam="1">  1       -2 0.40179129E-02 0.17773644E+03</pdfrwt>
<totfact> 0.59447706E+03</totfact>
</mgrwt>
</event>
<event>
 7    1  0.5928109E-006  0.1873263E+03  0.7546771E-02  0.1165597E+00
          3   -1    0    0  501    0  0.00000000000E+00  0.00000000000E+00  0.81660765513E+03  0.81660765513E+03  0.00000000000E+00 0. -1.
         -3   -1    0    0    0  501 -0.00000000000E+00 -0.00000000000E+00 -0.51672301479E+02  0.51672301479E+02  0.00000000000E+00 0.  1.
         23    2    1    2    0    0  0.12820690408E+03 -0.55060076622E+02  0.61568701378E+03  0.64355391543E+03  0.12499008296E+03 0.  0.
          5    1    3    3  502    0  0.99633245356E+02 -0.48306572130E+02  0.59958085317E+03  0.60973731883E+03  0.47000000000E+01 0.  1.
         -5    1    3    3    0  502  0.28573658725E+02 -0.67535044923E+01  0.16106160609E+02  0.33816596597E+02  0.47000000000E+01 0.  1.
        -11    1    1    2    0    0 -0.13938088416E+03  0.63215147432E+02  0.14332127074E+03  0.20967635151E+03  0.00000000000E+00 0. -1.
         11    1    1    2    0    0  0.11173980078E+02 -0.81550708099E+01  0.59270691294E+01  0.15049689670E+02  0.00000000000E+00 0.  1.
<mgrwt>
<rscale>  0 0.18229789E+03</rscale>
<asrwt>0</asrwt>
<pdfrwt beam="1">  1        3 0.12563194E+00 0.18732630E+03</pdfrwt>
<pdfrwt beam="2">  1       -3 0.79495854E-02 0.18732630E+03</pdfrwt>
<totfact> 0.13901578E+02</totfact>
</mgrwt>
</event>
<event>
 7    1  0.5928109E-006  0.1262896E+03  0.7546771E-02  0.1248599E+00
          1   -1    0    0  501    0  0.00000000000E+00  0.00000000000E+00  0.87174270273E+02  0.87174270273E+02  0.00000000000E+00 0. -1.
         -1   -1    0    0    0  501 -0.00000000000E+00 -0.00000000000E+00 -0.17043946748E+03  0.17043946748E+03  0.00000000000E+00 0.  1.
         23    2    1    2    0    0  0.66203402485E+01  0.16672265853E+02  0.97576174575E+01  0.12666597985E+03  0.12500906367E+03 0.  0.
          5    1    3    3  502    0 -0.29261302844E+02  0.37020421752E+02 -0.39875256082E+02  0.61958546775E+02  0.47000000000E+01 0.  1.
         -5    1    3    3    0  502  0.35881643093E+02 -0.20348155899E+02  0.49632873539E+02  0.64707433076E+02  0.47000000000E+01 0.  1.
        -11    1    1    2    0    0  0.34913511810E+02 -0.27520825290E+02 -0.68051710048E+02  0.81285819009E+02  0.00000000000E+00 0. -1.
         11    1    1    2    0    0 -0.41533852058E+02  0.10848559436E+02 -0.24971104613E+02  0.49661938889E+02  0.00000000000E+00 0.  1.
<mgrwt>
<rscale>  0 0.11672534E+03</rscale>
<asrwt>0</asrwt>
<pdfrwt beam="1">  1        1 0.13411426E-01 0.12628959E+03</pdfrwt>
<pdfrwt beam="2">  1       -1 0.26221456E-01 0.12628959E+03</pdfrwt>
<totfact> 0.52688677E+03</totfact>
</mgrwt>
</event>
<event>
 7    1  0.5928109E-006  0.1411514E+03  0.7546771E-02  0.1222772E+00
          2   -1    0    0  501    0  0.00000000000E+00  0.00000000000E+00  0.75958095798E+03  0.75958095798E+03  0.00000000000E+00 0. -1.
         -2   -1    0    0    0  501 -0.00000000000E+00 -0.00000000000E+00 -0.28106129244E+02  0.28106129244E+02  0.00000000000E+00 0.  1.
         23    2    1    2    0    0  0.62859454632E+02 -0.18655644971E+02  0.59322839399E+03  0.60978982778E+03  0.12499744998E+03 0.  0.
          5    1    3    3  502    0  0.81434462886E+02 -0.55813349641E+02  0.43965041919E+03  0.45062321604E+03  0.47000000000E+01 0.  1.
         -5    1    3    3    0  502 -0.18575008254E+02  0.37157704670E+02  0.15357797480E+03  0.15916661173E+03  0.47000000000E+01 0.  1.
        -11    1    1    2    0    0  0.14086137156E+02  0.21312222960E+02  0.71759355450E+02  0.76171091643E+02  0.00000000000E+00 0. -1.
         11    1    1    2    0    0 -0.76945591788E+02 -0.26565779887E+01  0.66487079298E+02  0.10172616780E+03  0.00000000000E+00 0.  1.
<mgrwt>
<rscale>  0 0.13320818E+03</rscale>
<asrwt>0</asrwt>
<pdfrwt beam="1">  1        2 0.11685859E+00 0.14115136E+03</pdfrwt>
<pdfrwt beam="2">  1       -2 0.43240205E-02 0.14115136E+03</pdfrwt>
<totfact> 0.89153903E+03</totfact>
</mgrwt>
</event>
<event>
 7    1  0.5928109E-006  0.1404794E+03  0.7546771E-02  0.1216773E+00
         -4   -1    0    0    0  501 -0.00000000000E+00  0.00000000000E+00  0.70234560239E+02  0.70234560239E+02  0.00000000000E+00 0.  1.
          4   -1    0    0  501    0  0.00000000000E+00 -0.00000000000E+00 -0.26580775042E+03  0.26580775042E+03  0.00000000000E+00 0. -1.
         23    2    1    2    0    0  0.45417040875E+01  0.63951758469E+02 -0.73410676356E+02  0.15850421372E+03  0.12499601545E+03 0.  0.
          5    1    3    3  502    0  0.73653720690E+01  0.54298630127E+02 -0.10853140669E+03  0.12167064633E+03  0.47000000000E+01 0.  1.
         -5    1    3    3    0  502 -0.28236679815E+01  0.96531283425E+01  0.35120730337E+02  0.36833567395E+02  0.47000000000E+01 0.  1.
        -11    1    1    2    0    0 -0.45298172774E+02  0.45159540014E+01 -0.65497502883E+02  0.79763658273E+02  0.00000000000E+00 0. -1.
         11    1    1    2    0    0  0.40756468687E+02 -0.68467712471E+02 -0.56665010944E+02  0.97774438664E+02  0.00000000000E+00 0.  1.
<mgrwt>
<rscale>  0 0.13747072E+03</rscale>
<asrwt>0</asrwt>
<pdfrwt beam="2">  1        4 0.40893500E-01 0.14047939E+03</pdfrwt>
<pdfrwt beam="1">  1       -4 0.10805317E-01 0.14047939E+03</pdfrwt>
<totfact> 0.64568585E+02</totfact>
</mgrwt>
</event>
<event>
 7    1  0.5928109E-006  0.1566293E+03  0.7546771E-02  0.1200651E+00
          1   -1    0    0  501    0  0.00000000000E+00  0.00000000000E+00  0.25516640551E+03  0.25516640551E+03  0.00000000000E+00 0. -1.
         -1   -1    0    0    0  501 -0.00000000000E+00 -0.00000000000E+00 -0.83368654892E+02  0.83368654892E+02  0.00000000000E+00 0.  1.
         23    2    1    2    0    0 -0.45692084258E+01  0.94281043822E+02  0.12052763840E+03  0.19763515061E+03  0.12499179272E+03 0.  0.
          5    1    3    3  502    0  0.27021935869E+02  0.23116647185E+02  0.11382685265E+03  0.11934490680E+03  0.47000000000E+01 0. -1.
         -5    1    3    3    0  502 -0.31591144294E+02  0.71164396638E+02  0.67007857552E+01  0.78290243813E+02  0.47000000000E+01 0. -1.
        -11    1    1    2    0    0 -0.41242008954E+02 -0.56453619721E+02  0.39615251141E+02  0.80357218749E+02  0.00000000000E+00 0. -1.
         11    1    1    2    0    0  0.45811217380E+02 -0.37827424101E+02  0.11654861076E+02  0.60542691043E+02  0.00000000000E+00 0.  1.
<mgrwt>
<rscale>  0 0.14985528E+03</rscale>
<asrwt>0</asrwt>
<pdfrwt beam="1">  1        1 0.39256370E-01 0.15662931E+03</pdfrwt>
<pdfrwt beam="2">  1       -1 0.12825947E-01 0.15662931E+03</pdfrwt>
<totfact> 0.42972037E+03</totfact>
</mgrwt>
</event>
<event>
 7    1  0.5928109E-006  0.1271576E+03  0.7546771E-02  0.1246277E+00
         -1   -1    0    0    0  501 -0.00000000000E+00  0.00000000000E+00  0.13155493901E+02  0.13155493901E+02  0.00000000000E+00 0.  1.
          1   -1    0    0  501    0  0.00000000000E+00 -0.00000000000E+00 -0.10346414030E+04  0.10346414030E+04  0.00000000000E+00 0. -1.
         23    2    1    2    0    0  0.27960951895E+02 -0.12904579051E+02 -0.73989794757E+03  0.75074498694E+03  0.12337228054E+03 0.  0.
          5    1    3    3  502    0  0.62502777267E+02 -0.38668797282E+02 -0.59386620554E+03  0.59841543524E+03  0.47000000000E+01 0. -1.
         -5    1    3    3    0  502 -0.34541825371E+02  0.25764218231E+02 -0.14603174203E+03  0.15232955170E+03  0.47000000000E+01 0.  1.
        -11    1    1    2    0    0 -0.12428655932E+02  0.51489757130E+02 -0.15391083131E+03  0.16277042290E+03  0.00000000000E+00 0.  1.
         11    1    1    2    0    0 -0.15532295963E+02 -0.38585178079E+02 -0.12767713018E+03  0.13428148702E+03  0.00000000000E+00 0. -1.
<mgrwt>
<rscale>  0 0.11809266E+03</rscale>
<asrwt>0</asrwt>
<pdfrwt beam="2">  1        1 0.15917563E+00 0.12715763E+03</pdfrwt>
<pdfrwt beam="1">  1       -1 0.20239217E-02 0.12715763E+03</pdfrwt>
<totfact> 0.97649596E+03</totfact>
</mgrwt>
</event>
<event>
 7    1  0.5928109E-006  0.1251794E+03  0.7546771E-02  0.1252799E+00
         -1   -1    0    0    0  501 -0.00000000000E+00  0.00000000000E+00  0.28975668542E+03  0.28975668542E+03  0.00000000000E+00 0.  1.
          1   -1    0    0  501    0  0.00000000000E+00 -0.00000000000E+00 -0.38953751833E+02  0.38953751833E+02  0.00000000000E+00 0. -1.
         23    2    1    2    0    0 -0.30454782202E+01 -0.66208231574E+01  0.13969199896E+03  0.18757328858E+03  0.12496709078E+03 0.  0.
          5    1    3    3  502    0 -0.39550782426E+02  0.76305166832E+01  0.14235068526E+03  0.14801451540E+03  0.47000000000E+01 0.  1.
         -5    1    3    3    0  502  0.36505304206E+02 -0.14251339841E+02 -0.26586862998E+01  0.39558773177E+02  0.47000000000E+01 0.  1.
        -11    1    1    2    0    0 -0.20310188870E+02 -0.34131955763E+02  0.57156628182E+02  0.69601539648E+02  0.00000000000E+00 0.  1.
         11    1    1    2    0    0  0.23355667091E+02  0.40752778920E+02  0.53954306445E+02  0.71535609028E+02  0.00000000000E+00 0. -1.
<mgrwt>
<rscale>  0 0.11430513E+03</rscale>
<asrwt>0</asrwt>
<pdfrwt beam="2">  1        1 0.59928851E-02 0.12517941E+03</pdfrwt>
<pdfrwt beam="1">  1       -1 0.44577950E-01 0.12517941E+03</pdfrwt>
<totfact> 0.62017063E+03</totfact>
</mgrwt>
</event>
<event>
 7    1  0.5928109E-006  0.1294445E+03  0.7546771E-02  0.1242406E+00
          1   -1    0    0  501    0  0.00000000000E+00  0.00000000000E+00  0.86526747583E+02  0.86526747583E+02  0.00000000000E+00 0. -1.
         -1   -1    0    0    0  501 -0.00000000000E+00 -0.00000000000E+00 -0.15165454534E+03  0.15165454534E+03  0.00000000000E+00 0.  1.
         23    2    1    2    0    0 -0.14607066613E+02  0.30293207837E+02 -0.19046534459E+02  0.13083822514E+03  0.12499930339E+03 0.  0.
          5    1    3    3  502    0  0.13841154667E+02  0.53617390720E+02  0.34715048420E+02  0.65525771548E+02  0.47000000000E+01 0. -1.
         -5    1    3    3    0  502 -0.28448221280E+02 -0.23324182883E+02 -0.53761582879E+02  0.65312453596E+02  0.47000000000E+01 0. -1.
        -11    1    1    2    0    0  0.38119211136E+02 -0.13984455323E+01 -0.56943971355E+02  0.68539373949E+02  0.00000000000E+00 0.  1.
         11    1    1    2    0    0 -0.23512144523E+02 -0.28894762305E+02  0.10862708056E+02  0.38803693833E+02  0.00000000000E+00 0. -1.
<mgrwt>
<rscale>  0 0.12041986E+03</rscale>
<asrwt>0</asrwt>
<pdfrwt beam="1">  1        1 0.13311807E-01 0.12944447E+03</pdfrwt>
<pdfrwt beam="2">  1       -1 0.23331468E-01 0.12944447E+03</pdfrwt>
<totfact> 0.64532465E+03</totfact>
</mgrwt>
</event>
<event>
 7    1  0.5928109E-006  0.1256100E+03  0.7546771E-02  0.1250870E+00
          1   -1    0    0  501    0  0.00000000000E+00  0.00000000000E+00  0.25281949692E+03  0.25281949692E+03  0.00000000000E+00 0. -1.
         -1   -1    0    0    0  501 -0.00000000000E+00 -0.00000000000E+00 -0.49072351871E+02  0.49072351871E+02  0.00000000000E+00 0.  1.
         23    2    1    2    0    0  0.12305472027E+02  0.13058185918E+01  0.15650923518E+03  0.20068139913E+03  0.12499901382E+03 0.  0.
          5    1    3    3  502    0 -0.55020500228E+02  0.13561742180E+02  0.65999521119E+02  0.87116032303E+02  0.47000000000E+01 0. -1.
         -5    1    3    3    0  502  0.67325972255E+02 -0.12255923589E+02  0.90509714060E+02  0.11356536683E+03  0.47000000000E+01 0. -1.
        -11    1    1    2    0    0  0.35527990553E+02  0.14637028868E+02  0.14375033090E+02  0.41025873582E+02  0.00000000000E+00 0. -1.
         11    1    1    2    0    0 -0.47833462580E+02 -0.15942847460E+02  0.32862876775E+02  0.60184576076E+02  0.00000000000E+00 0.  1.
<mgrwt>
<rscale>  0 0.11540824E+03</rscale>
<asrwt>0</asrwt>
<pdfrwt beam="1">  1        1 0.38895307E-01 0.12561004E+03</pdfrwt>
<pdfrwt beam="2">  1       -1 0.75495927E-02 0.12561004E+03</pdfrwt>
<totfact> 0.96242968E+03</totfact>
</mgrwt>
</event>
<event>
 7    1  0.5928109E-006  0.1531751E+03  0.7546771E-02  0.1204630E+00
         -2   -1    0    0    0  501 -0.00000000000E+00  0.00000000000E+00  0.74901783155E+03  0.74901783155E+03  0.00000000000E+00 0.  1.
          2   -1    0    0  501    0  0.00000000000E+00 -0.00000000000E+00 -0.34608563875E+02  0.34608563875E+02  0.00000000000E+00 0. -1.
         23    2    1    2    0    0 -0.68989789356E+02  0.55479772386E+02  0.19215790278E+03  0.24573819503E+03  0.12500001887E+03 0.  0.
          5    1    3    3  502    0 -0.32150709511E+01 -0.37254402977E+02  0.64708927806E+02  0.74883660169E+02  0.47000000000E+01 0.  1.
         -5    1    3    3    0  502 -0.65774718404E+02  0.92734175363E+02  0.12744897498E+03  0.17085453487E+03  0.47000000000E+01 0.  1.
        -11    1    1    2    0    0 -0.68095516235E-01 -0.47591067084E+02  0.11052082068E+03  0.12033189979E+03  0.00000000000E+00 0.  1.
         11    1    1    2    0    0  0.69057884872E+02 -0.78887053018E+01  0.41173054421E+03  0.41755630060E+03  0.00000000000E+00 0. -1.
<mgrwt>
<rscale>  0 0.14666620E+03</rscale>
<asrwt>0</asrwt>
<pdfrwt beam="2">  1        2 0.53243950E-02 0.15317507E+03</pdfrwt>
<pdfrwt beam="1">  1       -2 0.11523350E+00 0.15317507E+03</pdfrwt>
<totfact> 0.86651770E+02</totfact>
</mgrwt>
</event>
<event>
 7    1  0.5928109E-006  0.2234263E+03  0.7546771E-02  0.1134912E+00
         -2   -1    0    0    0  501 -0.00000000000E+00  0.00000000000E+00  0.70638058365E+02  0.70638058365E+02  0.00000000000E+00 0.  1.
          2   -1    0    0  501    0  0.00000000000E+00 -0.00000000000E+00 -0.66572426561E+03  0.66572426561E+03  0.00000000000E+00 0. -1.
         23    2    1    2    0    0  0.15101181527E+03 -0.10713226917E+03 -0.36826644921E+03  0.43074296427E+03  0.12504971891E+03 0.  0.
          5    1    3    3  502    0  0.12874160444E+03 -0.13554622433E+03 -0.31033403040E+03  0.36232096278E+03  0.47000000000E+01 0. -1.
         -5    1    3    3    0  502  0.22270210825E+02  0.28413955159E+02 -0.57932418815E+02  0.68422001489E+02  0.47000000000E+01 0. -1.
        -11    1    1    2    0    0 -0.10011425757E+03  0.33266894208E+02 -0.75573208380E+02  0.12977234160E+03  0.00000000000E+00 0.  1.
         11    1    1    2    0    0 -0.50897557697E+02  0.73865374959E+02 -0.15124654966E+03  0.17584701812E+03  0.00000000000E+00 0. -1.
<mgrwt>
<rscale>  0 0.21862509E+03</rscale>
<asrwt>0</asrwt>
<pdfrwt beam="2">  1        2 0.10241912E+00 0.22342633E+03</pdfrwt>
<pdfrwt beam="1">  1       -2 0.10867393E-01 0.22342633E+03</pdfrwt>
<totfact> 0.25720719E+03</totfact>
</mgrwt>
</event>
<event>
 7    1  0.5928109E-006  0.1308303E+03  0.7546771E-02  0.1242961E+00
          2   -1    0    0  501    0  0.00000000000E+00  0.00000000000E+00  0.26176996918E+03  0.26176996918E+03  0.00000000000E+00 0. -1.
         -2   -1    0    0    0  501 -0.00000000000E+00 -0.00000000000E+00 -0.66646991795E+02  0.66646991795E+02  0.00000000000E+00 0.  1.
         23    2    1    2    0    0  0.28763498658E+02  0.25731962377E+02  0.19588887600E+03  0.23556105772E+03  0.12500834943E+03 0.  0.
          5    1    3    3  502    0  0.35423995875E+02  0.68050320276E+02  0.75707114899E+02  0.10788587869E+03  0.47000000000E+01 0.  1.
         -5    1    3    3    0  502 -0.66604972175E+01 -0.42318357899E+02  0.12018176110E+03  0.12767517903E+03  0.47000000000E+01 0.  1.
        -11    1    1    2    0    0 -0.70128014519E+01 -0.19395911836E+02 -0.41445298621E+02  0.46293558493E+02  0.00000000000E+00 0.  1.
         11    1    1    2    0    0 -0.21750697206E+02 -0.63360505411E+01  0.40679400001E+02  0.46562344763E+02  0.00000000000E+00 0. -1.
<mgrwt>
<rscale>  0 0.12008254E+03</rscale>
<asrwt>0</asrwt>
<pdfrwt beam="1">  1        2 0.40272303E-01 0.13083027E+03</pdfrwt>
<pdfrwt beam="2">  1       -2 0.10253383E-01 0.13083027E+03</pdfrwt>
<totfact> 0.76603239E+03</totfact>
</mgrwt>
</event>
<event>
 7    1  0.5928109E-006  0.1468493E+03  0.7546771E-02  0.1213669E+00
         -1   -1    0    0    0  501 -0.00000000000E+00  0.00000000000E+00  0.78469627436E+02  0.78469627436E+02  0.00000000000E+00 0.  1.
          1   -1    0    0  501    0  0.00000000000E+00 -0.00000000000E+00 -0.23758305547E+03  0.23758305547E+03  0.00000000000E+00 0. -1.
         23    2    1    2    0    0 -0.42225734941E+02 -0.64469432766E+02 -0.11931510746E+03  0.18921104014E+03  0.12500160955E+03 0.  0.
          5    1    3    3  502    0  0.39916697024E+02 -0.44493288908E+02 -0.65937734483E+02  0.89122782093E+02  0.47000000000E+01 0.  1.
         -5    1    3    3    0  502 -0.82142431965E+02 -0.19976143858E+02 -0.53377372972E+02  0.10008825804E+03  0.47000000000E+01 0.  1.
        -11    1    1    2    0    0  0.30727379608E+02  0.19152950769E+02  0.27099502009E+02  0.45225992415E+02  0.00000000000E+00 0.  1.
         11    1    1    2    0    0  0.11498355333E+02  0.45316481997E+02 -0.66897822587E+02  0.81615650355E+02  0.00000000000E+00 0. -1.
<mgrwt>
<rscale>  0 0.13974725E+03</rscale>
<asrwt>0</asrwt>
<pdfrwt beam="2">  1        1 0.36551239E-01 0.14684932E+03</pdfrwt>
<pdfrwt beam="1">  1       -1 0.12072250E-01 0.14684932E+03</pdfrwt>
<totfact> 0.51393439E+03</totfact>
</mgrwt>
</event>
<event>
 7    1  0.5928109E-006  0.1352056E+03  0.7546771E-02  0.1232577E+00
         -1   -1    0    0    0  501 -0.00000000000E+00  0.00000000000E+00  0.43414212904E+02  0.43414212904E+02  0.00000000000E+00 0.  1.
          1   -1    0    0  501    0  0.00000000000E+00 -0.00000000000E+00 -0.41452921291E+03  0.41452921291E+03  0.00000000000E+00 0. -1.
         23    2    1    2    0    0  0.36361503220E+02  0.36512840182E+02 -0.30788875955E+03  0.33626779515E+03  0.12500078155E+03 0.  0.
          5    1    3    3  502    0  0.16852445941E+02  0.16039503554E+02  0.31210310713E+01  0.23939537243E+02  0.47000000000E+01 0. -1.
         -5    1    3    3    0  502  0.19509057279E+02  0.20473336628E+02 -0.31100979062E+03  0.31232825791E+03  0.47000000000E+01 0. -1.
        -11    1    1    2    0    0 -0.51547210600E+02  0.66036143576E+01 -0.54183814217E+02  0.75077349223E+02  0.00000000000E+00 0. -1.
         11    1    1    2    0    0  0.15185707380E+02 -0.43116454540E+02 -0.90424262426E+01  0.46598281439E+02  0.00000000000E+00 0.  1.
<mgrwt>
<rscale>  0 0.12660797E+03</rscale>
<asrwt>0</asrwt>
<pdfrwt beam="2">  1        1 0.63773728E-01 0.13520555E+03</pdfrwt>
<pdfrwt beam="1">  1       -1 0.66791093E-02 0.13520555E+03</pdfrwt>
<totfact> 0.62868183E+03</totfact>
</mgrwt>
</event>
<event>
 7    1  0.5928109E-006  0.2007968E+03  0.7546771E-02  0.1153599E+00
          2   -1    0    0  501    0  0.00000000000E+00  0.00000000000E+00  0.11811970849E+04  0.11811970849E+04  0.00000000000E+00 0. -1.
         -2   -1    0    0    0  501 -0.00000000000E+00 -0.00000000000E+00 -0.33422853433E+02  0.33422853433E+02  0.00000000000E+00 0.  1.
         23    2    1    2    0    0  0.14176881465E+03  0.67801829233E+02  0.77346960966E+03  0.79910863593E+03  0.12499556030E+03 0.  0.
          5    1    3    3  502    0  0.10308377448E+03 -0.18853460701E+02  0.44307874028E+03  0.45532689095E+03  0.47000000000E+01 0. -1.
         -5    1    3    3    0  502  0.38685040173E+02  0.86655289934E+02  0.33039086938E+03  0.34378174497E+03  0.47000000000E+01 0. -1.
        -11    1    1    2    0    0 -0.94681144088E+02 -0.11954813192E+02  0.13513986069E+03  0.16543947096E+03  0.00000000000E+00 0. -1.
         11    1    1    2    0    0 -0.47087670565E+02 -0.55847016041E+02  0.23916476110E+03  0.25007183142E+03  0.00000000000E+00 0.  1.
<mgrwt>
<rscale>  0 0.19549217E+03</rscale>
<asrwt>0</asrwt>
<pdfrwt beam="1">  1        2 0.18172260E+00 0.20079685E+03</pdfrwt>
<pdfrwt beam="2">  1       -2 0.51419784E-02 0.20079685E+03</pdfrwt>
<totfact> 0.38182908E+03</totfact>
</mgrwt>
</event>
<event>
 7    1  0.5928109E-006  0.2288578E+03  0.7546771E-02  0.1130442E+00
          2   -1    0    0  501    0  0.00000000000E+00  0.00000000000E+00  0.70386308165E+03  0.70386308165E+03  0.00000000000E+00 0. -1.
         -2   -1    0    0    0  501 -0.00000000000E+00 -0.00000000000E+00 -0.69437097022E+02  0.69437097022E+02  0.00000000000E+00 0.  1.
         23    2    1    2    0    0 -0.11587289545E+03  0.15273337524E+03  0.35054203904E+03  0.41863543080E+03  0.12498756330E+03 0.  0.
          5    1    3    3  502    0 -0.88921156410E+02  0.12890320104E+03  0.34873313671E+03  0.38230864224E+03  0.47000000000E+01 0.  1.
         -5    1    3    3    0  502 -0.26951739040E+02  0.23830174191E+02  0.18089023294E+01  0.36326788557E+02  0.47000000000E+01 0.  1.
        -11    1    1    2    0    0  0.52788448597E+02 -0.13152716713E+03  0.15785261439E+03  0.21214019861E+03  0.00000000000E+00 0.  1.
         11    1    1    2    0    0  0.63084446852E+02 -0.21206208109E+02  0.12603133120E+03  0.14252454926E+03  0.00000000000E+00 0. -1.
<mgrwt>
<rscale>  0 0.22467927E+03</rscale>
<asrwt>0</asrwt>
<pdfrwt beam="1">  1        2 0.10828662E+00 0.22885782E+03</pdfrwt>
<pdfrwt beam="2">  1       -2 0.10682631E-01 0.22885782E+03</pdfrwt>
<totfact> 0.24735136E+03</totfact>
</mgrwt>
</event>
<event>
 7    1  0.5928109E-006  0.1749404E+03  0.7546771E-02  0.1178867E+00
         -2   -1    0    0    0  501 -0.00000000000E+00  0.00000000000E+00  0.42339776175E+02  0.42339776175E+02  0.00000000000E+00 0.  1.
          2   -1    0    0  501    0  0.00000000000E+00 -0.00000000000E+00 -0.22382647054E+04  0.22382647054E+04  0.00000000000E+00 0. -1.
         23    2    1    2    0    0  0.11989339800E+03 -0.24556878762E+02 -0.20843547087E+04  0.20916832203E+04  0.12500670071E+03 0.  0.
          5    1    3    3  502    0 -0.15939717035E+02  0.12178675136E+02 -0.67482907378E+03  0.67514351328E+03  0.47000000000E+01 0. -1.
         -5    1    3    3    0  502  0.13583311504E+03 -0.36735553898E+02 -0.14095256350E+04  0.14165397071E+04  0.47000000000E+01 0. -1.
        -11    1    1    2    0    0 -0.98264778851E+02  0.17636151995E+02 -0.29993965012E+02  0.10424317031E+03  0.00000000000E+00 0.  1.
         11    1    1    2    0    0 -0.21628619152E+02  0.69207267670E+01 -0.81576255462E+02  0.84678090913E+02  0.00000000000E+00 0. -1.
<mgrwt>
<rscale>  0 0.16902653E+03</rscale>
<asrwt>0</asrwt>
<pdfrwt beam="2">  1        2 0.34434845E+00 0.17494040E+03</pdfrwt>
<pdfrwt beam="1">  1       -2 0.65138111E-02 0.17494040E+03</pdfrwt>
<totfact> 0.73810867E+02</totfact>
</mgrwt>
</event>
<event>
 7    1  0.5928109E-006  0.2627594E+03  0.7546771E-02  0.1107703E+00
          2   -1    0    0  501    0  0.00000000000E+00  0.00000000000E+00  0.24278477285E+04  0.24278477285E+04  0.00000000000E+00 0. -1.
         -2   -1    0    0    0  501 -0.00000000000E+00 -0.00000000000E+00 -0.36075482209E+02  0.36075482209E+02  0.00000000000E+00 0.  1.
         23    2    1    2    0    0  0.18249726760E+03  0.14178030428E+03  0.18423488426E+04  0.18609921444E+04  0.12504237810E+03 0.  0.
          5    1    3    3  502    0  0.70568297135E+02 -0.12611707147E+02  0.47514034090E+03  0.48054070927E+03  0.47000000000E+01 0. -1.
         -5    1    3    3    0  502  0.11192897047E+03  0.15439201142E+03  0.13672085017E+04  0.13804514351E+04  0.47000000000E+01 0. -1.
        -11    1    1    2    0    0 -0.73266774068E+02 -0.78066394573E+02  0.15233917800E+03  0.18619776394E+03  0.00000000000E+00 0. -1.
         11    1    1    2    0    0 -0.10923049354E+03 -0.63713909704E+02  0.39708422569E+03  0.41673330236E+03  0.00000000000E+00 0.  1.
<mgrwt>
<rscale>  0 0.25907109E+03</rscale>
<asrwt>0</asrwt>
<pdfrwt beam="1">  1        2 0.37351491E+00 0.26275940E+03</pdfrwt>
<pdfrwt beam="2">  1       -2 0.55500761E-02 0.26275940E+03</pdfrwt>
<totfact> 0.73403782E+02</totfact>
</mgrwt>
</event>
<event>
 7    1  0.5928109E-006  0.1798941E+03  0.7546771E-02  0.1173619E+00
         -1   -1    0    0    0  501 -0.00000000000E+00  0.00000000000E+00  0.75947870602E+02  0.75947870602E+02  0.00000000000E+00 0. -1.
          1   -1    0    0  501    0  0.00000000000E+00 -0.00000000000E+00 -0.48697515910E+03  0.48697515910E+03  0.00000000000E+00 0.  1.
         23    2    1    2    0    0  0.84298266123E+02 -0.97719980320E+02 -0.35024753311E+03  0.39374511253E+03  0.12532552402E+03 0.  0.
          5    1    3    3  502    0 -0.14807792229E+02 -0.33128787985E+02 -0.19555079337E+03  0.19894469104E+03  0.47000000000E+01 0. -1.
         -5    1    3    3    0  502  0.99106058351E+02 -0.64591192336E+02 -0.15469673973E+03  0.19480042149E+03  0.47000000000E+01 0. -1.
        -11    1    1    2    0    0  0.14425526345E+02  0.40341115901E+02 -0.88986377916E+01  0.43757138812E+02  0.00000000000E+00 0. -1.
         11    1    1    2    0    0 -0.98723792468E+02  0.57378864420E+02 -0.51881117604E+02  0.12542077836E+03  0.00000000000E+00 0.  1.
<mgrwt>
<rscale>  0 0.17411909E+03</rscale>
<asrwt>0</asrwt>
<pdfrwt beam="2">  1        1 0.74919254E-01 0.17989408E+03</pdfrwt>
<pdfrwt beam="1">  1       -1 0.11684288E-01 0.17989408E+03</pdfrwt>
<totfact> 0.22083018E+03</totfact>
</mgrwt>
</event>
<event>
 7    1  0.5928109E-006  0.1607277E+03  0.7546771E-02  0.1195336E+00
         -2   -1    0    0    0  501 -0.00000000000E+00  0.00000000000E+00  0.43876865237E+02  0.43876865237E+02  0.00000000000E+00 0.  1.
          2   -1    0    0  501    0  0.00000000000E+00 -0.00000000000E+00 -0.50639570071E+03  0.50639570071E+03  0.00000000000E+00 0. -1.
         23    2    1    2    0    0 -0.31479467667E+02  0.96011076155E+02 -0.27278017843E+03  0.31661083044E+03  0.12499723427E+03 0.  0.
          5    1    3    3  502    0 -0.92358432180E+01 -0.55723692558E+01 -0.16971930240E+03  0.17012666959E+03  0.47000000000E+01 0. -1.
         -5    1    3    3    0  502 -0.22243624449E+02  0.10158344541E+03 -0.10306087603E+03  0.14648416085E+03  0.47000000000E+01 0. -1.
        -11    1    1    2    0    0 -0.19480561473E+02 -0.68773766310E+02 -0.66860259608E+02  0.97875520548E+02  0.00000000000E+00 0.  1.
         11    1    1    2    0    0  0.50960029141E+02 -0.27237309846E+02 -0.12287839743E+03  0.13578621496E+03  0.00000000000E+00 0. -1.
<mgrwt>
<rscale>  0 0.15425830E+03</rscale>
<asrwt>0</asrwt>
<pdfrwt beam="2">  1        2 0.77907032E-01 0.16072770E+03</pdfrwt>
<pdfrwt beam="1">  1       -2 0.67502868E-02 0.16072770E+03</pdfrwt>
<totfact> 0.73204572E+03</totfact>
</mgrwt>
</event>
<event>
 7    1  0.5928109E-006  0.1326137E+03  0.7546771E-02  0.1236835E+00
         -1   -1    0    0    0  501 -0.00000000000E+00  0.00000000000E+00  0.18901281498E+02  0.18901281498E+02  0.00000000000E+00 0.  1.
          1   -1    0    0  501    0  0.00000000000E+00 -0.00000000000E+00 -0.72477688663E+03  0.72477688663E+03  0.00000000000E+00 0. -1.
         23    2    1    2    0    0 -0.33168860626E+02  0.29332220068E+02 -0.42468403992E+03  0.44490778394E+03  0.12500339992E+03 0.  0.
          5    1    3    3  502    0  0.23234898092E+02  0.44438018469E+02 -0.32812845894E+03  0.33197134446E+03  0.47000000000E+01 0.  1.
         -5    1    3    3    0  502 -0.56403758718E+02 -0.15105798400E+02 -0.96555580984E+02  0.11293643948E+03  0.47000000000E+01 0.  1.
        -11    1    1    2    0    0  0.63864749936E+02 -0.24294352490E+02 -0.21575620405E+03  0.22631761185E+03  0.00000000000E+00 0.  1.
         11    1    1    2    0    0 -0.30695889311E+02 -0.50378675787E+01 -0.65435361158E+02  0.72452772343E+02  0.00000000000E+00 0. -1.
<mgrwt>
<rscale>  0 0.12387681E+03</rscale>
<asrwt>0</asrwt>
<pdfrwt beam="2">  1        1 0.11150413E+00 0.13261373E+03</pdfrwt>
<pdfrwt beam="1">  1       -1 0.29078897E-02 0.13261373E+03</pdfrwt>
<totfact> 0.10121192E+04</totfact>
</mgrwt>
</event>
<event>
 7    1  0.5928109E-006  0.1351998E+03  0.7546771E-02  0.1232405E+00
          2   -1    0    0  501    0  0.00000000000E+00  0.00000000000E+00  0.71093363430E+03  0.71093363430E+03  0.00000000000E+00 0.  1.
         -2   -1    0    0    0  501 -0.00000000000E+00 -0.00000000000E+00 -0.21842666451E+02  0.21842666451E+02  0.00000000000E+00 0. -1.
         23    2    1    2    0    0  0.39856093841E+02  0.32707029936E+02  0.48592739755E+03  0.50438517861E+03  0.12498285757E+03 0.  0.
          5    1    3    3  502    0  0.34221609851E+02  0.77172786014E+02  0.24239956059E+03  0.25672240739E+03  0.47000000000E+01 0.  1.
         -5    1    3    3    0  502  0.56344839903E+01 -0.44465756078E+02  0.24352783696E+03  0.24766277122E+03  0.47000000000E+01 0.  1.
        -11    1    1    2    0    0  0.71470540898E+01 -0.33477690967E+02  0.16301484456E+03  0.16657033266E+03  0.00000000000E+00 0.  1.
         11    1    1    2    0    0 -0.47003147931E+02  0.77066103113E+00  0.40148725734E+02  0.61820789480E+02  0.00000000000E+00 0. -1.
<mgrwt>
<rscale>  0 0.12672018E+03</rscale>
<asrwt>0</asrwt>
<pdfrwt beam="1">  1        2 0.10937439E+00 0.13519975E+03</pdfrwt>
<pdfrwt beam="2">  1       -2 0.33604108E-02 0.13519975E+03</pdfrwt>
<totfact> 0.13999400E+04</totfact>
</mgrwt>
</event>
<event>
 7    1  0.5928109E-006  0.1765356E+03  0.7546771E-02  0.1177356E+00
          2   -1    0    0  501    0  0.00000000000E+00  0.00000000000E+00  0.43664681522E+03  0.43664681522E+03  0.00000000000E+00 0. -1.
         -2   -1    0    0    0  501 -0.00000000000E+00 -0.00000000000E+00 -0.63014615629E+02  0.63014615629E+02  0.00000000000E+00 0.  1.
         23    2    1    2    0    0  0.55497479971E+02 -0.11162058517E+03  0.22502893252E+03  0.28601192691E+03  0.12500270615E+03 0.  0.
          5    1    3    3  502    0  0.85177309929E+02 -0.81490266841E+02  0.21002438762E+03  0.24089037156E+03  0.47000000000E+01 0. -1.
         -5    1    3    3    0  502 -0.29679829958E+02 -0.30130318333E+02  0.15004544904E+02  0.45121555347E+02  0.47000000000E+01 0. -1.
        -11    1    1    2    0    0 -0.19004330094E+02  0.10582086190E+03  0.74373384839E+02  0.13073109709E+03  0.00000000000E+00 0.  1.
         11    1    1    2    0    0 -0.36493149878E+02  0.57997232766E+01  0.74229882227E+02  0.82918406844E+02  0.00000000000E+00 0. -1.
<mgrwt>
<rscale>  0 0.17047213E+03</rscale>
<asrwt>0</asrwt>
<pdfrwt beam="1">  1        2 0.67176431E-01 0.17653555E+03</pdfrwt>
<pdfrwt beam="2">  1       -2 0.96945565E-02 0.17653555E+03</pdfrwt>
<totfact> 0.49307428E+03</totfact>
</mgrwt>
</event>
<event>
 7    1  0.5928109E-006  0.1309219E+03  0.7546771E-02  0.1239618E+00
         -1   -1    0    0    0  501 -0.00000000000E+00  0.00000000000E+00  0.56222470595E+03  0.56222470595E+03  0.00000000000E+00 0.  1.
          1   -1    0    0  501    0  0.00000000000E+00 -0.00000000000E+00 -0.25067972804E+02  0.25067972804E+02  0.00000000000E+00 0. -1.
         23    2    1    2    0    0 -0.29016331639E+02 -0.25912105527E+02  0.23150621770E+03  0.26596179363E+03  0.12500864819E+03 0.  0.
          5    1    3    3  502    0 -0.11878406270E+02  0.11167666514E+02  0.22341082710E+03  0.22405423668E+03  0.47000000000E+01 0. -1.
         -5    1    3    3    0  502 -0.17137925369E+02 -0.37079772041E+02  0.80953906065E+01  0.41907556951E+02  0.47000000000E+01 0. -1.
        -11    1    1    2    0    0  0.58762589361E+02  0.21710741169E+01  0.15047826385E+03  0.16155947315E+03  0.00000000000E+00 0.  1.
         11    1    1    2    0    0 -0.29746257721E+02  0.23741031410E+02  0.15517225159E+03  0.15977141197E+03  0.00000000000E+00 0. -1.
<mgrwt>
<rscale>  0 0.12213373E+03</rscale>
<asrwt>0</asrwt>
<pdfrwt beam="2">  1        1 0.38566116E-02 0.13092191E+03</pdfrwt>
<pdfrwt beam="1">  1       -1 0.86496099E-01 0.13092191E+03</pdfrwt>
<totfact> 0.31807562E+03</totfact>
</mgrwt>
</event>
<event>
 7    1  0.5928109E-006  0.1278950E+03  0.7546771E-02  0.1252021E+00
         -3   -1    0    0    0  501 -0.00000000000E+00  0.00000000000E+00  0.28990232977E+03  0.28990232977E+03  0.00000000000E+00 0.  1.
          3   -1    0    0  501    0  0.00000000000E+00 -0.00000000000E+00 -0.42784055160E+02  0.42784055160E+02  0.00000000000E+00 0. -1.
         23    2    1    2    0    0 -0.24319689139E+02  0.11873741430E+02  0.94505931204E+02  0.15902358641E+03  0.12499878794E+03 0.  0.
          5    1    3    3  502    0  0.10060741957E+02 -0.32336971319E+02 -0.13905461916E+02  0.36910027281E+02  0.47000000000E+01 0.  1.
         -5    1    3    3    0  502 -0.34380431096E+02  0.44210712749E+02  0.10841139312E+03  0.12211355913E+03  0.47000000000E+01 0.  1.
        -11    1    1    2    0    0 -0.18527201807E+02 -0.25621113175E+02  0.32248698227E+02  0.45162785393E+02  0.00000000000E+00 0. -1.
         11    1    1    2    0    0  0.42846890946E+02  0.13747371745E+02  0.12036364518E+03  0.12850001313E+03  0.00000000000E+00 0.  1.
<mgrwt>
<rscale>  0 0.11474819E+03</rscale>
<asrwt>0</asrwt>
<pdfrwt beam="2">  1        3 0.65821625E-02 0.12789500E+03</pdfrwt>
<pdfrwt beam="1">  1       -3 0.44600357E-01 0.12789500E+03</pdfrwt>
<totfact> 0.16719598E+03</totfact>
</mgrwt>
</event>
<event>
 7    1  0.5928109E-006  0.1295049E+03  0.7546771E-02  0.1241367E+00
         -4   -1    0    0    0  501 -0.00000000000E+00  0.00000000000E+00  0.88349390235E+01  0.88349390235E+01  0.00000000000E+00 0. -1.
          4   -1    0    0  501    0  0.00000000000E+00 -0.00000000000E+00 -0.22879939282E+04  0.22879939282E+04  0.00000000000E+00 0.  1.
         23    2    1    2    0    0 -0.33204226840E+02 -0.65870709673E+01 -0.19184099352E+04  0.19227761687E+04  0.12500242107E+03 0.  0.
          5    1    3    3  502    0  0.44752732752E+02  0.14623198408E+02 -0.84198294327E+03  0.84331133739E+03  0.47000000000E+01 0.  1.
         -5    1    3    3    0  502 -0.77956959591E+02 -0.21210269376E+02 -0.10764269919E+04  0.10794648313E+04  0.47000000000E+01 0.  1.
        -11    1    1    2    0    0  0.64011025369E+00  0.41903742786E+02 -0.24770174988E+03  0.25122199405E+03  0.00000000000E+00 0.  1.
         11    1    1    2    0    0  0.32564116586E+02 -0.35316671819E+02 -0.11304730410E+03  0.12283070447E+03  0.00000000000E+00 0. -1.
<mgrwt>
<rscale>  0 0.12105486E+03</rscale>
<asrwt>0</asrwt>
<pdfrwt beam="2">  1        4 0.35199915E+00 0.12950489E+03</pdfrwt>
<pdfrwt beam="1">  1       -4 0.13592210E-02 0.12950489E+03</pdfrwt>
<totfact> 0.57227314E+01</totfact>
</mgrwt>
</event>
<event>
 7    1  0.5928109E-006  0.1298939E+03  0.7546771E-02  0.1241344E+00
          3   -1    0    0  501    0  0.00000000000E+00  0.00000000000E+00  0.77789116193E+02  0.77789116193E+02  0.00000000000E+00 0. -1.
         -3   -1    0    0    0  501 -0.00000000000E+00 -0.00000000000E+00 -0.20257957168E+03  0.20257957168E+03  0.00000000000E+00 0.  1.
         23    2    1    2    0    0 -0.28821594173E+02 -0.20393766249E+02 -0.11275754620E+02  0.13038238635E+03  0.12500333610E+03 0.  0.
          5    1    3    3  502    0  0.30069974188E+02 -0.34675649023E+02 -0.41898660774E+02  0.62323284232E+02  0.47000000000E+01 0.  1.
         -5    1    3    3    0  502 -0.58891568361E+02  0.14281882774E+02  0.30622906154E+02  0.68059102116E+02  0.47000000000E+01 0.  1.
        -11    1    1    2    0    0  0.59221472086E+02  0.17393917023E+02 -0.49730404597E+02  0.79264394571E+02  0.00000000000E+00 0. -1.
         11    1    1    2    0    0 -0.30399877913E+02  0.29998492259E+01 -0.63784296265E+02  0.70721906949E+02  0.00000000000E+00 0.  1.
<mgrwt>
<rscale>  0 0.12106921E+03</rscale>
<asrwt>0</asrwt>
<pdfrwt beam="1">  1        3 0.11967557E-01 0.12989390E+03</pdfrwt>
<pdfrwt beam="2">  1       -3 0.31166087E-01 0.12989390E+03</pdfrwt>
<totfact> 0.12468032E+03</totfact>
</mgrwt>
</event>
<event>
 7    1  0.5928109E-006  0.1347024E+03  0.7546771E-02  0.1232928E+00
         -1   -1    0    0    0  501 -0.00000000000E+00  0.00000000000E+00  0.15925372213E+03  0.15925372213E+03  0.00000000000E+00 0.  1.
          1   -1    0    0  501    0  0.00000000000E+00 -0.00000000000E+00 -0.14297904948E+03  0.14297904948E+03  0.00000000000E+00 0. -1.
         23    2    1    2    0    0  0.52767128711E+00  0.50206666372E+02 -0.82971606020E+02  0.15820566583E+03  0.12499502994E+03 0.  0.
          5    1    3    3  502    0 -0.18713459559E+01  0.81526847478E+02 -0.94047879914E+02  0.12456814405E+03  0.47000000000E+01 0. -1.
         -5    1    3    3    0  502  0.23990172430E+01 -0.31320181106E+02  0.11076273894E+02  0.33637521782E+02  0.47000000000E+01 0. -1.
        -11    1    1    2    0    0  0.25109065072E+02 -0.42508938319E+02  0.93733701991E+01  0.50252711914E+02  0.00000000000E+00 0. -1.
         11    1    1    2    0    0 -0.25636736359E+02 -0.76977280529E+01  0.89872908472E+02  0.93774393869E+02  0.00000000000E+00 0.  1.
<mgrwt>
<rscale>  0 0.12638046E+03</rscale>
<asrwt>0</asrwt>
<pdfrwt beam="2">  1        1 0.21996777E-01 0.13470243E+03</pdfrwt>
<pdfrwt beam="1">  1       -1 0.24500573E-01 0.13470243E+03</pdfrwt>
<totfact> 0.31359762E+03</totfact>
</mgrwt>
</event>
<event>
 7    1  0.5928109E-006  0.1333801E+03  0.7546771E-02  0.1237508E+00
          2   -1    0    0  501    0  0.00000000000E+00  0.00000000000E+00  0.27769840437E+03  0.27769840437E+03  0.00000000000E+00 0. -1.
         -2   -1    0    0    0  501 -0.00000000000E+00 -0.00000000000E+00 -0.49862365322E+02  0.49862365322E+02  0.00000000000E+00 0.  1.
         23    2    1    2    0    0 -0.26889143633E+02 -0.27299156907E+02  0.16080462045E+03  0.20892197190E+03  0.12775756091E+03 0.  0.
          5    1    3    3  502    0  0.23941392147E+02 -0.53561542701E+02  0.13235657198E+03  0.14485296428E+03  0.47000000000E+01 0. -1.
         -5    1    3    3    0  502 -0.50830535780E+02  0.26262385794E+02  0.28448048476E+02  0.64069007619E+02  0.47000000000E+01 0.  1.
        -11    1    1    2    0    0  0.58184130300E+02  0.78812598878E+01  0.53402112258E+02  0.79368084706E+02  0.00000000000E+00 0.  1.
         11    1    1    2    0    0 -0.31294986667E+02  0.19417897019E+02  0.13629306332E+02  0.39270713086E+02  0.00000000000E+00 0. -1.
<mgrwt>
<rscale>  0 0.12345258E+03</rscale>
<asrwt>0</asrwt>
<pdfrwt beam="1">  1        2 0.42722830E-01 0.13338015E+03</pdfrwt>
<pdfrwt beam="2">  1       -2 0.76711333E-02 0.13338015E+03</pdfrwt>
<totfact> 0.11315598E+04</totfact>
</mgrwt>
</event>
<event>
 7    1  0.5928109E-006  0.1258075E+03  0.7546771E-02  0.1237775E+00
         -2   -1    0    0    0  501 -0.00000000000E+00  0.00000000000E+00  0.88216715239E+02  0.88216715239E+02  0.00000000000E+00 0.  1.
          2   -1    0    0  501    0  0.00000000000E+00 -0.00000000000E+00 -0.17900620181E+03  0.17900620181E+03  0.00000000000E+00 0. -1.
         23    2    1    2    0    0 -0.13927021862E+02 -0.27393575670E+01 -0.83464462268E+02  0.15097633846E+03  0.12500428911E+03 0.  0.
          5    1    3    3  502    0  0.41218703677E+02  0.18413927744E+02  0.37454471131E+01  0.45543085555E+02  0.47000000000E+01 0. -1.
         -5    1    3    3    0  502 -0.55145725539E+02 -0.21153285311E+02 -0.87209909381E+02  0.10543325291E+03  0.47000000000E+01 0. -1.
        -11    1    1    2    0    0 -0.37955712865E+02 -0.23090302612E+01  0.32994908760E+02  0.50345126516E+02  0.00000000000E+00 0.  1.
         11    1    1    2    0    0  0.51882734727E+02  0.50483878282E+01 -0.40319933059E+02  0.65901452066E+02  0.00000000000E+00 0. -1.
<mgrwt>
<rscale>  0 0.12328467E+03</rscale>
<asrwt>0</asrwt>
<pdfrwt beam="2">  1        2 0.27539415E-01 0.12580754E+03</pdfrwt>
<pdfrwt beam="1">  1       -2 0.13571803E-01 0.12580754E+03</pdfrwt>
<totfact> 0.73500657E+03</totfact>
</mgrwt>
</event>
<event>
 7    1  0.5928109E-006  0.1928440E+03  0.7546771E-02  0.1160581E+00
         -1   -1    0    0    0  501 -0.00000000000E+00  0.00000000000E+00  0.33316006959E+03  0.33316006959E+03  0.00000000000E+00 0.  1.
          1   -1    0    0  501    0  0.00000000000E+00 -0.00000000000E+00 -0.11298607476E+03  0.11298607476E+03  0.00000000000E+00 0. -1.
         23    2    1    2    0    0 -0.14510439630E+03 -0.22446472967E+02  0.41084478480E+02  0.19717185534E+03  0.12501870337E+03 0.  0.
          5    1    3    3  502    0 -0.13433711514E+03 -0.24447983363E+02  0.78729729820E+02  0.15768520778E+03  0.47000000000E+01 0.  1.
         -5    1    3    3    0  502 -0.10767281165E+02  0.20015103962E+01 -0.37645251340E+02  0.39486647566E+02  0.47000000000E+01 0.  1.
        -11    1    1    2    0    0  0.61090463118E+01 -0.24622824998E+02  0.35748740399E+02  0.43835789006E+02  0.00000000000E+00 0.  1.
         11    1    1    2    0    0  0.13899534999E+03  0.47069297964E+02  0.14334077596E+03  0.20513850000E+03  0.00000000000E+00 0. -1.
<mgrwt>
<rscale>  0 0.18766832E+03</rscale>
<asrwt>0</asrwt>
<pdfrwt beam="2">  1        1 0.17382473E-01 0.19284399E+03</pdfrwt>
<pdfrwt beam="1">  1       -1 0.51255395E-01 0.19284399E+03</pdfrwt>
<totfact> 0.11948466E+03</totfact>
</mgrwt>
</event>
<event>
 6    1  0.5928109E-006  0.1375361E+03  0.7546771E-02  0.1284597E+00
          2   -1    0    0  501    0  0.00000000000E+00  0.00000000000E+00  0.17841471171E+04  0.17841471171E+04  0.00000000000E+00 0.  1.
         -2   -1    0    0    0  501 -0.00000000000E+00 -0.00000000000E+00 -0.50086673490E+01  0.50086673490E+01  0.00000000000E+00 0. -1.
          5    1    1    2  502    0 -0.78206833457E+00  0.43776588962E+02  0.16803721420E+03  0.17371124526E+03  0.47000000000E+01 0. -1.
         -5    1    1    2    0  502 -0.10610738834E+02 -0.13394380846E+02  0.14650746258E+04  0.14651818134E+04  0.47000000000E+01 0.  1.
        -11    1    1    2    0    0  0.88160236379E+01 -0.55018795431E+01  0.45323307704E+02  0.46499410453E+02  0.00000000000E+00 0. -1.
         11    1    1    2    0    0  0.25767835303E+01 -0.24880328573E+02  0.10070330211E+03  0.10376331538E+03  0.00000000000E+00 0.  1.
<mgrwt>
<rscale>  0 0.97982381E+02</rscale>
<asrwt>0</asrwt>
<pdfrwt beam="1">  1        2 0.27448366E+00 0.13753609E+03</pdfrwt>
<pdfrwt beam="2">  1       -2 0.77056563E-03 0.13753609E+03</pdfrwt>
<totfact> 0.28928957E+04</totfact>
</mgrwt>
</event>
<event>
 7    1  0.5928109E-006  0.1869172E+03  0.7546771E-02  0.1167252E+00
          1   -1    0    0  501    0  0.00000000000E+00  0.00000000000E+00  0.12903552983E+03  0.12903552983E+03  0.00000000000E+00 0. -1.
         -1   -1    0    0    0  501 -0.00000000000E+00 -0.00000000000E+00 -0.24158096014E+03  0.24158096014E+03  0.00000000000E+00 0.  1.
         23    2    1    2    0    0 -0.36599379654E+02 -0.13406549282E+03 -0.34475734652E+02  0.19007007536E+03  0.12499994524E+03 0.  0.
          5    1    3    3  502    0  0.41118021476E+02 -0.83305047451E+02 -0.76566509572E+01  0.93333471621E+02  0.47000000000E+01 0. -1.
         -5    1    3    3    0  502 -0.77717401130E+02 -0.50760445367E+02 -0.26819083694E+02  0.96736603737E+02  0.47000000000E+01 0. -1.
        -11    1    1    2    0    0 -0.25111965297E+02  0.66874012237E+02 -0.37883726503E+02  0.80857411828E+02  0.00000000000E+00 0. -1.
         11    1    1    2    0    0  0.61711344951E+02  0.67191480581E+02 -0.40185969161E+02  0.99689002783E+02  0.00000000000E+00 0.  1.
<mgrwt>
<rscale>  0 0.18057064E+03</rscale>
<asrwt>0</asrwt>
<pdfrwt beam="1">  1        1 0.19851620E-01 0.18691725E+03</pdfrwt>
<pdfrwt beam="2">  1       -1 0.37166301E-01 0.18691725E+03</pdfrwt>
<totfact> 0.17913675E+03</totfact>
</mgrwt>
</event>
<event>
 6    1  0.5928109E-006  0.1783122E+03  0.7546771E-02  0.1197110E+00
          1   -1    0    0  501    0  0.00000000000E+00  0.00000000000E+00  0.19115883296E+03  0.19115883296E+03  0.00000000000E+00 0. -1.
         -1   -1    0    0    0  501 -0.00000000000E+00 -0.00000000000E+00 -0.98762607940E+02  0.98762607940E+02  0.00000000000E+00 0.  1.
          5    1    1    2  502    0  0.16832238536E+02  0.56104551020E+02 -0.33541607140E+02  0.67662207389E+02  0.47000000000E+01 0. -1.
         -5    1    1    2    0  502 -0.63113777963E+02 -0.30003007334E+02  0.10115971640E+03  0.12304026837E+03  0.47000000000E+01 0.  1.
        -11    1    1    2    0    0  0.16479560279E+02  0.27656584335E+02  0.19236622316E+02  0.37503469203E+02  0.00000000000E+00 0. -1.
         11    1    1    2    0    0  0.29801979148E+02 -0.53758128021E+02  0.55414934419E+01  0.61715495939E+02  0.00000000000E+00 0.  1.
<mgrwt>
<rscale>  0 0.15277017E+03</rscale>
<asrwt>0</asrwt>
<pdfrwt beam="1">  1        1 0.29409051E-01 0.17831216E+03</pdfrwt>
<pdfrwt beam="2">  1       -1 0.15194247E-01 0.17831216E+03</pdfrwt>
<totfact> 0.47561840E+03</totfact>
</mgrwt>
</event>
<event>
 7    1  0.5928109E-006  0.1383157E+03  0.7546771E-02  0.1227564E+00
          1   -1    0    0  501    0  0.00000000000E+00  0.00000000000E+00  0.16850571950E+03  0.16850571950E+03  0.00000000000E+00 0. -1.
         -1   -1    0    0    0  501 -0.00000000000E+00 -0.00000000000E+00 -0.89991627469E+02  0.89991627469E+02  0.00000000000E+00 0.  1.
         23    2    1    2    0    0  0.15084226988E+02  0.57266981557E+02  0.50225020004E+02  0.14715229706E+03  0.12499681922E+03 0.  0.
          5    1    3    3  502    0  0.40742208534E+02  0.87479140370E+02  0.24527290074E+02  0.99680517227E+02  0.47000000000E+01 0. -1.
         -5    1    3    3    0  502 -0.25657981546E+02 -0.30212158814E+02  0.25697729930E+02  0.47471779835E+02  0.47000000000E+01 0. -1.
        -11    1    1    2    0    0 -0.48958938983E+02 -0.20235387028E+02  0.30462820695E+02  0.61109999503E+02  0.00000000000E+00 0. -1.
         11    1    1    2    0    0  0.33874711995E+02 -0.37031594529E+02 -0.21737486653E+01  0.50235050407E+02  0.00000000000E+00 0.  1.
<mgrwt>
<rscale>  0 0.12992689E+03</rscale>
<asrwt>0</asrwt>
<pdfrwt beam="1">  1        1 0.25923957E-01 0.13831575E+03</pdfrwt>
<pdfrwt beam="2">  1       -1 0.13844866E-01 0.13831575E+03</pdfrwt>
<totfact> 0.63492155E+03</totfact>
</mgrwt>
</event>
<event>
 7    1  0.5928109E-006  0.1339667E+03  0.7546771E-02  0.1233919E+00
          2   -1    0    0  501    0  0.00000000000E+00  0.00000000000E+00  0.37483690004E+03  0.37483690004E+03  0.00000000000E+00 0. -1.
         -2   -1    0    0    0  501 -0.00000000000E+00 -0.00000000000E+00 -0.37999688215E+02  0.37999688215E+02  0.00000000000E+00 0.  1.
         23    2    1    2    0    0  0.43255503572E+01 -0.47988300229E+02  0.20587861711E+03  0.24562793477E+03  0.12500196002E+03 0.  0.
          5    1    3    3  502    0  0.31175461338E+02 -0.33211868795E+02  0.94384314826E+01  0.46755872437E+02  0.47000000000E+01 0. -1.
         -5    1    3    3    0  502 -0.26849910981E+02 -0.14776431434E+02  0.19644018563E+03  0.19887206233E+03  0.47000000000E+01 0. -1.
        -11    1    1    2    0    0 -0.38624259610E+02  0.87816214268E+01  0.97650656444E+02  0.10537837069E+03  0.00000000000E+00 0.  1.
         11    1    1    2    0    0  0.34298709253E+02  0.39206678802E+02  0.33307938271E+02  0.61830282798E+02  0.00000000000E+00 0. -1.
<mgrwt>
<rscale>  0 0.12573863E+03</rscale>
<asrwt>0</asrwt>
<pdfrwt beam="1">  1        2 0.57667213E-01 0.13396670E+03</pdfrwt>
<pdfrwt beam="2">  1       -2 0.58461061E-02 0.13396670E+03</pdfrwt>
<totfact> 0.12465993E+04</totfact>
</mgrwt>
</event>
<event>
 7    1  0.5928109E-006  0.1382460E+03  0.7546771E-02  0.1227277E+00
          1   -1    0    0  501    0  0.00000000000E+00  0.00000000000E+00  0.10792580019E+04  0.10792580019E+04  0.00000000000E+00 0. -1.
         -1   -1    0    0    0  501 -0.00000000000E+00 -0.00000000000E+00 -0.15269555040E+02  0.15269555040E+02  0.00000000000E+00 0.  1.
         23    2    1    2    0    0  0.37540892533E+02  0.45592971150E+02  0.74147050838E+03  0.75424828842E+03  0.12499571255E+03 0.  0.
          5    1    3    3  502    0 -0.41109663359E+01  0.80846200141E+02  0.50862027477E+03  0.51504337879E+03  0.47000000000E+01 0.  1.
         -5    1    3    3    0  502  0.41651858869E+02 -0.35253228991E+02  0.23285023361E+03  0.23920490964E+03  0.47000000000E+01 0.  1.
        -11    1    1    2    0    0 -0.45897226179E+02  0.80414964237E+01  0.88154130168E+02  0.99711442179E+02  0.00000000000E+00 0.  1.
         11    1    1    2    0    0  0.83563336454E+01 -0.53634467574E+02  0.23436380828E+03  0.24056782631E+03  0.00000000000E+00 0. -1.
<mgrwt>
<rscale>  0 0.13012074E+03</rscale>
<asrwt>0</asrwt>
<pdfrwt beam="1">  1        1 0.16603963E+00 0.13824603E+03</pdfrwt>
<pdfrwt beam="2">  1       -1 0.23491632E-02 0.13824603E+03</pdfrwt>
<totfact> 0.73488389E+03</totfact>
</mgrwt>
</event>
<event>
 7    1  0.5928109E-006  0.1675531E+03  0.7546771E-02  0.1188335E+00
          4   -1    0    0  501    0  0.00000000000E+00  0.00000000000E+00  0.17393135424E+03  0.17393135424E+03  0.00000000000E+00 0. -1.
         -4   -1    0    0    0  501 -0.00000000000E+00 -0.00000000000E+00 -0.23273451221E+03  0.23273451221E+03  0.00000000000E+00 0.  1.
         23    2    1    2    0    0  0.94577043177E+02  0.59177168614E+02  0.99637544046E+02  0.19494023865E+03  0.12500920798E+03 0.  0.
          5    1    3    3  502    0  0.10554643792E+03  0.42685066177E+02  0.12046322701E+03  0.16581780512E+03  0.47000000000E+01 0. -1.
         -5    1    3    3    0  502 -0.10969394739E+02  0.16492102437E+02 -0.20825682967E+02  0.29122433531E+02  0.47000000000E+01 0. -1.
        -11    1    1    2    0    0 -0.58989443564E+02  0.12566373850E+02 -0.70725625952E+02  0.92950429639E+02  0.00000000000E+00 0. -1.
         11    1    1    2    0    0 -0.35587599614E+02 -0.71743542464E+02 -0.87715076061E+02  0.11877519817E+03  0.00000000000E+00 0.  1.
<mgrwt>
<rscale>  0 0.16032070E+03</rscale>
<asrwt>0</asrwt>
<pdfrwt beam="1">  1        4 0.26758670E-01 0.16755315E+03</pdfrwt>
<pdfrwt beam="2">  1       -4 0.35805310E-01 0.16755315E+03</pdfrwt>
<totfact> 0.17268225E+02</totfact>
</mgrwt>
</event>
<event>
 7    1  0.5928109E-006  0.1360571E+03  0.7546771E-02  0.1230469E+00
          1   -1    0    0  501    0  0.00000000000E+00  0.00000000000E+00  0.10275777158E+03  0.10275777158E+03  0.00000000000E+00 0. -1.
         -1   -1    0    0    0  501 -0.00000000000E+00 -0.00000000000E+00 -0.15083189391E+03  0.15083189391E+03  0.00000000000E+00 0.  1.
         23    2    1    2    0    0 -0.27497313955E+01 -0.53640451708E+02  0.15225045900E+01  0.13606566223E+03  0.12500674916E+03 0.  0.
          5    1    3    3  502    0 -0.29945625265E+02 -0.84187084625E+02  0.18778916644E+02  0.91427257427E+02  0.47000000000E+01 0. -1.
         -5    1    3    3    0  502  0.27195893870E+02  0.30546632918E+02 -0.17256412054E+02  0.44638404798E+02  0.47000000000E+01 0. -1.
        -11    1    1    2    0    0  0.27212498872E+02  0.70558555498E+02 -0.27491844137E+02  0.80466336707E+02  0.00000000000E+00 0.  1.
         11    1    1    2    0    0 -0.24462767477E+02 -0.16918103791E+02 -0.22104782785E+02  0.37057666554E+02  0.00000000000E+00 0. -1.
<mgrwt>
<rscale>  0 0.12798980E+03</rscale>
<asrwt>0</asrwt>
<pdfrwt beam="1">  1        1 0.15808888E-01 0.13605714E+03</pdfrwt>
<pdfrwt beam="2">  1       -1 0.23204907E-01 0.13605714E+03</pdfrwt>
<totfact> 0.52279413E+03</totfact>
</mgrwt>
</event>
<event>
 7    1  0.5928109E-006  0.1255646E+03  0.7546771E-02  0.1249990E+00
         -1   -1    0    0    0  501 -0.00000000000E+00  0.00000000000E+00  0.29283572670E+03  0.29283572670E+03  0.00000000000E+00 0.  1.
          1   -1    0    0  501    0  0.00000000000E+00 -0.00000000000E+00 -0.42254923488E+02  0.42254923488E+02  0.00000000000E+00 0. -1.
         23    2    1    2    0    0  0.10951018138E+02 -0.46178152899E+01  0.10687165441E+03  0.16488789296E+03  0.12500087085E+03 0.  0.
          5    1    3    3  502    0 -0.12739278442E+02  0.46669148805E+02  0.95373436401E+02  0.10704429474E+03  0.47000000000E+01 0. -1.
         -5    1    3    3    0  502  0.23690296580E+02 -0.51286964095E+02  0.11498218008E+02  0.57843598224E+02  0.47000000000E+01 0. -1.
        -11    1    1    2    0    0 -0.36583722827E+02  0.23438596834E+02  0.31743608234E+02  0.53808858575E+02  0.00000000000E+00 0. -1.
         11    1    1    2    0    0  0.25632704689E+02 -0.18820781544E+02  0.11196554057E+03  0.11639389865E+03  0.00000000000E+00 0.  1.
<mgrwt>
<rscale>  0 0.11591617E+03</rscale>
<asrwt>0</asrwt>
<pdfrwt beam="2">  1        1 0.65007577E-02 0.12556459E+03</pdfrwt>
<pdfrwt beam="1">  1       -1 0.45051649E-01 0.12556459E+03</pdfrwt>
<totfact> 0.54529945E+03</totfact>
</mgrwt>
</event>
<event>
 7    1  0.5928109E-006  0.1366889E+03  0.7546771E-02  0.1230764E+00
          2   -1    0    0  501    0  0.00000000000E+00  0.00000000000E+00  0.61951161037E+03  0.61951161037E+03  0.00000000000E+00 0.  1.
         -2   -1    0    0    0  501 -0.00000000000E+00 -0.00000000000E+00 -0.27362222346E+02  0.27362222346E+02  0.00000000000E+00 0. -1.
         23    2    1    2    0    0 -0.25065506457E+02 -0.49292786214E+02  0.45118171343E+03  0.47143269762E+03  0.12500316583E+03 0.  0.
          5    1    3    3  502    0  0.42420537672E+02 -0.92583407590E+01  0.72171937716E+02  0.84356964642E+02  0.47000000000E+01 0. -1.
         -5    1    3    3    0  502 -0.67486044129E+02 -0.40034445455E+02  0.37900977571E+03  0.38707573298E+03  0.47000000000E+01 0. -1.
        -11    1    1    2    0    0 -0.83577558182E+01  0.62881430335E+02  0.11376593394E+03  0.13025595606E+03  0.00000000000E+00 0.  1.
         11    1    1    2    0    0  0.33423262275E+02 -0.13588644120E+02  0.27201740660E+02  0.45185179042E+02  0.00000000000E+00 0. -1.
<mgrwt>
<rscale>  0 0.12779580E+03</rscale>
<asrwt>0</asrwt>
<pdfrwt beam="1">  1        2 0.95309468E-01 0.13668888E+03</pdfrwt>
<pdfrwt beam="2">  1       -2 0.42095732E-02 0.13668888E+03</pdfrwt>
<totfact> 0.11783750E+04</totfact>
</mgrwt>
</event>
<event>
 7    1  0.5928109E-006  0.1265450E+03  0.7546771E-02  0.1247311E+00
          1   -1    0    0  501    0  0.00000000000E+00  0.00000000000E+00  0.32260373816E+03  0.32260373816E+03  0.00000000000E+00 0. -1.
         -1   -1    0    0    0  501 -0.00000000000E+00 -0.00000000000E+00 -0.46578860499E+02  0.46578860499E+02  0.00000000000E+00 0.  1.
         23    2    1    2    0    0  0.83928734182E+01  0.17804337005E+02  0.23439788051E+03  0.26637569002E+03  0.12500482834E+03 0.  0.
          5    1    3    3  502    0  0.57352097500E+02 -0.23207912738E+02  0.12667018077E+03  0.14105068238E+03  0.47000000000E+01 0. -1.
         -5    1    3    3    0  502 -0.48959224082E+02  0.41012249743E+02  0.10772769973E+03  0.12532500765E+03  0.47000000000E+01 0. -1.
        -11    1    1    2    0    0 -0.48456571089E+02 -0.16235150672E+02  0.10802938541E+02  0.52233350267E+02  0.00000000000E+00 0.  1.
         11    1    1    2    0    0  0.40063697671E+02 -0.15691863329E+01  0.30824058611E+02  0.50573558369E+02  0.00000000000E+00 0. -1.
<mgrwt>
<rscale>  0 0.11748125E+03</rscale>
<asrwt>0</asrwt>
<pdfrwt beam="1">  1        1 0.49631343E-01 0.12654502E+03</pdfrwt>
<pdfrwt beam="2">  1       -1 0.71659788E-02 0.12654502E+03</pdfrwt>
<totfact> 0.77079196E+03</totfact>
</mgrwt>
</event>
<event>
 7    1  0.5928109E-006  0.1448980E+03  0.7546771E-02  0.1216492E+00
          3   -1    0    0  501    0  0.00000000000E+00  0.00000000000E+00  0.75901582291E+02  0.75901582291E+02  0.00000000000E+00 0. -1.
         -3   -1    0    0    0  501 -0.00000000000E+00 -0.00000000000E+00 -0.23904646297E+03  0.23904646297E+03  0.00000000000E+00 0.  1.
         23    2    1    2    0    0  0.56593588484E+02 -0.46559998256E+02 -0.55525911791E+02  0.15517264392E+03  0.12499901938E+03 0.  0.
          5    1    3    3  502    0  0.26703466684E+02 -0.52341974206E+02  0.28646928615E+02  0.65540017667E+02  0.47000000000E+01 0.  1.
         -5    1    3    3    0  502  0.29890121800E+02  0.57819759506E+01 -0.84172840406E+02  0.89632626254E+02  0.47000000000E+01 0.  1.
        -11    1    1    2    0    0 -0.79683867744E+02  0.38453211301E+02 -0.10130429159E+03  0.13450177595E+03  0.00000000000E+00 0.  1.
         11    1    1    2    0    0  0.23090279259E+02  0.81067869545E+01 -0.63146772910E+01  0.25273625389E+02  0.00000000000E+00 0. -1.
<mgrwt>
<rscale>  0 0.13767474E+03</rscale>
<asrwt>0</asrwt>
<pdfrwt beam="1">  1        3 0.11677167E-01 0.14489797E+03</pdfrwt>
<pdfrwt beam="2">  1       -3 0.36776378E-01 0.14489797E+03</pdfrwt>
<totfact> 0.96824619E+02</totfact>
</mgrwt>
</event>
<event>
 7    1  0.5928109E-006  0.2139561E+03  0.7546771E-02  0.1140967E+00
         -2   -1    0    0    0  501 -0.00000000000E+00  0.00000000000E+00  0.78919518398E+02  0.78919518398E+02  0.00000000000E+00 0.  1.
          2   -1    0    0  501    0  0.00000000000E+00 -0.00000000000E+00 -0.55954514976E+03  0.55954514976E+03  0.00000000000E+00 0. -1.
         23    2    1    2    0    0  0.17234801921E+03 -0.21188597620E+02 -0.19890917869E+03  0.29213366725E+03  0.12499768711E+03 0.  0.
          5    1    3    3  502    0  0.15991313708E+03 -0.59238001299E+02 -0.13964888629E+03  0.22046599205E+03  0.47000000000E+01 0.  1.
         -5    1    3    3    0  502  0.12434882129E+02  0.38049403679E+02 -0.59260292397E+02  0.71667675202E+02  0.47000000000E+01 0.  1.
        -11    1    1    2    0    0 -0.87290708489E+02  0.58095029765E+02 -0.18291065286E+03  0.21083407504E+03  0.00000000000E+00 0. -1.
         11    1    1    2    0    0 -0.85057310718E+02 -0.36906432145E+02 -0.98805799818E+02  0.13549692586E+03  0.00000000000E+00 0.  1.
<mgrwt>
<rscale>  0 0.21075790E+03</rscale>
<asrwt>0</asrwt>
<pdfrwt beam="2">  1        2 0.86083871E-01 0.21395611E+03</pdfrwt>
<pdfrwt beam="1">  1       -2 0.12141464E-01 0.21395611E+03</pdfrwt>
<totfact> 0.26320048E+03</totfact>
</mgrwt>
</event>
<event>
 6    1  0.5928109E-006  0.1925315E+03  0.7546771E-02  0.1168191E+00
          2   -1    0    0  501    0  0.00000000000E+00  0.00000000000E+00  0.70101927211E+03  0.70101927211E+03  0.00000000000E+00 0. -1.
         -2   -1    0    0    0  501 -0.00000000000E+00 -0.00000000000E+00 -0.95369160047E+02  0.95369160047E+02  0.00000000000E+00 0.  1.
          5    1    1    2  502    0  0.68667993672E+02  0.20977712097E+02  0.58797066136E+03  0.59235711051E+03  0.47000000000E+01 0. -1.
         -5    1    1    2    0  502  0.44304862671E+02 -0.15813165621E+02  0.32684911811E+02  0.57474955618E+02  0.47000000000E+01 0.  1.
        -11    1    1    2    0    0  0.56486999617E+01  0.23113605257E+02 -0.38248867561E+01  0.24099301192E+02  0.00000000000E+00 0. -1.
         11    1    1    2    0    0 -0.11862155630E+03 -0.28278151732E+02 -0.11180574346E+02  0.12245706484E+03  0.00000000000E+00 0.  1.
<mgrwt>
<rscale>  0 0.17959961E+03</rscale>
<asrwt>0</asrwt>
<pdfrwt beam="1">  1        2 0.10784912E+00 0.19253149E+03</pdfrwt>
<pdfrwt beam="2">  1       -2 0.14672179E-01 0.19253149E+03</pdfrwt>
<totfact> 0.14825455E+03</totfact>
</mgrwt>
</event>
<event>
 7    1  0.5928109E-006  0.1576007E+03  0.7546771E-02  0.1195449E+00
          1   -1    0    0  501    0  0.00000000000E+00  0.00000000000E+00  0.11685179198E+03  0.11685179198E+03  0.00000000000E+00 0. -1.
         -1   -1    0    0    0  501 -0.00000000000E+00 -0.00000000000E+00 -0.20940234597E+03  0.20940234597E+03  0.00000000000E+00 0.  1.
         23    2    1    2    0    0  0.96304069364E+02  0.58611633992E+02 -0.54177625396E+01  0.15769379245E+03  0.11012802827E+03 0.  0.
          5    1    3    3  502    0  0.10769690279E+03  0.10965697349E+02 -0.22769209252E+01  0.10837962797E+03  0.47000000000E+01 0. -1.
         -5    1    3    3    0  502 -0.11392833429E+02  0.47645936643E+02 -0.31408416143E+01  0.49314164478E+02  0.47000000000E+01 0.  1.
        -11    1    1    2    0    0 -0.82070728227E+02 -0.41332178135E+02 -0.10528009018E+03  0.13974208660E+03  0.00000000000E+00 0.  1.
         11    1    1    2    0    0 -0.14233341137E+02 -0.17279455857E+02  0.18147298727E+02  0.28818258895E+02  0.00000000000E+00 0. -1.
<mgrwt>
<rscale>  0 0.15416291E+03</rscale>
<asrwt>0</asrwt>
<pdfrwt beam="1">  1        1 0.17977199E-01 0.15760070E+03</pdfrwt>
<pdfrwt beam="2">  1       -1 0.32215745E-01 0.15760070E+03</pdfrwt>
<totfact> 0.25867950E+03</totfact>
</mgrwt>
</event>
<event>
 7    1  0.5928109E-006  0.1400420E+03  0.7546771E-02  0.1224418E+00
         -1   -1    0    0    0  501 -0.00000000000E+00  0.00000000000E+00  0.34805249716E+02  0.34805249716E+02  0.00000000000E+00 0.  1.
          1   -1    0    0  501    0  0.00000000000E+00 -0.00000000000E+00 -0.62686541734E+03  0.62686541734E+03  0.00000000000E+00 0. -1.
         23    2    1    2    0    0 -0.18158637540E+02  0.60467291105E+02 -0.49488292521E+03  0.51431593101E+03  0.12500295123E+03 0.  0.
          5    1    3    3  502    0 -0.31060937770E+02  0.59349093110E+02 -0.10790726208E+03  0.12709509793E+03  0.47000000000E+01 0. -1.
         -5    1    3    3    0  502  0.12902300229E+02  0.11181979945E+01 -0.38697566313E+03  0.38722083308E+03  0.47000000000E+01 0. -1.
        -11    1    1    2    0    0  0.17980115012E+02  0.17073992196E+02 -0.52008618042E+02  0.57616856006E+02  0.00000000000E+00 0. -1.
         11    1    1    2    0    0  0.17852252810E+00 -0.77541283301E+02 -0.45168624373E+02  0.89737880040E+02  0.00000000000E+00 0.  1.
<mgrwt>
<rscale>  0 0.13206853E+03</rscale>
<asrwt>0</asrwt>
<pdfrwt beam="2">  1        1 0.96440832E-01 0.14004202E+03</pdfrwt>
<pdfrwt beam="1">  1       -1 0.53546539E-02 0.14004202E+03</pdfrwt>
<totfact> 0.50842522E+03</totfact>
</mgrwt>
</event>
<event>
 7    1  0.5928109E-006  0.1258724E+03  0.7546771E-02  0.1249042E+00
         -1   -1    0    0    0  501 -0.00000000000E+00  0.00000000000E+00  0.23404008722E+03  0.23404008722E+03  0.00000000000E+00 0.  1.
          1   -1    0    0  501    0  0.00000000000E+00 -0.00000000000E+00 -0.58809813719E+02  0.58809813719E+02  0.00000000000E+00 0. -1.
         23    2    1    2    0    0 -0.97263425749E+01 -0.11161945265E+02  0.45892512931E+02  0.13397754277E+03  0.12499867384E+03 0.  0.
          5    1    3    3  502    0 -0.39593789082E+02 -0.29206885622E+02  0.73956389582E+02  0.88951379200E+02  0.47000000000E+01 0.  1.
         -5    1    3    3    0  502  0.29867446507E+02  0.18044940358E+02 -0.28063876650E+02  0.45026163572E+02  0.47000000000E+01 0.  1.
        -11    1    1    2    0    0  0.43174146991E+02  0.29162332371E+02  0.57376769111E+02  0.77501885341E+02  0.00000000000E+00 0.  1.
         11    1    1    2    0    0 -0.33447804416E+02 -0.18000387106E+02  0.71960991455E+02  0.81370472823E+02  0.00000000000E+00 0. -1.
<mgrwt>
<rscale>  0 0.11646700E+03</rscale>
<asrwt>0</asrwt>
<pdfrwt beam="2">  1        1 0.90476638E-02 0.12587239E+03</pdfrwt>
<pdfrwt beam="1">  1       -1 0.36006167E-01 0.12587239E+03</pdfrwt>
<totfact> 0.51852215E+03</totfact>
</mgrwt>
</event>
<event>
 7    1  0.5928109E-006  0.1639577E+03  0.7546771E-02  0.1191300E+00
          1   -1    0    0  501    0  0.00000000000E+00  0.00000000000E+00  0.59683116236E+02  0.59683116236E+02  0.00000000000E+00 0. -1.
         -1   -1    0    0    0  501 -0.00000000000E+00 -0.00000000000E+00 -0.41528978134E+03  0.41528978134E+03  0.00000000000E+00 0.  1.
         23    2    1    2    0    0 -0.15970267070E+02 -0.10510408434E+03 -0.12992957293E+03  0.20919805021E+03  0.12482072069E+03 0.  0.
          5    1    3    3  502    0 -0.20340457569E+02 -0.13323254699E+03 -0.11129298881E+03  0.17485097983E+03  0.47000000000E+01 0.  1.
         -5    1    3    3    0  502  0.43701904995E+01  0.28128462642E+02 -0.18636584120E+02  0.34347070374E+02  0.47000000000E+01 0.  1.
        -11    1    1    2    0    0  0.27533245031E+01  0.11553208590E+03 -0.15629511593E+03  0.19437954350E+03  0.00000000000E+00 0. -1.
         11    1    1    2    0    0  0.13216942567E+02 -0.10428001554E+02 -0.69381976240E+02  0.71395303866E+02  0.00000000000E+00 0.  1.
<mgrwt>
<rscale>  0 0.15771537E+03</rscale>
<asrwt>0</asrwt>
<pdfrwt beam="1">  1        1 0.91820181E-02 0.16395771E+03</pdfrwt>
<pdfrwt beam="2">  1       -1 0.63890734E-01 0.16395771E+03</pdfrwt>
<totfact> 0.18174012E+03</totfact>
</mgrwt>
</event>
<event>
 7    1  0.5928109E-006  0.2423607E+03  0.7546771E-02  0.1120962E+00
          1   -1    0    0  501    0  0.00000000000E+00  0.00000000000E+00  0.12329152162E+04  0.12329152162E+04  0.00000000000E+00 0. -1.
         -1   -1    0    0    0  501 -0.00000000000E+00 -0.00000000000E+00 -0.67575426252E+02  0.67575426252E+02  0.00000000000E+00 0.  1.
         23    2    1    2    0    0 -0.39643352664E+02  0.20382006658E+03  0.97525611873E+03  0.10049195068E+04  0.12499801241E+03 0.  0.
          5    1    3    3  502    0  0.38497752435E+02  0.10221858246E+03  0.54918381716E+03  0.55996041876E+03  0.47000000000E+01 0.  1.
         -5    1    3    3    0  502 -0.78141105099E+02  0.10160148412E+03  0.42607230157E+03  0.44495908806E+03  0.47000000000E+01 0.  1.
        -11    1    1    2    0    0 -0.37030867869E+01 -0.16972880362E+03  0.15715098468E+03  0.23133960235E+03  0.00000000000E+00 0. -1.
         11    1    1    2    0    0  0.43346439451E+02 -0.34091262967E+02  0.32932686504E+02  0.64231533254E+02  0.00000000000E+00 0.  1.
<mgrwt>
<rscale>  0 0.23825265E+03</rscale>
<asrwt>0</asrwt>
<pdfrwt beam="1">  1        1 0.18967925E+00 0.24236072E+03</pdfrwt>
<pdfrwt beam="2">  1       -1 0.10396220E-01 0.24236072E+03</pdfrwt>
<totfact> 0.62632095E+02</totfact>
</mgrwt>
</event>
<event>
 7    1  0.5928109E-006  0.1459318E+03  0.7546771E-02  0.1214400E+00
          4   -1    0    0  501    0  0.00000000000E+00  0.00000000000E+00  0.37115826375E+02  0.37115826375E+02  0.00000000000E+00 0. -1.
         -4   -1    0    0    0  501 -0.00000000000E+00 -0.00000000000E+00 -0.47934308134E+03  0.47934308134E+03  0.00000000000E+00 0.  1.
         23    2    1    2    0    0 -0.17160752029E+02 -0.73325403366E+02 -0.24213456325E+03  0.28271052826E+03  0.12499995954E+03 0.  0.
          5    1    3    3  502    0  0.16969661725E+02 -0.91708998645E+02 -0.10686943967E+03  0.14192137608E+03  0.47000000000E+01 0. -1.
         -5    1    3    3    0  502 -0.34130413753E+02  0.18383595279E+02 -0.13526512357E+03  0.14078915219E+03  0.47000000000E+01 0. -1.
        -11    1    1    2    0    0  0.41341836461E+02  0.63365300706E+02 -0.19200549713E+03  0.20637446476E+03  0.00000000000E+00 0.  1.
         11    1    1    2    0    0 -0.24181084432E+02  0.99601026603E+01 -0.80871945886E+01  0.27373914694E+02  0.00000000000E+00 0. -1.
<mgrwt>
<rscale>  0 0.13920702E+03</rscale>
<asrwt>0</asrwt>
<pdfrwt beam="1">  1        4 0.57101273E-02 0.14593182E+03</pdfrwt>
<pdfrwt beam="2">  1       -4 0.73745088E-01 0.14593182E+03</pdfrwt>
<totfact> 0.55126833E+02</totfact>
</mgrwt>
</event>
<event>
 7    1  0.5928109E-006  0.1380102E+03  0.7546771E-02  0.1227694E+00
          1   -1    0    0  501    0  0.00000000000E+00  0.00000000000E+00  0.30049964504E+03  0.30049964504E+03  0.00000000000E+00 0. -1.
         -1   -1    0    0    0  501 -0.00000000000E+00 -0.00000000000E+00 -0.50399715381E+02  0.50399715381E+02  0.00000000000E+00 0.  1.
         23    2    1    2    0    0  0.40047838930E+01  0.58338466915E+02  0.13935287506E+03  0.19612759900E+03  0.12500958478E+03 0.  0.
          5    1    3    3  502    0 -0.25356521838E+02  0.11207797924E+02 -0.15108814175E+02  0.31920748735E+02  0.47000000000E+01 0. -1.
         -5    1    3    3    0  502  0.29361305731E+02  0.47130668991E+02  0.15446168923E+03  0.16420685027E+03  0.47000000000E+01 0. -1.
        -11    1    1    2    0    0 -0.43168934727E+02 -0.49157182951E+02  0.51989166489E+02  0.83563502759E+02  0.00000000000E+00 0.  1.
         11    1    1    2    0    0  0.39164150834E+02 -0.91812839644E+01  0.58757888106E+02  0.71208258653E+02  0.00000000000E+00 0. -1.
<mgrwt>
<rscale>  0 0.12983965E+03</rscale>
<asrwt>0</asrwt>
<pdfrwt beam="1">  1        1 0.46230713E-01 0.13801019E+03</pdfrwt>
<pdfrwt beam="2">  1       -1 0.77538026E-02 0.13801019E+03</pdfrwt>
<totfact> 0.75206678E+03</totfact>
</mgrwt>
</event>
<event>
 7    1  0.5928109E-006  0.1281422E+03  0.7546771E-02  0.1246150E+00
         -2   -1    0    0    0  501 -0.00000000000E+00  0.00000000000E+00  0.14412768898E+02  0.14412768898E+02  0.00000000000E+00 0.  1.
          2   -1    0    0  501    0  0.00000000000E+00 -0.00000000000E+00 -0.86791323643E+03  0.86791323643E+03  0.00000000000E+00 0. -1.
         23    2    1    2    0    0 -0.60263442975E+01 -0.15744945491E+02 -0.56322055185E+03  0.57761388812E+03  0.12702831807E+03 0.  0.
          5    1    3    3  502    0  0.32057408423E+02  0.36037899736E+02 -0.11515501348E+03  0.12493668310E+03  0.47000000000E+01 0. -1.
         -5    1    3    3    0  502 -0.38083752721E+02 -0.51782845227E+02 -0.44806553836E+03  0.45267720502E+03  0.47000000000E+01 0.  1.
        -11    1    1    2    0    0  0.46267923719E+02  0.22293500356E+01 -0.19461235790E+03  0.20004914550E+03  0.00000000000E+00 0. -1.
         11    1    1    2    0    0 -0.40241579421E+02  0.13515595455E+02 -0.95667557783E+02  0.10466297171E+03  0.00000000000E+00 0.  1.
<mgrwt>
<rscale>  0 0.11816790E+03</rscale>
<asrwt>0</asrwt>
<pdfrwt beam="2">  1        2 0.13352513E+00 0.12814216E+03</pdfrwt>
<pdfrwt beam="1">  1       -2 0.22173487E-02 0.12814216E+03</pdfrwt>
<totfact> 0.20032259E+04</totfact>
</mgrwt>
</event>
<event>
 7    1  0.5928109E-006  0.1275285E+03  0.7546771E-02  0.1256231E+00
         -2   -1    0    0    0  501 -0.00000000000E+00  0.00000000000E+00  0.21895017824E+03  0.21895017824E+03  0.00000000000E+00 0.  1.
          2   -1    0    0  501    0  0.00000000000E+00 -0.00000000000E+00 -0.51445978979E+02  0.51445978979E+02  0.00000000000E+00 0. -1.
         23    2    1    2    0    0 -0.24909656050E+02  0.42421485793E+01  0.67629658869E+02  0.14435128490E+03  0.12500014362E+03 0.  0.
          5    1    3    3  502    0  0.21923526534E+02  0.54171672087E+02  0.26387211707E+02  0.64292970176E+02  0.47000000000E+01 0.  1.
         -5    1    3    3    0  502 -0.46833182584E+02 -0.49929523508E+02  0.41242447162E+02  0.80058314725E+02  0.47000000000E+01 0.  1.
        -11    1    1    2    0    0  0.11693567466E+02  0.33507434020E+02  0.35085111209E+02  0.49904435506E+02  0.00000000000E+00 0. -1.
         11    1    1    2    0    0  0.13216088584E+02 -0.37749582599E+02  0.64789429181E+02  0.76140436809E+02  0.00000000000E+00 0.  1.
<mgrwt>
<rscale>  0 0.11237658E+03</rscale>
<asrwt>0</asrwt>
<pdfrwt beam="2">  1        2 0.79147661E-02 0.12752852E+03</pdfrwt>
<pdfrwt beam="1">  1       -2 0.33684642E-01 0.12752852E+03</pdfrwt>
<totfact> 0.66901061E+03</totfact>
</mgrwt>
</event>
<event>
 7    1  0.5928109E-006  0.1369027E+03  0.7546771E-02  0.1229168E+00
         -1   -1    0    0    0  501 -0.00000000000E+00  0.00000000000E+00  0.24116345563E+03  0.24116345563E+03  0.00000000000E+00 0.  1.
          1   -1    0    0  501    0  0.00000000000E+00 -0.00000000000E+00 -0.89949531096E+02  0.89949531096E+02  0.00000000000E+00 0. -1.
         23    2    1    2    0    0  0.46593725792E+02 -0.30750235133E+02 -0.10125633697E+02  0.13727664961E+03  0.12500319126E+03 0.  0.
          5    1    3    3  502    0 -0.17479715410E+02 -0.75844053698E+01 -0.53083389053E+02  0.56595051453E+02  0.47000000000E+01 0.  1.
         -5    1    3    3    0  502  0.64073441201E+02 -0.23165829764E+02  0.42957755355E+02  0.80681598157E+02  0.47000000000E+01 0.  1.
        -11    1    1    2    0    0  0.75317097289E+01  0.42666557003E+02  0.34387586339E+02  0.55314264274E+02  0.00000000000E+00 0. -1.
         11    1    1    2    0    0 -0.54125435520E+02 -0.11916321869E+02  0.12695197189E+03  0.13852207284E+03  0.00000000000E+00 0.  1.
<mgrwt>
<rscale>  0 0.12885299E+03</rscale>
<asrwt>0</asrwt>
<pdfrwt beam="2">  1        1 0.13838389E-01 0.13690270E+03</pdfrwt>
<pdfrwt beam="1">  1       -1 0.37102070E-01 0.13690270E+03</pdfrwt>
<totfact> 0.28288544E+03</totfact>
</mgrwt>
</event>
<event>
 7    1  0.5928109E-006  0.1333116E+03  0.7546771E-02  0.1238403E+00
          2   -1    0    0  501    0  0.00000000000E+00  0.00000000000E+00  0.19888474682E+03  0.19888474682E+03  0.00000000000E+00 0. -1.
         -2   -1    0    0    0  501 -0.00000000000E+00 -0.00000000000E+00 -0.87686466434E+02  0.87686466434E+02  0.00000000000E+00 0.  1.
         23    2    1    2    0    0  0.38332999285E+02 -0.26025813757E+02  0.13252049941E+03  0.18797250378E+03  0.12500087039E+03 0.  0.
          5    1    3    3  502    0  0.29486437310E+02  0.94896972532E+01 -0.15829250009E+02  0.35102129494E+02  0.47000000000E+01 0. -1.
         -5    1    3    3    0  502  0.88465619757E+01 -0.35515511010E+02  0.14834974942E+03  0.15287037429E+03  0.47000000000E+01 0. -1.
        -11    1    1    2    0    0 -0.37565823197E+01 -0.16527688736E+02 -0.37733473643E+02  0.41365341034E+02  0.00000000000E+00 0.  1.
         11    1    1    2    0    0 -0.34576416966E+02  0.42553502493E+02  0.16411254612E+02  0.57233368436E+02  0.00000000000E+00 0. -1.
<mgrwt>
<rscale>  0 0.12289062E+03</rscale>
<asrwt>0</asrwt>
<pdfrwt beam="1">  1        2 0.30597653E-01 0.13331159E+03</pdfrwt>
<pdfrwt beam="2">  1       -2 0.13490226E-01 0.13331159E+03</pdfrwt>
<totfact> 0.66484612E+03</totfact>
</mgrwt>
</event>
<event>
 7    1  0.5928109E-006  0.1640222E+03  0.7546771E-02  0.1190828E+00
         -1   -1    0    0    0  501 -0.00000000000E+00  0.00000000000E+00  0.17567127375E+03  0.17567127375E+03  0.00000000000E+00 0.  1.
          1   -1    0    0  501    0  0.00000000000E+00 -0.00000000000E+00 -0.16053911409E+03  0.16053911409E+03  0.00000000000E+00 0. -1.
         23    2    1    2    0    0 -0.85733984954E+02 -0.66293648663E+02 -0.61451580830E+02  0.17515591554E+03  0.12311837367E+03 0.  0.
          5    1    3    3  502    0  0.25584843675E+02  0.23956994058E+01  0.75492862228E+01  0.27192008459E+02  0.47000000000E+01 0. -1.
         -5    1    3    3    0  502 -0.11131882863E+03 -0.68689348069E+02 -0.69000867053E+02  0.14796390708E+03  0.47000000000E+01 0.  1.
        -11    1    1    2    0    0 -0.14850529790E+02 -0.46232122307E+01  0.20694449922E+02  0.25887691746E+02  0.00000000000E+00 0.  1.
         11    1    1    2    0    0  0.10058451474E+03  0.70916860894E+02  0.55889290565E+02  0.13516678055E+03  0.00000000000E+00 0. -1.
<mgrwt>
<rscale>  0 0.15812658E+03</rscale>
<asrwt>0</asrwt>
<pdfrwt beam="2">  1        1 0.24698325E-01 0.16402225E+03</pdfrwt>
<pdfrwt beam="1">  1       -1 0.27026350E-01 0.16402225E+03</pdfrwt>
<totfact> 0.23238419E+03</totfact>
</mgrwt>
</event>
<event>
 7    1  0.5928109E-006  0.1555324E+03  0.7546771E-02  0.1202365E+00
          2   -1    0    0  501    0  0.00000000000E+00  0.00000000000E+00  0.29552734955E+03  0.29552734955E+03  0.00000000000E+00 0. -1.
         -2   -1    0    0    0  501 -0.00000000000E+00 -0.00000000000E+00 -0.11622036501E+03  0.11622036501E+03  0.00000000000E+00 0.  1.
         23    2    1    2    0    0 -0.92260318944E+02 -0.71865556752E+01  0.22605774291E+03  0.27439466521E+03  0.12500686435E+03 0.  0.
          5    1    3    3  502    0  0.10728493281E+02  0.13625346934E+02  0.13224302364E+03  0.13345807562E+03  0.47000000000E+01 0. -1.
         -5    1    3    3    0  502 -0.10298881222E+03 -0.20811902610E+02  0.93814719264E+02  0.14093658959E+03  0.47000000000E+01 0. -1.
        -11    1    1    2    0    0  0.47692320775E+02 -0.71994178083E+01 -0.70046684362E+02  0.85046617028E+02  0.00000000000E+00 0.  1.
         11    1    1    2    0    0  0.44567998169E+02  0.14385973484E+02  0.23295926004E+02  0.52306432322E+02  0.00000000000E+00 0. -1.
<mgrwt>
<rscale>  0 0.14847075E+03</rscale>
<asrwt>0</asrwt>
<pdfrwt beam="1">  1        2 0.45465746E-01 0.15553241E+03</pdfrwt>
<pdfrwt beam="2">  1       -2 0.17880056E-01 0.15553241E+03</pdfrwt>
<totfact> 0.27625781E+03</totfact>
</mgrwt>
</event>
<event>
 7    1  0.5928109E-006  0.1625069E+03  0.7546771E-02  0.1193397E+00
         -2   -1    0    0    0  501 -0.00000000000E+00  0.00000000000E+00  0.17860727839E+02  0.17860727839E+02  0.00000000000E+00 0.  1.
          2   -1    0    0  501    0  0.00000000000E+00 -0.00000000000E+00 -0.15042197066E+04  0.15042197066E+04  0.00000000000E+00 0. -1.
         23    2    1    2    0    0 -0.41251197714E+02 -0.95299801922E+02 -0.10997317966E+04  0.11116737522E+04  0.12499917370E+03 0.  0.
          5    1    3    3  502    0  0.16636262548E+01 -0.78826031776E+02 -0.98241534712E+03  0.98558526531E+03  0.47000000000E+01 0.  1.
         -5    1    3    3    0  502 -0.42914823969E+02 -0.16473770146E+02 -0.11731644943E+03  0.12608848689E+03  0.47000000000E+01 0.  1.
        -11    1    1    2    0    0  0.56610357395E+02  0.26232149941E+02 -0.12988936321E+03  0.14409755352E+03  0.00000000000E+00 0.  1.
         11    1    1    2    0    0 -0.15359159681E+02  0.69067651981E+02 -0.25673781904E+03  0.26630912876E+03  0.00000000000E+00 0. -1.
<mgrwt>
<rscale>  0 0.15590638E+03</rscale>
<asrwt>0</asrwt>
<pdfrwt beam="2">  1        2 0.23141852E+00 0.16250694E+03</pdfrwt>
<pdfrwt beam="1">  1       -2 0.27478030E-02 0.16250694E+03</pdfrwt>
<totfact> 0.64702336E+03</totfact>
</mgrwt>
</event>
<event>
 7    1  0.5928109E-006  0.1791338E+03  0.7546771E-02  0.1174543E+00
         -2   -1    0    0    0  501 -0.00000000000E+00  0.00000000000E+00  0.82303734365E+02  0.82303734365E+02  0.00000000000E+00 0.  1.
          2   -1    0    0  501    0  0.00000000000E+00 -0.00000000000E+00 -0.35789162144E+03  0.35789162144E+03  0.00000000000E+00 0. -1.
         23    2    1    2    0    0 -0.21231992575E+02  0.12654707282E+03 -0.19242760076E+03  0.26290166434E+03  0.12499577765E+03 0.  0.
          5    1    3    3  502    0  0.25565578620E+02  0.10619998373E+02  0.56324073887E+01  0.28639084982E+02  0.47000000000E+01 0. -1.
         -5    1    3    3    0  502 -0.46797571195E+02  0.11592707445E+03 -0.19806000815E+03  0.23426257936E+03  0.47000000000E+01 0. -1.
        -11    1    1    2    0    0  0.28190706701E+02 -0.13921567184E+03 -0.77137394322E+02  0.16163507303E+03  0.00000000000E+00 0.  1.
         11    1    1    2    0    0 -0.69587141260E+01  0.12668599015E+02 -0.60228919890E+01  0.15658618432E+02  0.00000000000E+00 0. -1.
<mgrwt>
<rscale>  0 0.17320779E+03</rscale>
<asrwt>0</asrwt>
<pdfrwt beam="2">  1        2 0.55060250E-01 0.17913376E+03</pdfrwt>
<pdfrwt beam="1">  1       -2 0.12662113E-01 0.17913376E+03</pdfrwt>
<totfact> 0.39934387E+03</totfact>
</mgrwt>
</event>
<event>
 6    1  0.5928109E-006  0.3407831E+03  0.7546771E-02  0.1111047E+00
         -1   -1    0    0    0  501 -0.00000000000E+00  0.00000000000E+00  0.23886040040E+03  0.23886040040E+03  0.00000000000E+00 0.  1.
          1   -1    0    0  501    0  0.00000000000E+00 -0.00000000000E+00 -0.26970988228E+03  0.26970988228E+03  0.00000000000E+00 0. -1.
          5    1    1    2  502    0 -0.17519635078E+03 -0.69609049971E+02 -0.50390240113E+02  0.19519335917E+03  0.47000000000E+01 0. -1.
         -5    1    1    2    0  502  0.14729274668E+03  0.26432968151E+02 -0.79384822822E+02  0.16946355102E+03  0.47000000000E+01 0.  1.
        -11    1    1    2    0    0 -0.20101803052E+02  0.72720471748E+01 -0.67513707840E+01  0.22417541424E+02  0.00000000000E+00 0. -1.
         11    1    1    2    0    0  0.48005407150E+02  0.35904034646E+02  0.10567695183E+03  0.12149583107E+03  0.00000000000E+00 0.  1.
<mgrwt>
<rscale>  0 0.25360635E+03</rscale>
<asrwt>0</asrwt>
<pdfrwt beam="2">  1        1 0.41493828E-01 0.34078306E+03</pdfrwt>
<pdfrwt beam="1">  1       -1 0.36747754E-01 0.34078306E+03</pdfrwt>
<totfact> 0.72194799E+02</totfact>
</mgrwt>
</event>
<event>
 7    1  0.5928109E-006  0.1324248E+03  0.7546771E-02  0.1236214E+00
          2   -1    0    0  501    0  0.00000000000E+00  0.00000000000E+00  0.70443100699E+02  0.70443100699E+02  0.00000000000E+00 0. -1.
         -2   -1    0    0    0  501 -0.00000000000E+00 -0.00000000000E+00 -0.26969243411E+03  0.26969243411E+03  0.00000000000E+00 0.  1.
         23    2    1    2    0    0  0.36069498392E+02 -0.24707263738E+02 -0.20525285868E+02  0.13400600131E+03  0.12499945373E+03 0.  0.
          5    1    3    3  502    0  0.77178166432E+02 -0.15258596811E+02 -0.38742280595E+02  0.87819977545E+02  0.47000000000E+01 0.  1.
         -5    1    3    3    0  502 -0.41108668040E+02 -0.94486669267E+01  0.18216994726E+02  0.46186023769E+02  0.47000000000E+01 0.  1.
        -11    1    1    2    0    0 -0.85765833805E+01  0.72950213954E+01  0.97331535739E+01  0.14883191799E+02  0.00000000000E+00 0. -1.
         11    1    1    2    0    0 -0.27492915011E+02  0.17412242342E+02 -0.18845720112E+03  0.19124634170E+03  0.00000000000E+00 0.  1.
<mgrwt>
<rscale>  0 0.12427065E+03</rscale>
<asrwt>0</asrwt>
<pdfrwt beam="1">  1        2 0.10837400E-01 0.13242477E+03</pdfrwt>
<pdfrwt beam="2">  1       -2 0.41491144E-01 0.13242477E+03</pdfrwt>
<totfact> 0.30832238E+03</totfact>
</mgrwt>
</event>
<event>
 7    1  0.5928109E-006  0.1451080E+03  0.7546771E-02  0.1216645E+00
         -2   -1    0    0    0  501 -0.00000000000E+00  0.00000000000E+00  0.30805063556E+02  0.30805063556E+02  0.00000000000E+00 0.  1.
          2   -1    0    0  501    0  0.00000000000E+00 -0.00000000000E+00 -0.64150930591E+03  0.64150930591E+03  0.00000000000E+00 0. -1.
         23    2    1    2    0    0  0.72545791456E+02  0.13191479139E+02 -0.45401008255E+03  0.47663558210E+03  0.12497766234E+03 0.  0.
          5    1    3    3  502    0  0.24402154665E+02 -0.46579710515E+02 -0.29873933680E+03  0.30336844914E+03  0.47000000000E+01 0. -1.
         -5    1    3    3    0  502  0.48143636791E+02  0.59771189654E+02 -0.15527074575E+03  0.17326713295E+03  0.47000000000E+01 0. -1.
        -11    1    1    2    0    0 -0.25751082009E+02 -0.21039700220E+02 -0.13837407178E+01  0.33282156606E+02  0.00000000000E+00 0.  1.
         11    1    1    2    0    0 -0.46794709447E+02  0.78482210812E+01 -0.15531041908E+03  0.16239663076E+03  0.00000000000E+00 0. -1.
<mgrwt>
<rscale>  0 0.13756421E+03</rscale>
<asrwt>0</asrwt>
<pdfrwt beam="2">  1        2 0.98693739E-01 0.14510797E+03</pdfrwt>
<pdfrwt beam="1">  1       -2 0.47392406E-02 0.14510797E+03</pdfrwt>
<totfact> 0.95180901E+03</totfact>
</mgrwt>
</event>
<event>
 7    1  0.5928109E-006  0.1654605E+03  0.7546771E-02  0.1189426E+00
         -2   -1    0    0    0  501 -0.00000000000E+00  0.00000000000E+00  0.23500105356E+03  0.23500105356E+03  0.00000000000E+00 0. -1.
          2   -1    0    0  501    0  0.00000000000E+00 -0.00000000000E+00 -0.10428793726E+03  0.10428793726E+03  0.00000000000E+00 0.  1.
         23    2    1    2    0    0 -0.62405572186E+02  0.88647595301E+02  0.39164619061E+02  0.17003250220E+03  0.12499733127E+03 0.  0.
          5    1    3    3  502    0 -0.59642298500E+02  0.68755891459E+02 -0.31491042751E+02  0.96427963549E+02  0.47000000000E+01 0.  1.
         -5    1    3    3    0  502 -0.27632736860E+01  0.19891703843E+02  0.70655661812E+02  0.73604538646E+02  0.47000000000E+01 0.  1.
        -11    1    1    2    0    0  0.36252767667E+02 -0.31305869242E+02 -0.10760981260E+02  0.49092966199E+02  0.00000000000E+00 0.  1.
         11    1    1    2    0    0  0.26152804519E+02 -0.57341726059E+02  0.10230947850E+03  0.12016352243E+03  0.00000000000E+00 0. -1.
<mgrwt>
<rscale>  0 0.15935603E+03</rscale>
<asrwt>0</asrwt>
<pdfrwt beam="2">  1        2 0.16044298E-01 0.16546052E+03</pdfrwt>
<pdfrwt beam="1">  1       -2 0.36154008E-01 0.16546052E+03</pdfrwt>
<totfact> 0.25338531E+03</totfact>
</mgrwt>
</event>
<event>
 7    1  0.5928109E-006  0.1424796E+03  0.7546771E-02  0.1220470E+00
         -2   -1    0    0    0  501 -0.00000000000E+00  0.00000000000E+00  0.28548311271E+02  0.28548311271E+02  0.00000000000E+00 0. -1.
          2   -1    0    0  501    0  0.00000000000E+00 -0.00000000000E+00 -0.57894735817E+03  0.57894735817E+03  0.00000000000E+00 0.  1.
         23    2    1    2    0    0 -0.38563129131E+01 -0.68252522968E+02 -0.28834869559E+03  0.32162929606E+03  0.12500862289E+03 0.  0.
          5    1    3    3  502    0 -0.43209424922E+02 -0.26925270084E+02 -0.24373767447E+03  0.24904250345E+03  0.47000000000E+01 0. -1.
         -5    1    3    3    0  502  0.39353112009E+02 -0.41327252883E+02 -0.44611021121E+02  0.72586792608E+02  0.47000000000E+01 0. -1.
        -11    1    1    2    0    0  0.11076420529E+02  0.81078662511E+02 -0.25790350067E+03  0.27057467041E+03  0.00000000000E+00 0.  1.
         11    1    1    2    0    0 -0.72201076155E+01 -0.12826139543E+02 -0.41468506346E+01  0.15291702971E+02  0.00000000000E+00 0. -1.
<mgrwt>
<rscale>  0 0.13482253E+03</rscale>
<asrwt>0</asrwt>
<pdfrwt beam="2">  1        2 0.89068820E-01 0.14247959E+03</pdfrwt>
<pdfrwt beam="1">  1       -2 0.43920481E-02 0.14247959E+03</pdfrwt>
<totfact> 0.11981866E+04</totfact>
</mgrwt>
</event>
<event>
 7    1  0.5928109E-006  0.2106951E+03  0.7546771E-02  0.1144178E+00
          2   -1    0    0  501    0  0.00000000000E+00  0.00000000000E+00  0.10859458796E+04  0.10859458796E+04  0.00000000000E+00 0. -1.
         -2   -1    0    0    0  501 -0.00000000000E+00 -0.00000000000E+00 -0.43642708126E+02  0.43642708126E+02  0.00000000000E+00 0.  1.
         23    2    1    2    0    0 -0.16054401753E+03  0.54719271350E+02  0.74226767150E+03  0.77159167483E+03  0.12499534508E+03 0.  0.
          5    1    3    3  502    0  0.14560996269E+02 -0.14155152739E+02  0.49500751820E+02  0.53710384398E+02  0.47000000000E+01 0.  1.
         -5    1    3    3    0  502 -0.17510501380E+03  0.68874424089E+02  0.69276691968E+03  0.71788129043E+03  0.47000000000E+01 0.  1.
        -11    1    1    2    0    0  0.10145122879E+03 -0.17942364520E+02  0.25517993733E+03  0.27519280638E+03  0.00000000000E+00 0. -1.
         11    1    1    2    0    0  0.59092788735E+02 -0.36776906830E+02  0.44855562658E+02  0.82804106528E+02  0.00000000000E+00 0.  1.
<mgrwt>
<rscale>  0 0.20673503E+03</rscale>
<asrwt>0</asrwt>
<pdfrwt beam="1">  1        2 0.16706858E+00 0.21069508E+03</pdfrwt>
<pdfrwt beam="2">  1       -2 0.67142636E-02 0.21069508E+03</pdfrwt>
<totfact> 0.28827746E+03</totfact>
</mgrwt>
</event>
<event>
 7    1  0.5928109E-006  0.1348141E+03  0.7546771E-02  0.1233447E+00
         -2   -1    0    0    0  501 -0.00000000000E+00  0.00000000000E+00  0.56534279950E+03  0.56534279950E+03  0.00000000000E+00 0. -1.
          2   -1    0    0  501    0  0.00000000000E+00 -0.00000000000E+00 -0.31596634704E+02  0.31596634704E+02  0.00000000000E+00 0.  1.
         23    2    1    2    0    0  0.74405665276E+00 -0.50493940240E+02  0.15983449224E+03  0.20909783006E+03  0.12499858401E+03 0.  0.
          5    1    3    3  502    0  0.25575371221E+02 -0.72031414813E+01 -0.12415423090E+02  0.29702147915E+02  0.47000000000E+01 0.  1.
         -5    1    3    3    0  502 -0.24831314568E+02 -0.43290798759E+02  0.17224991533E+03  0.17939568215E+03  0.47000000000E+01 0.  1.
        -11    1    1    2    0    0  0.20153633697E+01  0.76423017214E+02  0.26154723770E+03  0.27249127839E+03  0.00000000000E+00 0.  1.
         11    1    1    2    0    0 -0.27594200224E+01 -0.25929076974E+02  0.11236443485E+03  0.11535032575E+03  0.00000000000E+00 0. -1.
<mgrwt>
<rscale>  0 0.12604391E+03</rscale>
<asrwt>0</asrwt>
<pdfrwt beam="2">  1        2 0.48610212E-02 0.13481409E+03</pdfrwt>
<pdfrwt beam="1">  1       -2 0.86975807E-01 0.13481409E+03</pdfrwt>
<totfact> 0.18542851E+03</totfact>
</mgrwt>
</event>
<event>
 7    1  0.5928109E-006  0.1316745E+03  0.7546771E-02  0.1234866E+00
          2   -1    0    0  501    0  0.00000000000E+00  0.00000000000E+00  0.24736437442E+03  0.24736437442E+03  0.00000000000E+00 0. -1.
         -2   -1    0    0    0  501 -0.00000000000E+00 -0.00000000000E+00 -0.90669829131E+02  0.90669829131E+02  0.00000000000E+00 0.  1.
         23    2    1    2    0    0  0.33457911601E+02 -0.33379405741E+02  0.18491311744E+03  0.22700449707E+03  0.12290062697E+03 0.  0.
          5    1    3    3  502    0  0.68087310631E+02  0.10416473155E+02  0.65810494714E+02  0.95380794694E+02  0.47000000000E+01 0. -1.
         -5    1    3    3    0  502 -0.34629399030E+02 -0.43795878896E+02  0.11910262273E+03  0.13162370237E+03  0.47000000000E+01 0.  1.
        -11    1    1    2    0    0 -0.57490004010E+02  0.39408195182E+02 -0.43270447939E+02  0.82039247153E+02  0.00000000000E+00 0.  1.
         11    1    1    2    0    0  0.24032092409E+02 -0.60287894411E+01  0.15051875790E+02  0.28990459336E+02  0.00000000000E+00 0. -1.
<mgrwt>
<rscale>  0 0.12512991E+03</rscale>
<asrwt>0</asrwt>
<pdfrwt beam="1">  1        2 0.38056057E-01 0.13167453E+03</pdfrwt>
<pdfrwt beam="2">  1       -2 0.13949205E-01 0.13167453E+03</pdfrwt>
<totfact> 0.49806266E+03</totfact>
</mgrwt>
</event>
<event>
 7    1  0.5928109E-006  0.1560298E+03  0.7546771E-02  0.1201360E+00
          3   -1    0    0  501    0  0.00000000000E+00  0.00000000000E+00  0.17815261219E+03  0.17815261219E+03  0.00000000000E+00 0. -1.
         -3   -1    0    0    0  501 -0.00000000000E+00 -0.00000000000E+00 -0.11868509677E+03  0.11868509677E+03  0.00000000000E+00 0.  1.
         23    2    1    2    0    0 -0.88407791665E+02  0.30065638362E+02  0.56890745383E+02  0.16607789154E+03  0.12500171564E+03 0.  0.
          5    1    3    3  502    0 -0.40344178324E+02  0.65385300421E+02  0.70876164234E+02  0.10463465436E+03  0.47000000000E+01 0.  1.
         -5    1    3    3    0  502 -0.48063613341E+02 -0.35319662059E+02 -0.13985418851E+02  0.61443237186E+02  0.47000000000E+01 0.  1.
        -11    1    1    2    0    0  0.39740932153E+02  0.30093503362E+02 -0.13677178297E+02  0.51691641869E+02  0.00000000000E+00 0.  1.
         11    1    1    2    0    0  0.48666859512E+02 -0.60159141723E+02  0.16253948334E+02  0.79068175546E+02  0.00000000000E+00 0. -1.
<mgrwt>
<rscale>  0 0.14928055E+03</rscale>
<asrwt>0</asrwt>
<pdfrwt beam="1">  1        3 0.27408094E-01 0.15602983E+03</pdfrwt>
<pdfrwt beam="2">  1       -3 0.18259246E-01 0.15602983E+03</pdfrwt>
<totfact> 0.78944055E+02</totfact>
</mgrwt>
</event>
<event>
 7    1  0.5928109E-006  0.1602737E+03  0.7546771E-02  0.1195920E+00
         -4   -1    0    0    0  501 -0.00000000000E+00  0.00000000000E+00  0.19482347440E+02  0.19482347440E+02  0.00000000000E+00 0.  1.
          4   -1    0    0  501    0  0.00000000000E+00 -0.00000000000E+00 -0.12247353822E+04  0.12247353822E+04  0.00000000000E+00 0. -1.
         23    2    1    2    0    0  0.82756866751E+02  0.56677951339E+02 -0.82557506292E+03  0.84098861756E+03  0.12500632462E+03 0.  0.
          5    1    3    3  502    0  0.11485230566E+03  0.47466548700E+02 -0.70018462012E+03  0.71114324690E+03  0.47000000000E+01 0.  1.
         -5    1    3    3    0  502 -0.32095438907E+02  0.92114026389E+01 -0.12539044280E+03  0.12984537066E+03  0.47000000000E+01 0.  1.
        -11    1    1    2    0    0 -0.25016590115E+02  0.22143303252E+02 -0.14921746107E+03  0.15291176000E+03  0.00000000000E+00 0. -1.
         11    1    1    2    0    0 -0.57740276635E+02 -0.78821254591E+02 -0.23046051075E+03  0.25031735204E+03  0.00000000000E+00 0.  1.
<mgrwt>
<rscale>  0 0.15376661E+03</rscale>
<asrwt>0</asrwt>
<pdfrwt beam="2">  1        4 0.18842083E+00 0.16027374E+03</pdfrwt>
<pdfrwt beam="1">  1       -4 0.29972841E-02 0.16027374E+03</pdfrwt>
<totfact> 0.16080199E+02</totfact>
</mgrwt>
</event>
<event>
 6    1  0.5928109E-006  0.1385938E+03  0.7546771E-02  0.1229147E+00
         -3   -1    0    0    0  501 -0.00000000000E+00  0.00000000000E+00  0.53569750366E+02  0.53569750366E+02  0.00000000000E+00 0.  1.
          3   -1    0    0  501    0  0.00000000000E+00 -0.00000000000E+00 -0.28776915014E+03  0.28776915014E+03  0.00000000000E+00 0. -1.
          5    1    1    2  502    0  0.62704459452E+01  0.23935572017E+02 -0.14161740524E+03  0.14383952714E+03  0.47000000000E+01 0. -1.
         -5    1    1    2    0  502 -0.44130030996E+02 -0.54368063050E+02 -0.28903224818E+02  0.75900147038E+02  0.47000000000E+01 0.  1.
        -11    1    1    2    0    0 -0.30038086276E+02  0.37745473391E+01 -0.14064486429E+02  0.33381785651E+02  0.00000000000E+00 0.  1.
         11    1    1    2    0    0  0.67897671328E+02  0.26657943694E+02 -0.49614283286E+02  0.88217440678E+02  0.00000000000E+00 0. -1.
<mgrwt>
<rscale>  0 0.12886643E+03</rscale>
<asrwt>0</asrwt>
<pdfrwt beam="2">  1        3 0.44272177E-01 0.13859379E+03</pdfrwt>
<pdfrwt beam="1">  1       -3 0.82415000E-02 0.13859379E+03</pdfrwt>
<totfact> 0.11956637E+03</totfact>
</mgrwt>
</event>
<event>
 7    1  0.5928109E-006  0.1502591E+03  0.7546771E-02  0.1209264E+00
         -2   -1    0    0    0  501 -0.00000000000E+00  0.00000000000E+00  0.23364249968E+02  0.23364249968E+02  0.00000000000E+00 0. -1.
          2   -1    0    0  501    0  0.00000000000E+00 -0.00000000000E+00 -0.82226411325E+03  0.82226411325E+03  0.00000000000E+00 0.  1.
         23    2    1    2    0    0  0.78854036179E+02 -0.27201630132E+02 -0.37116667999E+03  0.40042790114E+03  0.12497964624E+03 0.  0.
          5    1    3    3  502    0 -0.27426421305E+02  0.15190433738E+02 -0.47580521956E+02  0.57174766570E+02  0.47000000000E+01 0. -1.
         -5    1    3    3    0  502  0.10628045748E+03 -0.42392063870E+02 -0.32358615804E+03  0.34325313457E+03  0.47000000000E+01 0. -1.
        -11    1    1    2    0    0  0.45955150424E+01 -0.22336878344E+02 -0.13188453278E+03  0.13384164105E+03  0.00000000000E+00 0.  1.
         11    1    1    2    0    0 -0.83449551221E+02  0.49538508476E+02 -0.29584865052E+03  0.31135882103E+03  0.00000000000E+00 0. -1.
<mgrwt>
<rscale>  0 0.14306435E+03</rscale>
<asrwt>0</asrwt>
<pdfrwt beam="2">  1        2 0.12650215E+00 0.15025911E+03</pdfrwt>
<pdfrwt beam="1">  1       -2 0.35945006E-02 0.15025911E+03</pdfrwt>
<totfact> 0.10674676E+04</totfact>
</mgrwt>
</event>
<event>
 6    1  0.5928109E-006  0.3602668E+03  0.7546771E-02  0.1058478E+00
         -1   -1    0    0    0  501 -0.00000000000E+00  0.00000000000E+00  0.21962597794E+03  0.21962597794E+03  0.00000000000E+00 0.  1.
          1   -1    0    0  501    0  0.00000000000E+00 -0.00000000000E+00 -0.14774229062E+03  0.14774229062E+03  0.00000000000E+00 0. -1.
          5    1    1    2  502    0  0.13782107881E+02 -0.40320738782E+02 -0.12406405530E+03  0.13126190724E+03  0.47000000000E+01 0. -1.
         -5    1    1    2    0  502 -0.18684153567E+02  0.22308506426E+01  0.29896333429E+02  0.35636428576E+02  0.47000000000E+01 0.  1.
        -11    1    1    2    0    0  0.45530244266E+02  0.28094923616E+01  0.31163079864E+02  0.55245216416E+02  0.00000000000E+00 0. -1.
         11    1    1    2    0    0 -0.40628198580E+02  0.35280395778E+02  0.13488832933E+03  0.14522471634E+03  0.00000000000E+00 0.  1.
<mgrwt>
<rscale>  0 0.36026682E+03</rscale>
<asrwt>0</asrwt>
<pdfrwt beam="2">  1        1 0.22729583E-01 0.36026682E+03</pdfrwt>
<pdfrwt beam="1">  1       -1 0.33788612E-01 0.36026682E+03</pdfrwt>
<totfact> 0.18064417E+03</totfact>
</mgrwt>
</event>
<event>
 7    1  0.5928109E-006  0.1399064E+03  0.7546771E-02  0.1224319E+00
          2   -1    0    0  501    0  0.00000000000E+00  0.00000000000E+00  0.57611730796E+03  0.57611730796E+03  0.00000000000E+00 0. -1.
         -2   -1    0    0    0  501 -0.00000000000E+00 -0.00000000000E+00 -0.31805849285E+02  0.31805849285E+02  0.00000000000E+00 0.  1.
         23    2    1    2    0    0 -0.71514173253E+01  0.62401632600E+02  0.41146708312E+03  0.43460207356E+03  0.12501478044E+03 0.  0.
          5    1    3    3  502    0 -0.57016059770E+02  0.56504902022E+02  0.17180034606E+03  0.18968680484E+03  0.47000000000E+01 0. -1.
         -5    1    3    3    0  502  0.49864642445E+02  0.58967305783E+01  0.23966673706E+03  0.24491526872E+03  0.47000000000E+01 0. -1.
        -11    1    1    2    0    0 -0.20733598657E+02  0.33962328516E+01  0.84424479262E+02  0.86999478214E+02  0.00000000000E+00 0. -1.
         11    1    1    2    0    0  0.27885015982E+02 -0.65797865452E+02  0.48419896289E+02  0.86321605470E+02  0.00000000000E+00 0.  1.
<mgrwt>
<rscale>  0 0.13213667E+03</rscale>
<asrwt>0</asrwt>
<pdfrwt beam="1">  1        2 0.88633424E-01 0.13990640E+03</pdfrwt>
<pdfrwt beam="2">  1       -2 0.48932080E-02 0.13990640E+03</pdfrwt>
<totfact> 0.10235712E+04</totfact>
</mgrwt>
</event>
<event>
 7    1  0.5928109E-006  0.1260957E+03  0.7546771E-02  0.1245783E+00
         -1   -1    0    0    0  501 -0.00000000000E+00  0.00000000000E+00  0.51053893149E+02  0.51053893149E+02  0.00000000000E+00 0.  1.
          1   -1    0    0  501    0  0.00000000000E+00 -0.00000000000E+00 -0.45904446715E+03  0.45904446715E+03  0.00000000000E+00 0. -1.
         23    2    1    2    0    0 -0.11674298314E+02  0.11776022580E+02 -0.39078540883E+03  0.41062556150E+03  0.12500060824E+03 0.  0.
          5    1    3    3  502    0  0.36646061177E+02 -0.10644539344E+02 -0.31795480935E+03  0.32027112078E+03  0.47000000000E+01 0.  1.
         -5    1    3    3    0  502 -0.48320359492E+02  0.22420561924E+02 -0.72830599481E+02  0.90354440727E+02  0.47000000000E+01 0.  1.
        -11    1    1    2    0    0  0.58763558245E+01  0.19095400856E+02  0.33979780495E+02  0.39418160461E+02  0.00000000000E+00 0.  1.
         11    1    1    2    0    0  0.57979424898E+01 -0.30871423436E+02 -0.51184945667E+02  0.60054638330E+02  0.00000000000E+00 0. -1.
<mgrwt>
<rscale>  0 0.11838654E+03</rscale>
<asrwt>0</asrwt>
<pdfrwt beam="2">  1        1 0.70622223E-01 0.12609566E+03</pdfrwt>
<pdfrwt beam="1">  1       -1 0.78544454E-02 0.12609566E+03</pdfrwt>
<totfact> 0.43125725E+03</totfact>
</mgrwt>
</event>
<event>
 7    1  0.5928109E-006  0.1390265E+03  0.7546771E-02  0.1226746E+00
         -2   -1    0    0    0  501 -0.00000000000E+00  0.00000000000E+00  0.60151479084E+02  0.60151479084E+02  0.00000000000E+00 0.  1.
          2   -1    0    0  501    0  0.00000000000E+00 -0.00000000000E+00 -0.27476791467E+03  0.27476791467E+03  0.00000000000E+00 0. -1.
         23    2    1    2    0    0  0.31110436809E+02 -0.52293918223E+02 -0.16621747337E+03  0.21669473415E+03  0.12500338473E+03 0.  0.
          5    1    3    3  502    0 -0.36895161972E+02 -0.55372506114E+02 -0.10828891909E+03  0.12718469801E+03  0.47000000000E+01 0.  1.
         -5    1    3    3    0  502  0.68005598781E+02  0.30785878905E+01 -0.57928554276E+02  0.89510036138E+02  0.47000000000E+01 0.  1.
        -11    1    1    2    0    0 -0.16974195904E+02  0.36971890550E+02  0.20985586937E+02  0.45775963960E+02  0.00000000000E+00 0.  1.
         11    1    1    2    0    0 -0.14136240905E+02  0.15322027674E+02 -0.69384549149E+02  0.72448695638E+02  0.00000000000E+00 0. -1.
<mgrwt>
<rscale>  0 0.13047945E+03</rscale>
<asrwt>0</asrwt>
<pdfrwt beam="2">  1        2 0.42271986E-01 0.13902647E+03</pdfrwt>
<pdfrwt beam="1">  1       -2 0.92540738E-02 0.13902647E+03</pdfrwt>
<totfact> 0.85817365E+03</totfact>
</mgrwt>
</event>
<event>
 6    1  0.5928109E-006  0.1795713E+03  0.7546771E-02  0.1233033E+00
         -2   -1    0    0    0  501 -0.00000000000E+00  0.00000000000E+00  0.15714581950E+03  0.15714581950E+03  0.00000000000E+00 0.  1.
          2   -1    0    0  501    0  0.00000000000E+00 -0.00000000000E+00 -0.11688476737E+03  0.11688476737E+03  0.00000000000E+00 0. -1.
          5    1    1    2  502    0 -0.21119508102E+02 -0.40238909172E+02 -0.92523777228E+02  0.10318886949E+03  0.47000000000E+01 0. -1.
         -5    1    1    2    0  502  0.51834500066E+01  0.59416102453E+02  0.53858119621E+02  0.80498002670E+02  0.47000000000E+01 0.  1.
        -11    1    1    2    0    0  0.20463774839E+02  0.35651365504E+01  0.37144064664E+02  0.42557699880E+02  0.00000000000E+00 0. -1.
         11    1    1    2    0    0 -0.45277167433E+01 -0.22742329832E+02  0.41782645073E+02  0.47786014842E+02  0.00000000000E+00 0.  1.
<mgrwt>
<rscale>  0 0.12631190E+03</rscale>
<asrwt>0</asrwt>
<pdfrwt beam="2">  1        2 0.17982272E-01 0.17957125E+03</pdfrwt>
<pdfrwt beam="1">  1       -2 0.24176280E-01 0.17957125E+03</pdfrwt>
<totfact> 0.46065222E+03</totfact>
</mgrwt>
</event>
<event>
 7    1  0.5928109E-006  0.1472716E+03  0.7546771E-02  0.1213350E+00
         -2   -1    0    0    0  501 -0.00000000000E+00  0.00000000000E+00  0.44149396731E+02  0.44149396731E+02  0.00000000000E+00 0.  1.
          2   -1    0    0  501    0  0.00000000000E+00 -0.00000000000E+00 -0.43778876419E+03  0.43778876419E+03  0.00000000000E+00 0. -1.
         23    2    1    2    0    0 -0.77152724559E+02 -0.10535550232E+02 -0.28072218696E+03  0.31700766077E+03  0.12500148003E+03 0.  0.
          5    1    3    3  502    0 -0.89926282112E+02  0.34819901184E+02 -0.21795596164E+03  0.23838215736E+03  0.47000000000E+01 0.  1.
         -5    1    3    3    0  502  0.12773557553E+02 -0.45355451416E+02 -0.62766225324E+02  0.78625503414E+02  0.47000000000E+01 0.  1.
        -11    1    1    2    0    0  0.23407888431E+02  0.40743109299E+02 -0.15192793267E+02  0.49383713544E+02  0.00000000000E+00 0.  1.
         11    1    1    2    0    0  0.53744836128E+02 -0.30207559067E+02 -0.97724387233E+02  0.11554678661E+03  0.00000000000E+00 0. -1.
<mgrwt>
<rscale>  0 0.13998430E+03</rscale>
<asrwt>0</asrwt>
<pdfrwt beam="2">  1        2 0.67352118E-01 0.14727155E+03</pdfrwt>
<pdfrwt beam="1">  1       -2 0.67922148E-02 0.14727155E+03</pdfrwt>
<totfact> 0.84573201E+03</totfact>
</mgrwt>
</event>
<event>
 7    1  0.5928109E-006  0.1539206E+03  0.7546771E-02  0.1203606E+00
          1   -1    0    0  501    0  0.00000000000E+00  0.00000000000E+00  0.71511983621E+03  0.71511983621E+03  0.00000000000E+00 0. -1.
         -1   -1    0    0    0  501 -0.00000000000E+00 -0.00000000000E+00 -0.32527298191E+02  0.32527298191E+02  0.00000000000E+00 0.  1.
         23    2    1    2    0    0 -0.56312061006E+02  0.69970096664E+02  0.50353557499E+03  0.52653550230E+03  0.12499878900E+03 0.  0.
          5    1    3    3  502    0  0.27241540181E+02  0.60401125912E+02  0.27682232096E+03  0.28468067182E+03  0.47000000000E+01 0. -1.
         -5    1    3    3    0  502 -0.83553601187E+02  0.95689707525E+01  0.22671325403E+03  0.24185483048E+03  0.47000000000E+01 0. -1.
        -11    1    1    2    0    0  0.33032608462E+02 -0.71854295120E+02  0.18115234042E+03  0.19766224573E+03  0.00000000000E+00 0. -1.
         11    1    1    2    0    0  0.23279452544E+02  0.18841984561E+01 -0.20953773987E+01  0.23449386367E+02  0.00000000000E+00 0.  1.
<mgrwt>
<rscale>  0 0.14747886E+03</rscale>
<asrwt>0</asrwt>
<pdfrwt beam="1">  1        1 0.11001843E+00 0.15392063E+03</pdfrwt>
<pdfrwt beam="2">  1       -1 0.50042002E-02 0.15392063E+03</pdfrwt>
<totfact> 0.46872703E+03</totfact>
</mgrwt>
</event>
<event>
 7    1  0.5928109E-006  0.1272595E+03  0.7546771E-02  0.1246464E+00
         -2   -1    0    0    0  501 -0.00000000000E+00  0.00000000000E+00  0.42797419479E+02  0.42797419479E+02  0.00000000000E+00 0.  1.
          2   -1    0    0  501    0  0.00000000000E+00 -0.00000000000E+00 -0.29296916316E+03  0.29296916316E+03  0.00000000000E+00 0. -1.
         23    2    1    2    0    0  0.13932834686E+02 -0.19379956819E+02 -0.16902514942E+03  0.21157616579E+03  0.12500106475E+03 0.  0.
          5    1    3    3  502    0 -0.26372490559E+02  0.42749480518E+02 -0.48143860482E+02  0.69734838101E+02  0.47000000000E+01 0.  1.
         -5    1    3    3    0  502  0.40305325246E+02 -0.62129437337E+02 -0.12088128894E+03  0.14184132769E+03  0.47000000000E+01 0.  1.
        -11    1    1    2    0    0 -0.37193933481E+02 -0.24184913416E+02 -0.43036300014E+02  0.61809561102E+02  0.00000000000E+00 0. -1.
         11    1    1    2    0    0  0.23261098795E+02  0.43564870235E+02 -0.38110294254E+02  0.62380855748E+02  0.00000000000E+00 0.  1.
<mgrwt>
<rscale>  0 0.11798175E+03</rscale>
<asrwt>0</asrwt>
<pdfrwt beam="2">  1        2 0.45072180E-01 0.12725947E+03</pdfrwt>
<pdfrwt beam="1">  1       -2 0.65842182E-02 0.12725947E+03</pdfrwt>
<totfact> 0.13457061E+04</totfact>
</mgrwt>
</event>
<event>
 7    1  0.5928109E-006  0.1346692E+03  0.7546771E-02  0.1233305E+00
         -4   -1    0    0    0  501 -0.00000000000E+00  0.00000000000E+00  0.31738221707E+02  0.31738221707E+02  0.00000000000E+00 0.  1.
          4   -1    0    0  501    0  0.00000000000E+00 -0.00000000000E+00 -0.97852928523E+03  0.97852928523E+03  0.00000000000E+00 0. -1.
         23    2    1    2    0    0 -0.46455404928E+02  0.17899640835E+02 -0.87229071666E+03  0.88262499447E+03  0.12512907222E+03 0.  0.
          5    1    3    3  502    0  0.36036175977E+01  0.49184879233E+02 -0.67041902172E+03  0.67224689890E+03  0.47000000000E+01 0. -1.
         -5    1    3    3    0  502 -0.50059022526E+02 -0.31285238398E+02 -0.20187169494E+03  0.21037809557E+03  0.47000000000E+01 0. -1.
        -11    1    1    2    0    0 -0.13754197223E+01 -0.13412534053E+02  0.18544204579E+02  0.22927611577E+02  0.00000000000E+00 0.  1.
         11    1    1    2    0    0  0.47830824650E+02 -0.44871067816E+01 -0.93044551450E+02  0.10471490089E+03  0.00000000000E+00 0. -1.
<mgrwt>
<rscale>  0 0.12613580E+03</rscale>
<asrwt>0</asrwt>
<pdfrwt beam="2">  1        4 0.15054294E+00 0.13466917E+03</pdfrwt>
<pdfrwt beam="1">  1       -4 0.48828042E-02 0.13466917E+03</pdfrwt>
<totfact> 0.13119391E+02</totfact>
</mgrwt>
</event>
<event>
 7    1  0.5928109E-006  0.1851759E+03  0.7546771E-02  0.1168093E+00
         -4   -1    0    0    0  501 -0.00000000000E+00  0.00000000000E+00  0.50246321780E+03  0.50246321780E+03  0.00000000000E+00 0.  1.
          4   -1    0    0  501    0  0.00000000000E+00 -0.00000000000E+00 -0.61051919257E+02  0.61051919257E+02  0.00000000000E+00 0. -1.
         23    2    1    2    0    0  0.13664173266E+03  0.12672936025E+01  0.25391823410E+03  0.31426830415E+03  0.12497010941E+03 0.  0.
          5    1    3    3  502    0  0.13227394807E+03 -0.39267151121E+02  0.22530188491E+03  0.26423727186E+03  0.47000000000E+01 0.  1.
         -5    1    3    3    0  502  0.43677845955E+01  0.40534444723E+02  0.28616349193E+02  0.50031032294E+02  0.47000000000E+01 0.  1.
        -11    1    1    2    0    0 -0.90901604932E+02  0.26935492467E+02  0.16641058008E+03  0.19152311531E+03  0.00000000000E+00 0.  1.
         11    1    1    2    0    0 -0.45740127731E+02 -0.28202786070E+02  0.21082484362E+02  0.57723717602E+02  0.00000000000E+00 0. -1.
<mgrwt>
<rscale>  0 0.17970041E+03</rscale>
<asrwt>0</asrwt>
<pdfrwt beam="2">  1        4 0.93926033E-02 0.18517586E+03</pdfrwt>
<pdfrwt beam="1">  1       -4 0.77302031E-01 0.18517586E+03</pdfrwt>
<totfact> 0.22746291E+02</totfact>
</mgrwt>
</event>
<event>
 7    1  0.5928109E-006  0.1434069E+03  0.7546771E-02  0.1219464E+00
          2   -1    0    0  501    0  0.00000000000E+00  0.00000000000E+00  0.15085978647E+03  0.15085978647E+03  0.00000000000E+00 0. -1.
         -2   -1    0    0    0  501 -0.00000000000E+00 -0.00000000000E+00 -0.11331083197E+03  0.11331083197E+03  0.00000000000E+00 0.  1.
         23    2    1    2    0    0 -0.85672439576E+01  0.69756664118E+02  0.42704100299E+02  0.14963012530E+03  0.12500457734E+03 0.  0.
          5    1    3    3  502    0 -0.47227115863E+02  0.29754955747E+02 -0.25451900229E+02  0.61527612415E+02  0.47000000000E+01 0.  1.
         -5    1    3    3    0  502  0.38659871906E+02  0.40001708371E+02  0.68156000528E+02  0.88102512883E+02  0.47000000000E+01 0.  1.
        -11    1    1    2    0    0  0.31729206846E+02 -0.20954802107E+02  0.31401303056E+02  0.49314177800E+02  0.00000000000E+00 0.  1.
         11    1    1    2    0    0 -0.23161962889E+02 -0.48801862011E+02 -0.36556448858E+02  0.65226315347E+02  0.00000000000E+00 0. -1.
<mgrwt>
<rscale>  0 0.13553679E+03</rscale>
<asrwt>0</asrwt>
<pdfrwt beam="1">  1        2 0.23209198E-01 0.14340688E+03</pdfrwt>
<pdfrwt beam="2">  1       -2 0.17432436E-01 0.14340688E+03</pdfrwt>
<totfact> 0.59421684E+03</totfact>
</mgrwt>
</event>
<event>
 7    1  0.5928109E-006  0.1556991E+03  0.7546771E-02  0.1202144E+00
          1   -1    0    0  501    0  0.00000000000E+00  0.00000000000E+00  0.11252998687E+04  0.11252998687E+04  0.00000000000E+00 0. -1.
         -1   -1    0    0    0  501 -0.00000000000E+00 -0.00000000000E+00 -0.30765321155E+02  0.30765321155E+02  0.00000000000E+00 0.  1.
         23    2    1    2    0    0 -0.91503978714E+02  0.15644353742E+02  0.94759422653E+03  0.96030049471E+03  0.12499799224E+03 0.  0.
          5    1    3    3  502    0 -0.11499784804E+03 -0.11321312319E+02  0.61707711624E+03  0.62782078219E+03  0.47000000000E+01 0.  1.
         -5    1    3    3    0  502  0.23493869321E+02  0.26965666061E+02  0.33051711029E+03  0.33247971252E+03  0.47000000000E+01 0.  1.
        -11    1    1    2    0    0  0.10595199851E+03 -0.28599518737E+01  0.10308256241E+03  0.14785134422E+03  0.00000000000E+00 0.  1.
         11    1    1    2    0    0 -0.14448019797E+02 -0.12784401868E+02  0.43857758574E+02  0.47913350899E+02  0.00000000000E+00 0. -1.
<mgrwt>
<rscale>  0 0.14864808E+03</rscale>
<asrwt>0</asrwt>
<pdfrwt beam="1">  1        1 0.17312303E+00 0.15569914E+03</pdfrwt>
<pdfrwt beam="2">  1       -1 0.47331272E-02 0.15569914E+03</pdfrwt>
<totfact> 0.24547567E+03</totfact>
</mgrwt>
</event>
<event>
 7    1  0.5928109E-006  0.1466330E+03  0.7546771E-02  0.1214751E+00
          2   -1    0    0  501    0  0.00000000000E+00  0.00000000000E+00  0.51635398496E+02  0.51635398496E+02  0.00000000000E+00 0. -1.
         -2   -1    0    0    0  501 -0.00000000000E+00 -0.00000000000E+00 -0.33987109338E+03  0.33987109338E+03  0.00000000000E+00 0.  1.
         23    2    1    2    0    0  0.76620535131E+02  0.22775858694E+01 -0.16455121786E+03  0.22040493324E+03  0.12500134997E+03 0.  0.
          5    1    3    3  502    0  0.28729674847E+02  0.62734203081E+02 -0.71937058783E+02  0.99789803484E+02  0.47000000000E+01 0. -1.
         -5    1    3    3    0  502  0.47890860283E+02 -0.60456617212E+02 -0.92614159081E+02  0.12061512975E+03  0.47000000000E+01 0. -1.
        -11    1    1    2    0    0 -0.42592984488E+02  0.42162574860E+01 -0.14953668331E+00  0.42801419556E+02  0.00000000000E+00 0. -1.
         11    1    1    2    0    0 -0.34027550642E+02 -0.64938433554E+01 -0.12353494034E+03  0.12830013908E+03  0.00000000000E+00 0.  1.
<mgrwt>
<rscale>  0 0.13894853E+03</rscale>
<asrwt>0</asrwt>
<pdfrwt beam="1">  1        2 0.79439077E-02 0.14663298E+03</pdfrwt>
<pdfrwt beam="2">  1       -2 0.52287859E-01 0.14663298E+03</pdfrwt>
<totfact> 0.29012477E+03</totfact>
</mgrwt>
</event>
<event>
 6    1  0.5928109E-006  0.2598409E+03  0.7546771E-02  0.1137393E+00
         -1   -1    0    0    0  501 -0.00000000000E+00  0.00000000000E+00  0.48076852315E+03  0.48076852315E+03  0.00000000000E+00 0.  1.
          1   -1    0    0  501    0  0.00000000000E+00 -0.00000000000E+00 -0.14041283240E+03  0.14041283240E+03  0.00000000000E+00 0. -1.
          5    1    1    2  502    0  0.66137045347E+02 -0.10405420882E+03 -0.92246032219E+02  0.15405456046E+03  0.47000000000E+01 0. -1.
         -5    1    1    2    0  502 -0.45721190230E+01  0.50546428488E+02  0.92697877223E+02  0.10578672954E+03  0.47000000000E+01 0.  1.
        -11    1    1    2    0    0  0.17619803849E+02  0.10904383469E+02  0.19128799680E+02  0.28200603605E+02  0.00000000000E+00 0. -1.
         11    1    1    2    0    0 -0.79184730173E+02  0.42603396859E+02  0.32077504607E+03  0.33313946193E+03  0.00000000000E+00 0.  1.
<mgrwt>
<rscale>  0 0.21535641E+03</rscale>
<asrwt>0</asrwt>
<pdfrwt beam="2">  1        1 0.21601974E-01 0.25984090E+03</pdfrwt>
<pdfrwt beam="1">  1       -1 0.73964387E-01 0.25984090E+03</pdfrwt>
<totfact> 0.44458584E+02</totfact>
</mgrwt>
</event>
<event>
 7    1  0.5928109E-006  0.1253226E+03  0.7546771E-02  0.1249878E+00
         -2   -1    0    0    0  501 -0.00000000000E+00  0.00000000000E+00  0.22162187768E+02  0.22162187768E+02  0.00000000000E+00 0. -1.
          2   -1    0    0  501    0  0.00000000000E+00 -0.00000000000E+00 -0.62728373461E+03  0.62728373461E+03  0.00000000000E+00 0.  1.
         23    2    1    2    0    0 -0.90374182849E+01  0.96123080802E-01 -0.46703003224E+03  0.48355227116E+03  0.12499625498E+03 0.  0.
          5    1    3    3  502    0 -0.19661231123E+02 -0.53798018691E+02 -0.34354402845E+03  0.34831792992E+03  0.47000000000E+01 0. -1.
         -5    1    3    3    0  502  0.10623812838E+02  0.53894141772E+02 -0.12348600379E+03  0.13523434124E+03  0.47000000000E+01 0. -1.
        -11    1    1    2    0    0  0.31178929680E+01 -0.30621109846E+02 -0.13023504673E+03  0.13382279710E+03  0.00000000000E+00 0.  1.
         11    1    1    2    0    0  0.59195253170E+01  0.30524986765E+02 -0.78564678705E+01  0.32070854126E+02  0.00000000000E+00 0. -1.
<mgrwt>
<rscale>  0 0.11598139E+03</rscale>
<asrwt>0</asrwt>
<pdfrwt beam="2">  1        2 0.96505197E-01 0.12532258E+03</pdfrwt>
<pdfrwt beam="1">  1       -2 0.34095671E-02 0.12532258E+03</pdfrwt>
<totfact> 0.15771157E+04</totfact>
</mgrwt>
</event>
<event>
 7    1  0.5928109E-006  0.1356644E+03  0.7546771E-02  0.1230395E+00
          2   -1    0    0  501    0  0.00000000000E+00  0.00000000000E+00  0.15332934373E+03  0.15332934373E+03  0.00000000000E+00 0. -1.
         -2   -1    0    0    0  501 -0.00000000000E+00 -0.00000000000E+00 -0.12825848457E+03  0.12825848457E+03  0.00000000000E+00 0.  1.
         23    2    1    2    0    0  0.26423655173E+02 -0.45581888181E+02  0.83310824062E+02  0.15920281152E+03  0.12501569385E+03 0.  0.
          5    1    3    3  502    0 -0.15222279299E+02 -0.76752270696E+02  0.28285299671E+02  0.83335328772E+02  0.47000000000E+01 0. -1.
         -5    1    3    3    0  502  0.41645934471E+02  0.31170382516E+02  0.55025524392E+02  0.75867482750E+02  0.47000000000E+01 0. -1.
        -11    1    1    2    0    0 -0.41837093335E+02  0.28608267484E+02 -0.77391713603E+02  0.92510824672E+02  0.00000000000E+00 0.  1.
         11    1    1    2    0    0  0.15413438162E+02  0.16973620696E+02  0.19151748698E+02  0.29874192101E+02  0.00000000000E+00 0. -1.
<mgrwt>
<rscale>  0 0.12803897E+03</rscale>
<asrwt>0</asrwt>
<pdfrwt beam="1">  1        2 0.23589130E-01 0.13566445E+03</pdfrwt>
<pdfrwt beam="2">  1       -2 0.19732075E-01 0.13566445E+03</pdfrwt>
<totfact> 0.47246186E+03</totfact>
</mgrwt>
</event>
<event>
 7    1  0.5928109E-006  0.1213877E+03  0.7546771E-02  0.1276880E+00
         -2   -1    0    0    0  501 -0.00000000000E+00  0.00000000000E+00  0.18750642613E+03  0.18750642613E+03  0.00000000000E+00 0.  1.
          2   -1    0    0  501    0  0.00000000000E+00 -0.00000000000E+00 -0.68833339079E+02  0.68833339079E+02  0.00000000000E+00 0. -1.
         23    2    1    2    0    0  0.37876427580E+02 -0.34407860386E+02 -0.23441310972E+01  0.12141034255E+03  0.11007475508E+03 0.  0.
          5    1    3    3  502    0 -0.52871764687E+01 -0.11469065515E+02 -0.50719373236E+02  0.52478934061E+02  0.47000000000E+01 0. -1.
         -5    1    3    3    0  502  0.43163604049E+02 -0.22938794872E+02  0.48375242138E+02  0.68931408491E+02  0.47000000000E+01 0.  1.
        -11    1    1    2    0    0 -0.24283634918E+01  0.21847228354E+02  0.48116091427E+02  0.52899495179E+02  0.00000000000E+00 0.  1.
         11    1    1    2    0    0 -0.35448064088E+02  0.12560632033E+02  0.72901126725E+02  0.82029927481E+02  0.00000000000E+00 0. -1.
<mgrwt>
<rscale>  0 0.10164224E+03</rscale>
<asrwt>0</asrwt>
<pdfrwt beam="2">  1        2 0.10589745E-01 0.12138771E+03</pdfrwt>
<pdfrwt beam="1">  1       -2 0.28847142E-01 0.12138771E+03</pdfrwt>
<totfact> 0.61545986E+03</totfact>
</mgrwt>
</event>
<event>
 7    1  0.5928109E-006  0.1200752E+03  0.7546771E-02  0.1251226E+00
          2   -1    0    0  501    0  0.00000000000E+00  0.00000000000E+00  0.14188092993E+04  0.14188092993E+04  0.00000000000E+00 0. -1.
         -2   -1    0    0    0  501 -0.00000000000E+00 -0.00000000000E+00 -0.17509432175E+02  0.17509432175E+02  0.00000000000E+00 0.  1.
         23    2    1    2    0    0  0.10523432610E+02  0.43214143777E+02  0.12387315130E+04  0.12445375940E+04  0.11153410536E+03 0.  0.
          5    1    3    3  502    0  0.57701819746E+02  0.31922987998E+02  0.52540129405E+03  0.52954432011E+03  0.47000000000E+01 0. -1.
         -5    1    3    3    0  502 -0.47178387136E+02  0.11291155779E+02  0.71333021897E+03  0.71499327389E+03  0.47000000000E+01 0.  1.
        -11    1    1    2    0    0 -0.41329933865E+02 -0.31982656430E+02  0.42630934984E+02  0.67442200166E+02  0.00000000000E+00 0.  1.
         11    1    1    2    0    0  0.30806501255E+02 -0.11231487347E+02  0.11993741916E+03  0.12433893736E+03  0.00000000000E+00 0. -1.
<mgrwt>
<rscale>  0 0.11520350E+03</rscale>
<asrwt>0</asrwt>
<pdfrwt beam="1">  1        2 0.21827826E+00 0.12007523E+03</pdfrwt>
<pdfrwt beam="2">  1       -2 0.26937599E-02 0.12007523E+03</pdfrwt>
<totfact> 0.73105162E+03</totfact>
</mgrwt>
</event>
<event>
 7    1  0.5928109E-006  0.3020194E+03  0.7546771E-02  0.1085631E+00
          2   -1    0    0  501    0  0.00000000000E+00  0.00000000000E+00  0.12370836070E+04  0.12370836070E+04  0.00000000000E+00 0. -1.
         -2   -1    0    0    0  501 -0.00000000000E+00 -0.00000000000E+00 -0.90642280556E+02  0.90642280556E+02  0.00000000000E+00 0.  1.
         23    2    1    2    0    0  0.17771543487E+03 -0.20977996224E+03  0.89008119476E+03  0.93992567375E+03  0.12500132227E+03 0.  0.
          5    1    3    3  502    0  0.89605784830E+02 -0.19113107804E+03  0.65196544441E+03  0.68530381319E+03  0.47000000000E+01 0.  1.
         -5    1    3    3    0  502  0.88109650041E+02 -0.18648884195E+02  0.23811575034E+03  0.25462186056E+03  0.47000000000E+01 0.  1.
        -11    1    1    2    0    0 -0.71133035568E+02  0.22073320933E+02  0.54771391635E+02  0.92450233032E+02  0.00000000000E+00 0.  1.
         11    1    1    2    0    0 -0.10658239930E+03  0.18770664130E+03  0.20158874007E+03  0.29534998079E+03  0.00000000000E+00 0. -1.
<mgrwt>
<rscale>  0 0.29922053E+03</rscale>
<asrwt>0</asrwt>
<pdfrwt beam="1">  1        2 0.19032054E+00 0.30201943E+03</pdfrwt>
<pdfrwt beam="2">  1       -2 0.13944967E-01 0.30201943E+03</pdfrwt>
<totfact> 0.73594134E+02</totfact>
</mgrwt>
</event>
<event>
 7    1  0.5928109E-006  0.1740677E+03  0.7546771E-02  0.1179989E+00
          2   -1    0    0  501    0  0.00000000000E+00  0.00000000000E+00  0.61741874970E+03  0.61741874970E+03  0.00000000000E+00 0. -1.
         -2   -1    0    0    0  501 -0.00000000000E+00 -0.00000000000E+00 -0.42814347574E+02  0.42814347574E+02  0.00000000000E+00 0.  1.
         23    2    1    2    0    0  0.49563500475E+02  0.11053299093E+03  0.31935879936E+03  0.36371638011E+03  0.12500191907E+03 0.  0.
          5    1    3    3  502    0  0.60737813416E+02  0.86867495639E+02  0.11056967524E+03  0.15324094381E+03  0.47000000000E+01 0.  1.
         -5    1    3    3    0  502 -0.11174312942E+02  0.23665495288E+02  0.20878912411E+03  0.21047543630E+03  0.47000000000E+01 0.  1.
        -11    1    1    2    0    0  0.14321296695E+02  0.78357415295E+01  0.24899914199E+02  0.29774218906E+02  0.00000000000E+00 0.  1.
         11    1    1    2    0    0 -0.63884797169E+02 -0.11836873246E+03  0.23034568857E+03  0.26674249825E+03  0.00000000000E+00 0. -1.
<mgrwt>
<rscale>  0 0.16796292E+03</rscale>
<asrwt>0</asrwt>
<pdfrwt beam="1">  1        2 0.94987494E-01 0.17406769E+03</pdfrwt>
<pdfrwt beam="2">  1       -2 0.65868231E-02 0.17406769E+03</pdfrwt>
<totfact> 0.61002720E+03</totfact>
</mgrwt>
</event>
<event>
 7    1  0.5928109E-006  0.1252127E+03  0.7546771E-02  0.1250070E+00
          2   -1    0    0  501    0  0.00000000000E+00  0.00000000000E+00  0.35778588056E+03  0.35778588056E+03  0.00000000000E+00 0. -1.
         -2   -1    0    0    0  501 -0.00000000000E+00 -0.00000000000E+00 -0.35119820243E+02  0.35119820243E+02  0.00000000000E+00 0.  1.
         23    2    1    2    0    0 -0.29943215072E+01 -0.66552723574E+01  0.23329080841E+03  0.26476939139E+03  0.12499988288E+03 0.  0.
          5    1    3    3  502    0 -0.40011529492E+02 -0.21889991169E+02  0.24228739656E+02  0.51857651615E+02  0.47000000000E+01 0. -1.
         -5    1    3    3    0  502  0.37017207985E+02  0.15234718812E+02  0.20906206875E+03  0.21291173978E+03  0.47000000000E+01 0. -1.
        -11    1    1    2    0    0  0.17305927429E+02 -0.17855734377E+02  0.95850775427E+02  0.99023701831E+02  0.00000000000E+00 0. -1.
         11    1    1    2    0    0 -0.14311605922E+02  0.24511006734E+02 -0.64755235190E+01  0.29112607579E+02  0.00000000000E+00 0.  1.
<mgrwt>
<rscale>  0 0.11587003E+03</rscale>
<asrwt>0</asrwt>
<pdfrwt beam="1">  1        2 0.55043979E-01 0.12521274E+03</pdfrwt>
<pdfrwt beam="2">  1       -2 0.54030495E-02 0.12521274E+03</pdfrwt>
<totfact> 0.14670261E+04</totfact>
</mgrwt>
</event>
<event>
 7    1  0.5928109E-006  0.1460589E+03  0.7546771E-02  0.1215330E+00
          2   -1    0    0  501    0  0.00000000000E+00  0.00000000000E+00  0.28181555587E+03  0.28181555587E+03  0.00000000000E+00 0. -1.
         -2   -1    0    0    0  501 -0.00000000000E+00 -0.00000000000E+00 -0.10195611162E+03  0.10195611162E+03  0.00000000000E+00 0.  1.
         23    2    1    2    0    0  0.84464060568E+01  0.75088060928E+02  0.21550910907E+03  0.26034090458E+03  0.12499460724E+03 0.  0.
          5    1    3    3  502    0 -0.36695027478E+02  0.83754146592E+02  0.98215633563E+02  0.13427465431E+03  0.47000000000E+01 0.  1.
         -5    1    3    3    0  502  0.45141433534E+02 -0.86660856645E+01  0.11729347551E+03  0.12606625028E+03  0.47000000000E+01 0.  1.
        -11    1    1    2    0    0  0.39962859370E+02 -0.35064059469E+02 -0.46011609650E+01  0.53363743100E+02  0.00000000000E+00 0. -1.
         11    1    1    2    0    0 -0.48409265426E+02 -0.40024001459E+02 -0.31048503863E+02  0.70067019802E+02  0.00000000000E+00 0.  1.
<mgrwt>
<rscale>  0 0.13852345E+03</rscale>
<asrwt>0</asrwt>
<pdfrwt beam="1">  1        2 0.43356239E-01 0.14605893E+03</pdfrwt>
<pdfrwt beam="2">  1       -2 0.15685556E-01 0.14605893E+03</pdfrwt>
<totfact> 0.36002233E+03</totfact>
</mgrwt>
</event>
<event>
 7    1  0.5928109E-006  0.1520580E+03  0.7546771E-02  0.1209323E+00
          2   -1    0    0  501    0  0.00000000000E+00  0.00000000000E+00  0.13629826256E+03  0.13629826256E+03  0.00000000000E+00 0. -1.
         -2   -1    0    0    0  501 -0.00000000000E+00 -0.00000000000E+00 -0.17091959979E+03  0.17091959979E+03  0.00000000000E+00 0.  1.
         23    2    1    2    0    0  0.84017274249E+02 -0.20962384462E+02  0.51256301984E+02  0.16046442264E+03  0.12499319383E+03 0.  0.
          5    1    3    3  502    0  0.61285142438E+02 -0.50512786298E+02 -0.18092145631E+02  0.81589374288E+02  0.47000000000E+01 0. -1.
         -5    1    3    3    0  502  0.22732131811E+02  0.29550401836E+02  0.69348447614E+02  0.78875048348E+02  0.47000000000E+01 0. -1.
        -11    1    1    2    0    0 -0.68597422193E+02  0.19018703002E+01 -0.12976159157E+02  0.69839846425E+02  0.00000000000E+00 0. -1.
         11    1    1    2    0    0 -0.15419852055E+02  0.19060514162E+02 -0.72901480054E+02  0.76913593282E+02  0.00000000000E+00 0.  1.
<mgrwt>
<rscale>  0 0.14301972E+03</rscale>
<asrwt>0</asrwt>
<pdfrwt beam="1">  1        2 0.20968964E-01 0.15205796E+03</pdfrwt>
<pdfrwt beam="2">  1       -2 0.26295323E-01 0.15205796E+03</pdfrwt>
<totfact> 0.33053306E+03</totfact>
</mgrwt>
</event>
<event>
 7    1  0.5928109E-006  0.1913963E+03  0.7546771E-02  0.1161899E+00
          2   -1    0    0  501    0  0.00000000000E+00  0.00000000000E+00  0.33976225655E+04  0.33976225655E+04  0.00000000000E+00 0. -1.
         -2   -1    0    0    0  501 -0.00000000000E+00 -0.00000000000E+00 -0.20224016774E+02  0.20224016774E+02  0.00000000000E+00 0.  1.
         23    2    1    2    0    0 -0.11627049859E+02  0.14447249750E+03  0.29650914918E+04  0.29712623770E+04  0.12500026954E+03 0.  0.
          5    1    3    3  502    0  0.16590661864E+02  0.44476990291E+02  0.20025335121E+04  0.20031015975E+04  0.47000000000E+01 0.  1.
         -5    1    3    3    0  502 -0.28217711723E+02  0.99995507205E+02  0.96255797965E+03  0.96816077947E+03  0.47000000000E+01 0.  1.
        -11    1    1    2    0    0 -0.32451211609E+02 -0.10526524069E+03  0.23096565018E+03  0.25588861561E+03  0.00000000000E+00 0.  1.
         11    1    1    2    0    0  0.44078261469E+02 -0.39207256808E+02  0.18134140672E+03  0.19069558965E+03  0.00000000000E+00 0. -1.
<mgrwt>
<rscale>  0 0.18623790E+03</rscale>
<asrwt>0</asrwt>
<pdfrwt beam="1">  1        2 0.52271071E+00 0.19139634E+03</pdfrwt>
<pdfrwt beam="2">  1       -2 0.31113899E-02 0.19139634E+03</pdfrwt>
<totfact> 0.48646947E+02</totfact>
</mgrwt>
</event>
<event>
 7    1  0.5928109E-006  0.1253334E+03  0.7546771E-02  0.1247818E+00
         -1   -1    0    0    0  501 -0.00000000000E+00  0.00000000000E+00  0.23001678976E+02  0.23001678976E+02  0.00000000000E+00 0.  1.
          1   -1    0    0  501    0  0.00000000000E+00 -0.00000000000E+00 -0.53808745238E+03  0.53808745238E+03  0.00000000000E+00 0. -1.
         23    2    1    2    0    0  0.81062591929E+01 -0.40852410885E+01 -0.32262106574E+03  0.34611097437E+03  0.12500421548E+03 0.  0.
          5    1    3    3  502    0  0.53115326340E+02 -0.40656221954E+02 -0.17945759057E+03  0.19157578941E+03  0.47000000000E+01 0.  1.
         -5    1    3    3    0  502 -0.45009067147E+02  0.36570980866E+02 -0.14316347517E+03  0.15453518496E+03  0.47000000000E+01 0.  1.
        -11    1    1    2    0    0  0.30369642417E+02 -0.16017552756E+02 -0.26337987652E+02  0.43273164552E+02  0.00000000000E+00 0.  1.
         11    1    1    2    0    0 -0.38475901610E+02  0.20102793845E+02 -0.16612672001E+03  0.17170499244E+03  0.00000000000E+00 0. -1.
<mgrwt>
<rscale>  0 0.11718274E+03</rscale>
<asrwt>0</asrwt>
<pdfrwt beam="2">  1        1 0.82782684E-01 0.12533337E+03</pdfrwt>
<pdfrwt beam="1">  1       -1 0.35387199E-02 0.12533337E+03</pdfrwt>
<totfact> 0.11413778E+04</totfact>
</mgrwt>
</event>
<event>
 7    1  0.5928109E-006  0.1494603E+03  0.7546771E-02  0.1209980E+00
          2   -1    0    0  501    0  0.00000000000E+00  0.00000000000E+00  0.15909677285E+04  0.15909677285E+04  0.00000000000E+00 0. -1.
         -2   -1    0    0    0  501 -0.00000000000E+00 -0.00000000000E+00 -0.15152973902E+02  0.15152973902E+02  0.00000000000E+00 0.  1.
         23    2    1    2    0    0  0.20818853569E+02  0.79253654574E+02  0.12269240386E+04  0.12359939236E+04  0.12499526521E+03 0.  0.
          5    1    3    3  502    0  0.51872742324E+02  0.61216478344E+02  0.38546367902E+03  0.39375446215E+03  0.47000000000E+01 0.  1.
         -5    1    3    3    0  502 -0.31053888755E+02  0.18037176230E+02  0.84146035955E+03  0.84223946145E+03  0.47000000000E+01 0.  1.
        -11    1    1    2    0    0  0.34637815370E+02 -0.31649098751E+02  0.18168404370E+03  0.18764470534E+03  0.00000000000E+00 0.  1.
         11    1    1    2    0    0 -0.55456668939E+02 -0.47604555823E+02  0.16720667229E+03  0.18248207343E+03  0.00000000000E+00 0. -1.
<mgrwt>
<rscale>  0 0.14251845E+03</rscale>
<asrwt>0</asrwt>
<pdfrwt beam="1">  1        2 0.24476413E+00 0.14946030E+03</pdfrwt>
<pdfrwt beam="2">  1       -2 0.23312280E-02 0.14946030E+03</pdfrwt>
<totfact> 0.74020734E+03</totfact>
</mgrwt>
</event>
<event>
 7    1  0.5928109E-006  0.1413323E+03  0.7546771E-02  0.1222069E+00
         -1   -1    0    0    0  501 -0.00000000000E+00  0.00000000000E+00  0.14885318194E+02  0.14885318194E+02  0.00000000000E+00 0.  1.
          1   -1    0    0  501    0  0.00000000000E+00 -0.00000000000E+00 -0.11016611801E+04  0.11016611801E+04  0.00000000000E+00 0. -1.
         23    2    1    2    0    0 -0.59715507987E+02 -0.28002799912E+02 -0.66466750940E+03  0.67952757062E+03  0.12499888993E+03 0.  0.
          5    1    3    3  502    0 -0.41366101551E+02  0.35152970690E+02 -0.48666305271E+03  0.48970389276E+03  0.47000000000E+01 0. -1.
         -5    1    3    3    0  502 -0.18349406436E+02 -0.63155770602E+02 -0.17800445669E+03  0.18982367786E+03  0.47000000000E+01 0. -1.
        -11    1    1    2    0    0  0.34222950422E+02 -0.27621942164E+02 -0.26105833173E+03  0.26473691581E+03  0.00000000000E+00 0. -1.
         11    1    1    2    0    0  0.25492557566E+02  0.55624742076E+02 -0.16105002082E+03  0.17228201191E+03  0.00000000000E+00 0.  1.
<mgrwt>
<rscale>  0 0.13369805E+03</rscale>
<asrwt>0</asrwt>
<pdfrwt beam="2">  1        1 0.16948642E+00 0.14133231E+03</pdfrwt>
<pdfrwt beam="1">  1       -1 0.22900478E-02 0.14133231E+03</pdfrwt>
<totfact> 0.73594259E+03</totfact>
</mgrwt>
</event>
<event>
 7    1  0.5928109E-006  0.1489424E+03  0.7546771E-02  0.1209601E+00
         -3   -1    0    0    0  501 -0.00000000000E+00  0.00000000000E+00  0.16484863037E+02  0.16484863037E+02  0.00000000000E+00 0.  1.
          3   -1    0    0  501    0  0.00000000000E+00 -0.00000000000E+00 -0.14717804105E+04  0.14717804105E+04  0.00000000000E+00 0. -1.
         23    2    1    2    0    0  0.48921223949E+02 -0.64537766512E+02 -0.11246553021E+04  0.11344749372E+04  0.12500170105E+03 0.  0.
          5    1    3    3  502    0 -0.97434233508E+01  0.18559163106E+02 -0.43299805596E+02  0.48335701075E+02  0.47000000000E+01 0.  1.
         -5    1    3    3    0  502  0.58664647300E+02 -0.83096929618E+02 -0.10813554965E+04  0.10861392362E+04  0.47000000000E+01 0.  1.
        -11    1    1    2    0    0 -0.77239390569E+02  0.54009464149E+02 -0.27124320304E+03  0.28715121603E+03  0.00000000000E+00 0.  1.
         11    1    1    2    0    0  0.28318166620E+02  0.10528302363E+02 -0.59397042373E+02  0.66639120298E+02  0.00000000000E+00 0. -1.
<mgrwt>
<rscale>  0 0.14280684E+03</rscale>
<asrwt>0</asrwt>
<pdfrwt beam="2">  1        3 0.22642770E+00 0.14894239E+03</pdfrwt>
<pdfrwt beam="1">  1       -3 0.25361334E-02 0.14894239E+03</pdfrwt>
<totfact> 0.17760779E+02</totfact>
</mgrwt>
</event>
<event>
 7    1  0.5928109E-006  0.1204230E+03  0.7546771E-02  0.1255442E+00
          4   -1    0    0  501    0  0.00000000000E+00  0.00000000000E+00  0.21315414708E+03  0.21315414708E+03  0.00000000000E+00 0. -1.
         -4   -1    0    0    0  501 -0.00000000000E+00 -0.00000000000E+00 -0.59384461153E+02  0.59384461153E+02  0.00000000000E+00 0.  1.
         23    2    1    2    0    0 -0.21040296801E+02 -0.48565516994E+01  0.12911804034E+03  0.17655921919E+03  0.11847113300E+03 0.  0.
          5    1    3    3  502    0  0.43592946655E+02 -0.22710163615E+02  0.77132816176E+02  0.91584157258E+02  0.47000000000E+01 0. -1.
         -5    1    3    3    0  502 -0.64633243456E+02  0.17853611916E+02  0.51985224165E+02  0.84975061928E+02  0.47000000000E+01 0.  1.
        -11    1    1    2    0    0  0.28991805176E+02 -0.29835801371E+02  0.39544295592E+02  0.57397309385E+02  0.00000000000E+00 0. -1.
         11    1    1    2    0    0 -0.79515083745E+01  0.34692353071E+02 -0.14892650005E+02  0.38582079664E+02  0.00000000000E+00 0.  1.
<mgrwt>
<rscale>  0 0.11281625E+03</rscale>
<asrwt>0</asrwt>
<pdfrwt beam="1">  1        4 0.32792945E-01 0.12042296E+03</pdfrwt>
<pdfrwt beam="2">  1       -4 0.91360711E-02 0.12042296E+03</pdfrwt>
<totfact> 0.12723405E+03</totfact>
</mgrwt>
</event>
<event>
 7    1  0.5928109E-006  0.1351421E+03  0.7546771E-02  0.1230021E+00
          1   -1    0    0  501    0  0.00000000000E+00  0.00000000000E+00  0.90699057699E+03  0.90699057699E+03  0.00000000000E+00 0. -1.
         -1   -1    0    0    0  501 -0.00000000000E+00 -0.00000000000E+00 -0.16920874592E+02  0.16920874592E+02  0.00000000000E+00 0.  1.
         23    2    1    2    0    0  0.50399686516E+02 -0.98435430391E+01  0.56011236326E+03  0.57618507149E+03  0.12500541343E+03 0.  0.
          5    1    3    3  502    0  0.90501013388E+02  0.66146436146E+01  0.35053382389E+03  0.36211909454E+03  0.47000000000E+01 0. -1.
         -5    1    3    3    0  502 -0.40101326872E+02 -0.16458186654E+02  0.20957853937E+03  0.21406597696E+03  0.47000000000E+01 0. -1.
        -11    1    1    2    0    0  0.47225578690E+00  0.46715093810E+02  0.15088062283E+03  0.15794772983E+03  0.00000000000E+00 0. -1.
         11    1    1    2    0    0 -0.50871942303E+02 -0.36871550771E+02  0.17907671630E+03  0.18977865025E+03  0.00000000000E+00 0.  1.
<mgrwt>
<rscale>  0 0.12828601E+03</rscale>
<asrwt>0</asrwt>
<pdfrwt beam="1">  1        1 0.13953697E+00 0.13514206E+03</pdfrwt>
<pdfrwt beam="2">  1       -1 0.26032122E-02 0.13514206E+03</pdfrwt>
<totfact> 0.84676687E+03</totfact>
</mgrwt>
</event>
<event>
 7    1  0.5928109E-006  0.1466933E+03  0.7546771E-02  0.1214561E+00
          2   -1    0    0  501    0  0.00000000000E+00  0.00000000000E+00  0.10868915161E+04  0.10868915161E+04  0.00000000000E+00 0. -1.
         -2   -1    0    0    0  501 -0.00000000000E+00 -0.00000000000E+00 -0.29440561093E+02  0.29440561093E+02  0.00000000000E+00 0.  1.
         23    2    1    2    0    0 -0.46937552980E+02  0.60754882651E+02  0.93294676366E+03  0.94440912695E+03  0.12499858238E+03 0.  0.
          5    1    3    3  502    0 -0.15276345345E+02  0.50733285667E+02  0.88081621147E+03  0.88242083009E+03  0.47000000000E+01 0.  1.
         -5    1    3    3    0  502 -0.31661207635E+02  0.10021596984E+02  0.52130552189E+02  0.61988296852E+02  0.47000000000E+01 0.  1.
        -11    1    1    2    0    0  0.21289694764E+02 -0.53622344617E+02  0.15534847109E+02  0.59748961666E+02  0.00000000000E+00 0.  1.
         11    1    1    2    0    0  0.25647858216E+02 -0.71325380338E+01  0.10896934427E+03  0.11217398861E+03  0.00000000000E+00 0. -1.
<mgrwt>
<rscale>  0 0.13908853E+03</rscale>
<asrwt>0</asrwt>
<pdfrwt beam="1">  1        2 0.16721405E+00 0.14669334E+03</pdfrwt>
<pdfrwt beam="2">  1       -2 0.45293179E-02 0.14669334E+03</pdfrwt>
<totfact> 0.51898226E+03</totfact>
</mgrwt>
</event>
<event>
 7    1  0.5928109E-006  0.1377727E+03  0.7546771E-02  0.1229899E+00
         -2   -1    0    0    0  501 -0.00000000000E+00  0.00000000000E+00  0.22725184240E+03  0.22725184240E+03  0.00000000000E+00 0.  1.
          2   -1    0    0  501    0  0.00000000000E+00 -0.00000000000E+00 -0.65275016613E+02  0.65275016613E+02  0.00000000000E+00 0. -1.
         23    2    1    2    0    0  0.38084478344E+02 -0.44478455375E+02  0.73728925814E+02  0.15626026010E+03  0.12470987892E+03 0.  0.
          5    1    3    3  502    0  0.18470359928E+02  0.32508831072E+01  0.97395038997E+02  0.99295549034E+02  0.47000000000E+01 0. -1.
         -5    1    3    3    0  502  0.19614118415E+02 -0.47729338482E+02 -0.23666113182E+02  0.56964711062E+02  0.47000000000E+01 0. -1.
        -11    1    1    2    0    0 -0.24731539302E+02  0.51048255742E+02  0.11230612411E+02  0.57824736106E+02  0.00000000000E+00 0. -1.
         11    1    1    2    0    0 -0.13352939041E+02 -0.65698003668E+01  0.77017287566E+02  0.78441862815E+02  0.00000000000E+00 0.  1.
<mgrwt>
<rscale>  0 0.12836724E+03</rscale>
<asrwt>0</asrwt>
<pdfrwt beam="2">  1        2 0.10042310E-01 0.13777269E+03</pdfrwt>
<pdfrwt beam="1">  1       -2 0.34961822E-01 0.13777269E+03</pdfrwt>
<totfact> 0.46765108E+03</totfact>
</mgrwt>
</event>
<event>
 7    1  0.5928109E-006  0.1413835E+03  0.7546771E-02  0.1223135E+00
          2   -1    0    0  501    0  0.00000000000E+00  0.00000000000E+00  0.11177097823E+04  0.11177097823E+04  0.00000000000E+00 0. -1.
         -2   -1    0    0    0  501 -0.00000000000E+00 -0.00000000000E+00 -0.15396115148E+02  0.15396115148E+02  0.00000000000E+00 0.  1.
         23    2    1    2    0    0 -0.85835607840E+01  0.65491170449E+02  0.77023550399E+03  0.78310410285E+03  0.12500613329E+03 0.  0.
          5    1    3    3  502    0 -0.55975696990E+02  0.12903562885E+02  0.19006283806E+03  0.19860954912E+03  0.47000000000E+01 0.  1.
         -5    1    3    3    0  502  0.47392136206E+02  0.52587607564E+02  0.58017266593E+03  0.58449455373E+03  0.47000000000E+01 0.  1.
        -11    1    1    2    0    0 -0.31374192213E+02 -0.41653055844E+01  0.55376237939E+02  0.63782579408E+02  0.00000000000E+00 0.  1.
         11    1    1    2    0    0  0.39957752997E+02 -0.61325864865E+02  0.27670192519E+03  0.28621921517E+03  0.00000000000E+00 0. -1.
<mgrwt>
<rscale>  0 0.13295565E+03</rscale>
<asrwt>0</asrwt>
<pdfrwt beam="1">  1        2 0.17195529E+00 0.14138354E+03</pdfrwt>
<pdfrwt beam="2">  1       -2 0.23686340E-02 0.14138354E+03</pdfrwt>
<totfact> 0.12961060E+04</totfact>
</mgrwt>
</event>
<event>
 7    1  0.5928109E-006  0.1372402E+03  0.7546771E-02  0.1229360E+00
          3   -1    0    0  501    0  0.00000000000E+00  0.00000000000E+00  0.10736156509E+03  0.10736156509E+03  0.00000000000E+00 0. -1.
         -3   -1    0    0    0  501 -0.00000000000E+00 -0.00000000000E+00 -0.14469186987E+03  0.14469186987E+03  0.00000000000E+00 0.  1.
         23    2    1    2    0    0  0.56343848802E+02  0.61058695391E+01  0.59135932759E+01  0.13736758707E+03  0.12499188954E+03 0.  0.
          5    1    3    3  502    0  0.75498479640E+02 -0.14182056420E+02 -0.37449012957E+02  0.85590126321E+02  0.47000000000E+01 0.  1.
         -5    1    3    3    0  502 -0.19154630838E+02  0.20287925959E+02  0.43362606233E+02  0.51777460749E+02  0.47000000000E+01 0.  1.
        -11    1    1    2    0    0 -0.75346556930E+02  0.15283055946E+02 -0.37353015591E+02  0.85474693413E+02  0.00000000000E+00 0.  1.
         11    1    1    2    0    0  0.19002708128E+02 -0.21388925486E+02 -0.58908824621E+01  0.29211154476E+02  0.00000000000E+00 0. -1.
<mgrwt>
<rscale>  0 0.12872511E+03</rscale>
<asrwt>0</asrwt>
<pdfrwt beam="1">  1        3 0.16517164E-01 0.13724024E+03</pdfrwt>
<pdfrwt beam="2">  1       -3 0.22260288E-01 0.13724024E+03</pdfrwt>
<totfact> 0.13416126E+03</totfact>
</mgrwt>
</event>
<event>
 6    1  0.5928109E-006  0.1778546E+03  0.7546771E-02  0.1193120E+00
          1   -1    0    0  501    0  0.00000000000E+00  0.00000000000E+00  0.54910193299E+03  0.54910193299E+03  0.00000000000E+00 0. -1.
         -1   -1    0    0    0  501 -0.00000000000E+00 -0.00000000000E+00 -0.48893121624E+02  0.48893121624E+02  0.00000000000E+00 0.  1.
          5    1    1    2  502    0  0.61698381728E+02  0.79077417450E+02  0.21076172893E+03  0.23345775772E+03  0.47000000000E+01 0. -1.
         -5    1    1    2    0  502 -0.70253662198E+02 -0.24252157612E+02  0.23327584463E+03  0.24487436347E+03  0.47000000000E+01 0.  1.
        -11    1    1    2    0    0  0.41127988429E+02 -0.32249880099E+02  0.60322904281E+02  0.79814904494E+02  0.00000000000E+00 0. -1.
         11    1    1    2    0    0 -0.32572707959E+02 -0.22575379740E+02 -0.41516664758E+01  0.39848028919E+02  0.00000000000E+00 0.  1.
<mgrwt>
<rscale>  0 0.15614436E+03</rscale>
<asrwt>0</asrwt>
<pdfrwt beam="1">  1        1 0.84477216E-01 0.17785458E+03</pdfrwt>
<pdfrwt beam="2">  1       -1 0.75220191E-02 0.17785458E+03</pdfrwt>
<totfact> 0.36959539E+03</totfact>
</mgrwt>
</event>
<event>
 7    1  0.5928109E-006  0.3596841E+03  0.7546771E-02  0.1059766E+00
         -1   -1    0    0    0  501 -0.00000000000E+00  0.00000000000E+00  0.34222477809E+03  0.34222477809E+03  0.00000000000E+00 0.  1.
          1   -1    0    0  501    0  0.00000000000E+00 -0.00000000000E+00 -0.44313212470E+03  0.44313212470E+03  0.00000000000E+00 0. -1.
         23    2    1    2    0    0 -0.39502335781E+01  0.33724413442E+03 -0.21373657582E+03  0.41839695232E+03  0.12499390113E+03 0.  0.
          5    1    3    3  502    0 -0.32201572791E+02  0.66066404254E+02 -0.28901146953E+01  0.73703146637E+02  0.47000000000E+01 0. -1.
         -5    1    3    3    0  502  0.28251339213E+02  0.27117773017E+03 -0.21084646112E+03  0.34469380568E+03  0.47000000000E+01 0. -1.
        -11    1    1    2    0    0 -0.35898131471E+02 -0.21440399745E+03  0.48720372660E+02  0.22278111382E+03  0.00000000000E+00 0. -1.
         11    1    1    2    0    0  0.39848365049E+02 -0.12284013697E+03  0.64108856555E+02  0.14417883665E+03  0.00000000000E+00 0.  1.
<mgrwt>
<rscale>  0 0.35702977E+03</rscale>
<asrwt>0</asrwt>
<pdfrwt beam="2">  1        1 0.68174173E-01 0.35968415E+03</pdfrwt>
<pdfrwt beam="1">  1       -1 0.52649966E-01 0.35968415E+03</pdfrwt>
<totfact> 0.19774023E+02</totfact>
</mgrwt>
</event>
<event>
 7    1  0.5928109E-006  0.1342754E+03  0.7546771E-02  0.1233810E+00
          1   -1    0    0  501    0  0.00000000000E+00  0.00000000000E+00  0.83546017298E+03  0.83546017298E+03  0.00000000000E+00 0. -1.
         -1   -1    0    0    0  501 -0.00000000000E+00 -0.00000000000E+00 -0.20976843216E+02  0.20976843216E+02  0.00000000000E+00 0.  1.
         23    2    1    2    0    0 -0.43934877964E+02 -0.21965980029E+02  0.63692682244E+03  0.65092677546E+03  0.12496844436E+03 0.  0.
          5    1    3    3  502    0 -0.71364436990E+02  0.28105473137E+02  0.37984597529E+03  0.38754077905E+03  0.47000000000E+01 0. -1.
         -5    1    3    3    0  502  0.27429559026E+02 -0.50071453165E+02  0.25708084716E+03  0.26338599641E+03  0.47000000000E+01 0. -1.
        -11    1    1    2    0    0  0.26869939706E+02  0.31336446882E+02  0.18108013638E+03  0.18572555655E+03  0.00000000000E+00 0. -1.
         11    1    1    2    0    0  0.17064938258E+02 -0.93704668534E+01 -0.35236290560E+01  0.19784684191E+02  0.00000000000E+00 0.  1.
<mgrwt>
<rscale>  0 0.12580899E+03</rscale>
<asrwt>0</asrwt>
<pdfrwt beam="1">  1        1 0.12853231E+00 0.13427543E+03</pdfrwt>
<pdfrwt beam="2">  1       -1 0.32272073E-02 0.13427543E+03</pdfrwt>
<totfact> 0.70428713E+03</totfact>
</mgrwt>
</event>
<event>
 7    1  0.5928109E-006  0.2749029E+03  0.7546771E-02  0.1100588E+00
          1   -1    0    0  501    0  0.00000000000E+00  0.00000000000E+00  0.14792202273E+04  0.14792202273E+04  0.00000000000E+00 0. -1.
         -1   -1    0    0    0  501 -0.00000000000E+00 -0.00000000000E+00 -0.71829927719E+02  0.71829927719E+02  0.00000000000E+00 0.  1.
         23    2    1    2    0    0 -0.23031206835E+03  0.83089658134E+02  0.11589961911E+04  0.11911522877E+04  0.12499624533E+03 0.  0.
          5    1    3    3  502    0 -0.11250256113E+03 -0.89068408631E+01  0.68113620116E+03  0.69043810194E+03  0.47000000000E+01 0.  1.
         -5    1    3    3    0  502 -0.11780950722E+03  0.91996498997E+02  0.47785998991E+03  0.50071418571E+03  0.47000000000E+01 0.  1.
        -11    1    1    2    0    0  0.51209954961E+02 -0.37900889842E+02  0.11698688578E+03  0.13320986593E+03  0.00000000000E+00 0. -1.
         11    1    1    2    0    0  0.17910211339E+03 -0.45188768293E+02  0.13140722269E+03  0.22668800139E+03  0.00000000000E+00 0.  1.
<mgrwt>
<rscale>  0 0.27121249E+03</rscale>
<asrwt>0</asrwt>
<pdfrwt beam="1">  1        1 0.22757232E+00 0.27490289E+03</pdfrwt>
<pdfrwt beam="2">  1       -1 0.11050759E-01 0.27490289E+03</pdfrwt>
<totfact> 0.38626496E+02</totfact>
</mgrwt>
</event>
<event>
 7    1  0.5928109E-006  0.2799389E+03  0.7546771E-02  0.1097678E+00
          2   -1    0    0  501    0  0.00000000000E+00  0.00000000000E+00  0.11002843512E+04  0.11002843512E+04  0.00000000000E+00 0.  1.
         -2   -1    0    0    0  501 -0.00000000000E+00 -0.00000000000E+00 -0.68518075687E+02  0.68518075687E+02  0.00000000000E+00 0. -1.
         23    2    1    2    0    0  0.14765263512E+03 -0.20233517419E+03  0.46593695510E+03  0.54356512489E+03  0.12499990198E+03 0.  0.
          5    1    3    3  502    0  0.87320719631E+01 -0.10764310744E+03  0.14088253259E+03  0.17757608412E+03  0.47000000000E+01 0.  1.
         -5    1    3    3    0  502  0.13892056315E+03 -0.94692066745E+02  0.32505442251E+03  0.36598904077E+03  0.47000000000E+01 0.  1.
        -11    1    1    2    0    0  0.10759291700E+02  0.13048139572E+02  0.60943363756E+02  0.63246421955E+02  0.00000000000E+00 0.  1.
         11    1    1    2    0    0 -0.15841192682E+03  0.18928703462E+03  0.50488595670E+03  0.56199088009E+03  0.00000000000E+00 0. -1.
<mgrwt>
<rscale>  0 0.27638856E+03</rscale>
<asrwt>0</asrwt>
<pdfrwt beam="1">  1        2 0.16927450E+00 0.27993892E+03</pdfrwt>
<pdfrwt beam="2">  1       -2 0.10541243E-01 0.27993892E+03</pdfrwt>
<totfact> 0.13930561E+03</totfact>
</mgrwt>
</event>
<event>
 6    1  0.5928109E-006  0.1557309E+03  0.7546771E-02  0.1206071E+00
          1   -1    0    0  501    0  0.00000000000E+00  0.00000000000E+00  0.28101462467E+03  0.28101462467E+03  0.00000000000E+00 0. -1.
         -1   -1    0    0    0  501 -0.00000000000E+00 -0.00000000000E+00 -0.98114402174E+02  0.98114402174E+02  0.00000000000E+00 0.  1.
          5    1    1    2  502    0 -0.73183894827E+02 -0.77379833661E+02  0.17705279406E+03  0.20667196956E+03  0.47000000000E+01 0. -1.
         -5    1    1    2    0  502  0.10885420825E+02  0.40963324492E+02  0.28832974262E+02  0.51477342053E+02  0.47000000000E+01 0.  1.
        -11    1    1    2    0    0  0.25023592664E+02 -0.21100909064E+02  0.21597591304E+02  0.39215870554E+02  0.00000000000E+00 0. -1.
         11    1    1    2    0    0  0.37274881337E+02  0.57517418233E+02 -0.44583137132E+02  0.81763844671E+02  0.00000000000E+00 0.  1.
<mgrwt>
<rscale>  0 0.14553363E+03</rscale>
<asrwt>0</asrwt>
<pdfrwt beam="1">  1        1 0.43233019E-01 0.15573091E+03</pdfrwt>
<pdfrwt beam="2">  1       -1 0.15094524E-01 0.15573091E+03</pdfrwt>
<totfact> 0.29541766E+03</totfact>
</mgrwt>
</event>
<event>
 7    1  0.5928109E-006  0.1261209E+03  0.7546771E-02  0.1249031E+00
         -1   -1    0    0    0  501 -0.00000000000E+00  0.00000000000E+00  0.24225160931E+03  0.24225160931E+03  0.00000000000E+00 0.  1.
          1   -1    0    0  501    0  0.00000000000E+00 -0.00000000000E+00 -0.56572138828E+02  0.56572138828E+02  0.00000000000E+00 0. -1.
         23    2    1    2    0    0  0.84508177587E+01  0.14464717761E+02  0.51385917839E+02  0.13618733909E+03  0.12500333753E+03 0.  0.
          5    1    3    3  502    0  0.62646451175E+01 -0.31332625618E+02  0.76971175576E+02  0.83472337191E+02  0.47000000000E+01 0.  1.
         -5    1    3    3    0  502  0.21861726412E+01  0.45797343379E+02 -0.25585257737E+02  0.52715001896E+02  0.47000000000E+01 0.  1.
        -11    1    1    2    0    0 -0.18637429688E+02  0.17317505662E+02  0.12559616347E+03  0.12814697057E+03  0.00000000000E+00 0.  1.
         11    1    1    2    0    0  0.10186611929E+02 -0.31782223423E+02  0.86973891724E+01  0.34489438481E+02  0.00000000000E+00 0. -1.
<mgrwt>
<rscale>  0 0.11647359E+03</rscale>
<asrwt>0</asrwt>
<pdfrwt beam="2">  1        1 0.87034061E-02 0.12612089E+03</pdfrwt>
<pdfrwt beam="1">  1       -1 0.37269478E-01 0.12612089E+03</pdfrwt>
<totfact> 0.51455190E+03</totfact>
</mgrwt>
</event>
<event>
 7    1  0.5928109E-006  0.1354781E+03  0.7546771E-02  0.1232071E+00
          2   -1    0    0  501    0  0.00000000000E+00  0.00000000000E+00  0.12689201113E+04  0.12689201113E+04  0.00000000000E+00 0. -1.
         -2   -1    0    0    0  501 -0.00000000000E+00 -0.00000000000E+00 -0.11585988318E+02  0.11585988318E+02  0.00000000000E+00 0.  1.
         23    2    1    2    0    0  0.49757383987E+01  0.52029639746E+02  0.80119337350E+03  0.81256699853E+03  0.12498985548E+03 0.  0.
          5    1    3    3  502    0 -0.29823636319E+02 -0.19408855783E+02  0.89393055649E+02  0.96329441836E+02  0.47000000000E+01 0.  1.
         -5    1    3    3    0  502  0.34799374717E+02  0.71438495529E+02  0.71180031785E+03  0.71623755669E+03  0.47000000000E+01 0.  1.
        -11    1    1    2    0    0  0.30179098190E+02  0.11099993799E+02  0.13915367650E+03  0.14282063406E+03  0.00000000000E+00 0. -1.
         11    1    1    2    0    0 -0.35154836588E+02 -0.63129633545E+02  0.31698707301E+03  0.32511846706E+03  0.00000000000E+00 0.  1.
<mgrwt>
<rscale>  0 0.12693842E+03</rscale>
<asrwt>0</asrwt>
<pdfrwt beam="1">  1        2 0.19521837E+00 0.13547806E+03</pdfrwt>
<pdfrwt beam="2">  1       -2 0.17824607E-02 0.13547806E+03</pdfrwt>
<totfact> 0.16108578E+04</totfact>
</mgrwt>
</event>
<event>
 7    1  0.5928109E-006  0.1614364E+03  0.7546771E-02  0.1194500E+00
         -1   -1    0    0    0  501 -0.00000000000E+00  0.00000000000E+00  0.49332535877E+02  0.49332535877E+02  0.00000000000E+00 0.  1.
          1   -1    0    0  501    0  0.00000000000E+00 -0.00000000000E+00 -0.13620001096E+04  0.13620001096E+04  0.00000000000E+00 0. -1.
         23    2    1    2    0    0  0.45548889558E+02 -0.91447295379E+02 -0.12504055065E+04  0.12607837439E+04  0.12499763664E+03 0.  0.
          5    1    3    3  502    0 -0.37535145367E+02 -0.33662529128E+02 -0.23832834103E+03  0.24364839655E+03  0.47000000000E+01 0. -1.
         -5    1    3    3    0  502  0.83084034926E+02 -0.57784766251E+02 -0.10120771654E+04  0.10171353474E+04  0.47000000000E+01 0. -1.
        -11    1    1    2    0    0 -0.37832953634E+02  0.47133082343E+02  0.13972884767E+02  0.62033066509E+02  0.00000000000E+00 0.  1.
         11    1    1    2    0    0 -0.77159359244E+01  0.44314213036E+02 -0.76234952037E+02  0.88515835059E+02  0.00000000000E+00 0. -1.
<mgrwt>
<rscale>  0 0.15496634E+03</rscale>
<asrwt>0</asrwt>
<pdfrwt beam="2">  1        1 0.20953846E+00 0.16143642E+03</pdfrwt>
<pdfrwt beam="1">  1       -1 0.75896216E-02 0.16143642E+03</pdfrwt>
<totfact> 0.83545208E+02</totfact>
</mgrwt>
</event>
<event>
 7    1  0.5928109E-006  0.1537375E+03  0.7546771E-02  0.1204337E+00
         -4   -1    0    0    0  501 -0.00000000000E+00  0.00000000000E+00  0.31515400359E+03  0.31515400359E+03  0.00000000000E+00 0.  1.
          4   -1    0    0  501    0  0.00000000000E+00 -0.00000000000E+00 -0.81102299021E+02  0.81102299021E+02  0.00000000000E+00 0. -1.
         23    2    1    2    0    0 -0.83421209210E+02  0.32412203489E+02  0.32065742816E+02  0.15704599596E+03  0.12500233560E+03 0.  0.
          5    1    3    3  502    0 -0.11645097544E+03  0.23980327263E+02  0.20483053816E+02  0.12073744768E+03  0.47000000000E+01 0. -1.
         -5    1    3    3    0  502  0.33029766235E+02  0.84318762261E+01  0.11582689000E+02  0.36308548287E+02  0.47000000000E+01 0. -1.
        -11    1    1    2    0    0  0.59413649319E+02 -0.25061766594E+01  0.37477752120E+02  0.70291141339E+02  0.00000000000E+00 0.  1.
         11    1    1    2    0    0  0.24007559891E+02 -0.29906026829E+02  0.16450820963E+03  0.16891916531E+03  0.00000000000E+00 0. -1.
<mgrwt>
<rscale>  0 0.14689849E+03</rscale>
<asrwt>0</asrwt>
<pdfrwt beam="2">  1        4 0.12477277E-01 0.15373755E+03</pdfrwt>
<pdfrwt beam="1">  1       -4 0.48485231E-01 0.15373755E+03</pdfrwt>
<totfact> 0.36515229E+02</totfact>
</mgrwt>
</event>
<event>
 7    1  0.1100767E-005  0.1251627E+03  0.7546771E-02  0.1250370E+00
         -1   -1    0    0    0  501 -0.00000000000E+00  0.00000000000E+00  0.14412329733E+02  0.14412329733E+02  0.00000000000E+00 0.  1.
          1   -1    0    0  501    0  0.00000000000E+00 -0.00000000000E+00 -0.85661167258E+03  0.85661167258E+03  0.00000000000E+00 0. -1.
         23    2    1    2    0    0  0.12149596968E+01  0.62516219335E+01 -0.58017078998E+03  0.59351818914E+03  0.12500054556E+03 0.  0.
          5    1    3    3  502    0  0.11874956601E+02 -0.40836233018E+01 -0.27268897285E+00  0.13411000441E+02  0.47000000000E+01 0.  1.
         -5    1    3    3    0  502 -0.10659996905E+02  0.10335245235E+02 -0.57989810101E+03  0.58010718870E+03  0.47000000000E+01 0.  1.
        -11    1    1    2    0    0  0.36422150520E+01  0.42037831232E+02 -0.10547812362E+03  0.11360492748E+03  0.00000000000E+00 0.  1.
         11    1    1    2    0    0 -0.48571747489E+01 -0.48289453166E+02 -0.15655042925E+03  0.16390088570E+03  0.00000000000E+00 0. -1.
<mgrwt>
<rscale>  0 0.11569652E+03</rscale>
<asrwt>0</asrwt>
<pdfrwt beam="2">  1        1 0.13178643E+00 0.12516268E+03</pdfrwt>
<pdfrwt beam="1">  1       -1 0.22172812E-02 0.12516268E+03</pdfrwt>
<totfact> 0.11629897E+04</totfact>
</mgrwt>
</event>
<event>
 7    1  0.6180626E-006  0.1763883E+03  0.7546771E-02  0.1177731E+00
          1   -1    0    0  501    0  0.00000000000E+00  0.00000000000E+00  0.65491040859E+03  0.65491040859E+03  0.00000000000E+00 0. -1.
         -1   -1    0    0    0  501 -0.00000000000E+00 -0.00000000000E+00 -0.42138478745E+02  0.42138478745E+02  0.00000000000E+00 0.  1.
         23    2    1    2    0    0 -0.58176644807E+02 -0.11001465431E+03  0.37674802036E+03  0.41599508724E+03  0.12500038239E+03 0.  0.
          5    1    3    3  502    0 -0.90158511709E+02 -0.11083898526E+03  0.32382377041E+03  0.35397423942E+03  0.47000000000E+01 0. -1.
         -5    1    3    3    0  502  0.31981866902E+02  0.82433094277E+00  0.52924249949E+02  0.62020847823E+02  0.47000000000E+01 0. -1.
        -11    1    1    2    0    0  0.64057323012E+02  0.54924783694E+02  0.19387128979E+03  0.21143828769E+03  0.00000000000E+00 0. -1.
         11    1    1    2    0    0 -0.58806782051E+01  0.55089870618E+02  0.42152619697E+02  0.69615512411E+02  0.00000000000E+00 0.  1.
<mgrwt>
<rscale>  0 0.17011181E+03</rscale>
<asrwt>0</asrwt>
<pdfrwt beam="1">  1        1 0.10075544E+00 0.17638833E+03</pdfrwt>
<pdfrwt beam="2">  1       -1 0.64828434E-02 0.17638833E+03</pdfrwt>
<totfact> 0.36290820E+03</totfact>
</mgrwt>
</event>
<event>
 7    1  0.5928109E-006  0.1307907E+03  0.7546771E-02  0.1239194E+00
          1   -1    0    0  501    0  0.00000000000E+00  0.00000000000E+00  0.24895311280E+03  0.24895311280E+03  0.00000000000E+00 0. -1.
         -1   -1    0    0    0  501 -0.00000000000E+00 -0.00000000000E+00 -0.53642589683E+02  0.53642589683E+02  0.00000000000E+00 0.  1.
         23    2    1    2    0    0 -0.14728057705E+02  0.35574748566E+02  0.11255255745E+03  0.17255229795E+03  0.12499495559E+03 0.  0.
          5    1    3    3  502    0 -0.64655474546E+02  0.13789318340E+02  0.28192716340E+02  0.72023572138E+02  0.47000000000E+01 0.  1.
         -5    1    3    3    0  502  0.49927416841E+02  0.21785430227E+02  0.84359841106E+02  0.10052872582E+03  0.47000000000E+01 0.  1.
        -11    1    1    2    0    0  0.15978657846E+02  0.30102208299E+02  0.34819813160E+02  0.48722477765E+02  0.00000000000E+00 0. -1.
         11    1    1    2    0    0 -0.12506001407E+01 -0.65676956865E+02  0.47938152511E+02  0.81320926765E+02  0.00000000000E+00 0.  1.
<mgrwt>
<rscale>  0 0.12239692E+03</rscale>
<asrwt>0</asrwt>
<pdfrwt beam="1">  1        1 0.38300478E-01 0.13079074E+03</pdfrwt>
<pdfrwt beam="2">  1       -1 0.82527063E-02 0.13079074E+03</pdfrwt>
<totfact> 0.86053686E+03</totfact>
</mgrwt>
</event>
<event>
 7    1  0.5928109E-006  0.1400298E+03  0.7546771E-02  0.1217538E+00
         -3   -1    0    0    0  501 -0.00000000000E+00  0.00000000000E+00  0.49805139203E+03  0.49805139203E+03  0.00000000000E+00 0.  1.
          3   -1    0    0  501    0  0.00000000000E+00 -0.00000000000E+00 -0.36174508265E+02  0.36174508265E+02  0.00000000000E+00 0. -1.
         23    2    1    2    0    0  0.50564912565E+02  0.37704077791E+02  0.22609908436E+03  0.26594952628E+03  0.12501978530E+03 0.  0.
          5    1    3    3  502    0  0.21562456149E+02  0.39475591642E+02  0.23162689067E+03  0.23600078036E+03  0.47000000000E+01 0.  1.
         -5    1    3    3    0  502  0.29002456416E+02 -0.17715138507E+01 -0.55278063082E+01  0.29948745918E+02  0.47000000000E+01 0.  1.
        -11    1    1    2    0    0 -0.84986305761E+02 -0.21705201849E+02  0.18629592141E+03  0.20591250153E+03  0.00000000000E+00 0.  1.
         11    1    1    2    0    0  0.34421393197E+02 -0.15998875942E+02  0.49481878000E+02  0.62363872486E+02  0.00000000000E+00 0. -1.
<mgrwt>
<rscale>  0 0.13691724E+03</rscale>
<asrwt>0</asrwt>
<pdfrwt beam="2">  1        3 0.55653093E-02 0.14002983E+03</pdfrwt>
<pdfrwt beam="1">  1       -3 0.76623286E-01 0.14002983E+03</pdfrwt>
<totfact> 0.73106980E+02</totfact>
</mgrwt>
</event>
<event>
 7    1  0.5928109E-006  0.1334016E+03  0.7546771E-02  0.1235488E+00
          2   -1    0    0  501    0  0.00000000000E+00  0.00000000000E+00  0.89063331464E+02  0.89063331464E+02  0.00000000000E+00 0.  1.
         -2   -1    0    0    0  501 -0.00000000000E+00 -0.00000000000E+00 -0.30853024245E+03  0.30853024245E+03  0.00000000000E+00 0. -1.
         23    2    1    2    0    0  0.46167818599E+02 -0.69715881803E+01  0.22256878131E+02  0.13524555666E+03  0.12496368055E+03 0.  0.
          5    1    3    3  502    0  0.26155251281E+02  0.44706484836E+02 -0.29055420379E+02  0.59574108549E+02  0.47000000000E+01 0. -1.
         -5    1    3    3    0  502  0.20012567318E+02 -0.51678073016E+02  0.51312298510E+02  0.75671448114E+02  0.47000000000E+01 0. -1.
        -11    1    1    2    0    0  0.14642943223E+02 -0.13247845707E+02 -0.10412277756E+02  0.22323456950E+02  0.00000000000E+00 0.  1.
         11    1    1    2    0    0 -0.60810761822E+02  0.20219433888E+02 -0.23131151136E+03  0.24002456030E+03  0.00000000000E+00 0. -1.
<mgrwt>
<rscale>  0 0.12473249E+03</rscale>
<asrwt>0</asrwt>
<pdfrwt beam="1">  1        2 0.13702051E-01 0.13340162E+03</pdfrwt>
<pdfrwt beam="2">  1       -2 0.47466192E-01 0.13340162E+03</pdfrwt>
<totfact> 0.17957784E+03</totfact>
</mgrwt>
</event>
<event>
 6    1  0.5928109E-006  0.2057720E+03  0.7546771E-02  0.1176633E+00
         -2   -1    0    0    0  501 -0.00000000000E+00  0.00000000000E+00  0.18618955623E+03  0.18618955623E+03  0.00000000000E+00 0.  1.
          2   -1    0    0  501    0  0.00000000000E+00 -0.00000000000E+00 -0.13383791598E+03  0.13383791598E+03  0.00000000000E+00 0. -1.
          5    1    1    2  502    0 -0.85543159825E+02 -0.76402810881E+02 -0.14239578384E+02  0.11567141953E+03  0.47000000000E+01 0. -1.
         -5    1    1    2    0  502  0.48145518192E+02  0.75576682758E+02  0.88768687479E+01  0.90170475752E+02  0.47000000000E+01 0.  1.
        -11    1    1    2    0    0  0.16505714202E+01 -0.41011626316E+02  0.37392293260E+02  0.55523521811E+02  0.00000000000E+00 0. -1.
         11    1    1    2    0    0  0.35747070213E+02  0.41837754439E+02  0.20322056628E+02  0.58662055120E+02  0.00000000000E+00 0.  1.
<mgrwt>
<rscale>  0 0.17116999E+03</rscale>
<asrwt>0</asrwt>
<pdfrwt beam="2">  1        2 0.20590449E-01 0.20577203E+03</pdfrwt>
<pdfrwt beam="1">  1       -2 0.28644547E-01 0.20577203E+03</pdfrwt>
<totfact> 0.29393787E+03</totfact>
</mgrwt>
</event>
<event>
 7    1  0.5928109E-006  0.1370767E+03  0.7546771E-02  0.1227597E+00
          4   -1    0    0  501    0  0.00000000000E+00  0.00000000000E+00  0.52033337551E+02  0.52033337551E+02  0.00000000000E+00 0. -1.
         -4   -1    0    0    0  501 -0.00000000000E+00 -0.00000000000E+00 -0.29796107741E+03  0.29796107741E+03  0.00000000000E+00 0.  1.
         23    2    1    2    0    0  0.41842903764E+02 -0.37606160288E+02 -0.11763390717E+03  0.18063152555E+03  0.12499984008E+03 0.  0.
          5    1    3    3  502    0  0.48367319273E+01  0.16618082859E+02 -0.11325856029E+03  0.11466972631E+03  0.47000000000E+01 0.  1.
         -5    1    3    3    0  502  0.37006171836E+02 -0.54224243147E+02 -0.43753468817E+01  0.65961799241E+02  0.47000000000E+01 0.  1.
        -11    1    1    2    0    0 -0.40983473660E+02  0.60791480785E+02 -0.12634956078E+03  0.14608032297E+03  0.00000000000E+00 0.  1.
         11    1    1    2    0    0 -0.85943010356E+00 -0.23185320497E+02 -0.19442719064E+01  0.23282566437E+02  0.00000000000E+00 0. -1.
<mgrwt>
<rscale>  0 0.12990517E+03</rscale>
<asrwt>0</asrwt>
<pdfrwt beam="1">  1        4 0.80051289E-02 0.13707666E+03</pdfrwt>
<pdfrwt beam="2">  1       -4 0.45840165E-01 0.13707666E+03</pdfrwt>
<totfact> 0.84620794E+02</totfact>
</mgrwt>
</event>
<event>
 7    1  0.5928109E-006  0.1735593E+03  0.7546771E-02  0.1180354E+00
         -2   -1    0    0    0  501 -0.00000000000E+00  0.00000000000E+00  0.25722526393E+03  0.25722526393E+03  0.00000000000E+00 0.  1.
          2   -1    0    0  501    0  0.00000000000E+00 -0.00000000000E+00 -0.39897864205E+03  0.39897864205E+03  0.00000000000E+00 0. -1.
         23    2    1    2    0    0 -0.11205930250E+02  0.11989340964E+03 -0.35485962538E+03  0.39502935740E+03  0.12499134743E+03 0.  0.
          5    1    3    3  502    0  0.23720236533E+02  0.88146263482E+02 -0.32804835167E+03  0.34054401246E+03  0.47000000000E+01 0. -1.
         -5    1    3    3    0  502 -0.34926166783E+02  0.31747146161E+02 -0.26811273713E+02  0.54485344944E+02  0.47000000000E+01 0. -1.
        -11    1    1    2    0    0  0.22826858225E+02 -0.40347292564E+02  0.17251143744E+02  0.49462828812E+02  0.00000000000E+00 0. -1.
         11    1    1    2    0    0 -0.11620927975E+02 -0.79546117080E+02  0.19585510353E+03  0.21171171977E+03  0.00000000000E+00 0.  1.
<mgrwt>
<rscale>  0 0.16761881E+03</rscale>
<asrwt>0</asrwt>
<pdfrwt beam="2">  1        2 0.61381330E-01 0.17355933E+03</pdfrwt>
<pdfrwt beam="1">  1       -2 0.39573117E-01 0.17355933E+03</pdfrwt>
<totfact> 0.49008732E+02</totfact>
</mgrwt>
</event>
<event>
 7    1  0.5928109E-006  0.1452358E+03  0.7546771E-02  0.1217203E+00
         -2   -1    0    0    0  501 -0.00000000000E+00  0.00000000000E+00  0.26447228120E+03  0.26447228120E+03  0.00000000000E+00 0.  1.
          2   -1    0    0  501    0  0.00000000000E+00 -0.00000000000E+00 -0.77967972115E+02  0.77967972115E+02  0.00000000000E+00 0. -1.
         23    2    1    2    0    0  0.33716881139E+02 -0.65812141677E+02  0.30645842553E+02  0.14843386914E+03  0.12500151910E+03 0.  0.
          5    1    3    3  502    0  0.61746837802E+01  0.28832449024E+02  0.39318641347E+02  0.49370865841E+02  0.47000000000E+01 0. -1.
         -5    1    3    3    0  502  0.27542197359E+02 -0.94644590702E+02 -0.86727987945E+01  0.99063003303E+02  0.47000000000E+01 0. -1.
        -11    1    1    2    0    0 -0.24289666818E+02  0.14945644817E+02 -0.13032227973E+01  0.28549231212E+02  0.00000000000E+00 0. -1.
         11    1    1    2    0    0 -0.94272143211E+01  0.50866496860E+02  0.15716168933E+03  0.16545715296E+03  0.00000000000E+00 0.  1.
<mgrwt>
<rscale>  0 0.13715976E+03</rscale>
<asrwt>0</asrwt>
<pdfrwt beam="2">  1        2 0.11995073E-01 0.14523583E+03</pdfrwt>
<pdfrwt beam="1">  1       -2 0.40688043E-01 0.14523583E+03</pdfrwt>
<totfact> 0.28451431E+03</totfact>
</mgrwt>
</event>
<event>
 7    1  0.5928109E-006  0.1651683E+03  0.7546771E-02  0.1189520E+00
          1   -1    0    0  501    0  0.00000000000E+00  0.00000000000E+00  0.38908650031E+03  0.38908650031E+03  0.00000000000E+00 0. -1.
         -1   -1    0    0    0  501 -0.00000000000E+00 -0.00000000000E+00 -0.67449787570E+02  0.67449787570E+02  0.00000000000E+00 0.  1.
         23    2    1    2    0    0  0.68846864342E+02 -0.83173526049E+02  0.24206086389E+03  0.29304268907E+03  0.12499131821E+03 0.  0.
          5    1    3    3  502    0 -0.81973754253E+01 -0.71474924463E+02  0.56075962434E+02  0.91337097358E+02  0.47000000000E+01 0. -1.
         -5    1    3    3    0  502  0.77044239768E+02 -0.11698601585E+02  0.18598490146E+03  0.20170559172E+03  0.47000000000E+01 0. -1.
        -11    1    1    2    0    0 -0.85144176032E+02  0.57225716624E+02  0.33042968792E+02  0.10777824986E+03  0.00000000000E+00 0. -1.
         11    1    1    2    0    0  0.16297311689E+02  0.25947809424E+02  0.46532880063E+02  0.55715348955E+02  0.00000000000E+00 0.  1.
<mgrwt>
<rscale>  0 0.15927330E+03</rscale>
<asrwt>0</asrwt>
<pdfrwt beam="1">  1        1 0.59859460E-01 0.16516827E+03</pdfrwt>
<pdfrwt beam="2">  1       -1 0.10376891E-01 0.16516827E+03</pdfrwt>
<totfact> 0.35290963E+03</totfact>
</mgrwt>
</event>
<event>
 6    1  0.5928109E-006  0.2063839E+03  0.7546771E-02  0.1168251E+00
         -2   -1    0    0    0  501 -0.00000000000E+00  0.00000000000E+00  0.62112004015E+03  0.62112004015E+03  0.00000000000E+00 0.  1.
          2   -1    0    0  501    0  0.00000000000E+00 -0.00000000000E+00 -0.67606098826E+02  0.67606098826E+02  0.00000000000E+00 0. -1.
          5    1    1    2  502    0 -0.10328552844E+03  0.49306191931E+02  0.42726477896E+02  0.12225646347E+03  0.47000000000E+01 0. -1.
         -5    1    1    2    0  502  0.85994049809E+02  0.15196041837E+02  0.75865475088E+02  0.11577373018E+03  0.47000000000E+01 0.  1.
        -11    1    1    2    0    0 -0.22808411174E+02  0.10030661099E+02  0.42627847379E+02  0.49375815482E+02  0.00000000000E+00 0. -1.
         11    1    1    2    0    0  0.40099889804E+02 -0.74532894867E+02  0.39229414097E+03  0.40132012984E+03  0.00000000000E+00 0.  1.
<mgrwt>
<rscale>  0 0.17953754E+03</rscale>
<asrwt>0</asrwt>
<pdfrwt beam="2">  1        2 0.10400939E-01 0.20638392E+03</pdfrwt>
<pdfrwt beam="1">  1       -2 0.95556926E-01 0.20638392E+03</pdfrwt>
<totfact> 0.57831512E+02</totfact>
</mgrwt>
</event>
<event>
 7    1  0.5928109E-006  0.3299735E+03  0.7546771E-02  0.1072400E+00
         -1   -1    0    0    0  501 -0.00000000000E+00  0.00000000000E+00  0.59030074718E+03  0.59030074718E+03  0.00000000000E+00 0.  1.
          1   -1    0    0  501    0  0.00000000000E+00 -0.00000000000E+00 -0.30765393254E+03  0.30765393254E+03  0.00000000000E+00 0. -1.
         23    2    1    2    0    0  0.27036396350E+03 -0.14199074648E+03 -0.14837996904E+03  0.36179986204E+03  0.12499792045E+03 0.  0.
          5    1    3    3  502    0  0.15225771673E+02  0.21211377947E+02 -0.65164595330E+01  0.27318508786E+02  0.47000000000E+01 0. -1.
         -5    1    3    3    0  502  0.25513819183E+03 -0.16320212443E+03 -0.14186350950E+03  0.33448135326E+03  0.47000000000E+01 0. -1.
        -11    1    1    2    0    0 -0.25634184173E+03  0.15268385901E+03  0.38653481944E+03  0.48829567606E+03  0.00000000000E+00 0. -1.
         11    1    1    2    0    0 -0.14022121777E+02 -0.10693112531E+02  0.44491964234E+02  0.47859141615E+02  0.00000000000E+00 0.  1.
<mgrwt>
<rscale>  0 0.32716184E+03</rscale>
<asrwt>0</asrwt>
<pdfrwt beam="2">  1        1 0.47331374E-01 0.32997352E+03</pdfrwt>
<pdfrwt beam="1">  1       -1 0.90815499E-01 0.32997352E+03</pdfrwt>
<totfact> 0.10589955E+02</totfact>
</mgrwt>
</event>
<event>
 7    1  0.5928109E-006  0.1391286E+03  0.7546771E-02  0.1227456E+00
         -2   -1    0    0    0  501 -0.00000000000E+00  0.00000000000E+00  0.12119719141E+02  0.12119719141E+02  0.00000000000E+00 0.  1.
          2   -1    0    0  501    0  0.00000000000E+00 -0.00000000000E+00 -0.13840394097E+04  0.13840394097E+04  0.00000000000E+00 0. -1.
         23    2    1    2    0    0 -0.58145599449E+02 -0.18687170816E+02 -0.99222628085E+03  0.10019330076E+04  0.12500655255E+03 0.  0.
          5    1    3    3  502    0  0.21735992734E+02 -0.36691771211E+02 -0.15925344926E+03  0.16493177546E+03  0.47000000000E+01 0.  1.
         -5    1    3    3    0  502 -0.79881592182E+02  0.18004600396E+02 -0.83297283159E+03  0.83700123212E+03  0.47000000000E+01 0.  1.
        -11    1    1    2    0    0  0.42255499768E+02 -0.28286812887E+02 -0.12870485841E+03  0.13838573489E+03  0.00000000000E+00 0.  1.
         11    1    1    2    0    0  0.15890099680E+02  0.46973983702E+02 -0.25098855126E+03  0.25584038633E+03  0.00000000000E+00 0. -1.
<mgrwt>
<rscale>  0 0.12999976E+03</rscale>
<asrwt>0</asrwt>
<pdfrwt beam="2">  1        2 0.21292905E+00 0.13912857E+03</pdfrwt>
<pdfrwt beam="1">  1       -2 0.18645730E-02 0.13912857E+03</pdfrwt>
<totfact> 0.13110203E+04</totfact>
</mgrwt>
</event>
<event>
 7    1  0.5928109E-006  0.1482264E+03  0.7546771E-02  0.1212287E+00
          2   -1    0    0  501    0  0.00000000000E+00  0.00000000000E+00  0.14768889786E+04  0.14768889786E+04  0.00000000000E+00 0. -1.
         -2   -1    0    0    0  501 -0.00000000000E+00 -0.00000000000E+00 -0.13356063849E+02  0.13356063849E+02  0.00000000000E+00 0.  1.
         23    2    1    2    0    0 -0.77478535627E+02 -0.18524692997E+02  0.10156284339E+04  0.10263879284E+04  0.12499990395E+03 0.  0.
          5    1    3    3  502    0  0.10805063484E+02 -0.50700731560E+02  0.28345191651E+03  0.28819159001E+03  0.47000000000E+01 0.  1.
         -5    1    3    3    0  502 -0.88283599111E+02  0.32176038563E+02  0.73217651743E+03  0.73819633838E+03  0.47000000000E+01 0.  1.
        -11    1    1    2    0    0  0.94327080550E+02  0.27246677029E+01  0.31044514901E+03  0.32447066506E+03  0.00000000000E+00 0.  1.
         11    1    1    2    0    0 -0.16848544923E+02  0.15800025295E+02  0.13745933178E+03  0.13938644898E+03  0.00000000000E+00 0. -1.
<mgrwt>
<rscale>  0 0.14077754E+03</rscale>
<asrwt>0</asrwt>
<pdfrwt beam="1">  1        2 0.22721356E+00 0.14822639E+03</pdfrwt>
<pdfrwt beam="2">  1       -2 0.20547802E-02 0.14822639E+03</pdfrwt>
<totfact> 0.10200823E+04</totfact>
</mgrwt>
</event>
<event>
 7    1  0.5928109E-006  0.1609976E+03  0.7546771E-02  0.1195110E+00
         -2   -1    0    0    0  501 -0.00000000000E+00  0.00000000000E+00  0.52600844669E+03  0.52600844669E+03  0.00000000000E+00 0.  1.
          2   -1    0    0  501    0  0.00000000000E+00 -0.00000000000E+00 -0.52804291460E+02  0.52804291460E+02  0.00000000000E+00 0. -1.
         23    2    1    2    0    0 -0.68354038089E+01 -0.10122663386E+03  0.12180272646E+03  0.20188147023E+03  0.12500667862E+03 0.  0.
          5    1    3    3  502    0 -0.45976654113E+02 -0.80008477383E+02  0.12673488445E+03  0.15684077949E+03  0.47000000000E+01 0. -1.
         -5    1    3    3    0  502  0.39141250305E+02 -0.21218156473E+02 -0.49321579828E+01  0.45040690735E+02  0.47000000000E+01 0. -1.
        -11    1    1    2    0    0 -0.28386985621E+02  0.94124783150E+02  0.22541376398E+03  0.24592002917E+03  0.00000000000E+00 0.  1.
         11    1    1    2    0    0  0.35222389430E+02  0.71018507059E+01  0.12598766479E+03  0.13101123876E+03  0.00000000000E+00 0. -1.
<mgrwt>
<rscale>  0 0.15444959E+03</rscale>
<asrwt>0</asrwt>
<pdfrwt beam="2">  1        2 0.81237375E-02 0.16099759E+03</pdfrwt>
<pdfrwt beam="1">  1       -2 0.80924373E-01 0.16099759E+03</pdfrwt>
<totfact> 0.11344690E+03</totfact>
</mgrwt>
</event>
<event>
 7    1  0.5928109E-006  0.1454423E+03  0.7546771E-02  0.1218366E+00
         -2   -1    0    0    0  501 -0.00000000000E+00  0.00000000000E+00  0.19775508815E+03  0.19775508815E+03  0.00000000000E+00 0.  1.
          2   -1    0    0  501    0  0.00000000000E+00 -0.00000000000E+00 -0.93276780752E+02  0.93276780752E+02  0.00000000000E+00 0. -1.
         23    2    1    2    0    0 -0.65597225789E+02  0.35073535629E+02  0.12623306082E+02  0.14598909754E+03  0.12498127784E+03 0.  0.
          5    1    3    3  502    0 -0.26135827114E+02  0.59902136826E+02 -0.39014213189E+02  0.76259729124E+02  0.47000000000E+01 0.  1.
         -5    1    3    3    0  502 -0.39461398675E+02 -0.24828601197E+02  0.51637519271E+02  0.69729368413E+02  0.47000000000E+01 0.  1.
        -11    1    1    2    0    0  0.36558239836E+02  0.69386034589E+01  0.85915045394E+02  0.93627154944E+02  0.00000000000E+00 0.  1.
         11    1    1    2    0    0  0.29038985953E+02 -0.42012139088E+02  0.59399559244E+01  0.51415616424E+02  0.00000000000E+00 0. -1.
<mgrwt>
<rscale>  0 0.13632161E+03</rscale>
<asrwt>0</asrwt>
<pdfrwt beam="2">  1        2 0.14350274E-01 0.14544232E+03</pdfrwt>
<pdfrwt beam="1">  1       -2 0.30423860E-01 0.14544232E+03</pdfrwt>
<totfact> 0.39363990E+03</totfact>
</mgrwt>
</event>
<event>
 7    1  0.5928109E-006  0.1541307E+03  0.7546771E-02  0.1204054E+00
          1   -1    0    0  501    0  0.00000000000E+00  0.00000000000E+00  0.93836621518E+03  0.93836621518E+03  0.00000000000E+00 0. -1.
         -1   -1    0    0    0  501 -0.00000000000E+00 -0.00000000000E+00 -0.23329361504E+02  0.23329361504E+02  0.00000000000E+00 0.  1.
         23    2    1    2    0    0  0.37121399918E+01 -0.90104382837E+02  0.64082398436E+03  0.65909911084E+03  0.12499471666E+03 0.  0.
          5    1    3    3  502    0 -0.15572415591E+01  0.30023585588E+02  0.19323152606E+03  0.19561276378E+03  0.47000000000E+01 0.  1.
         -5    1    3    3    0  502  0.52693815509E+01 -0.12012796843E+03  0.44759245830E+03  0.46348634706E+03  0.47000000000E+01 0.  1.
        -11    1    1    2    0    0 -0.16926902467E+02  0.27292256817E+02  0.14801489713E+02  0.35362005134E+02  0.00000000000E+00 0.  1.
         11    1    1    2    0    0  0.13214762476E+02  0.62812126020E+02  0.25941137960E+03  0.26723446071E+03  0.00000000000E+00 0. -1.
<mgrwt>
<rscale>  0 0.14712255E+03</rscale>
<asrwt>0</asrwt>
<pdfrwt beam="1">  1        1 0.14436400E+00 0.15413066E+03</pdfrwt>
<pdfrwt beam="2">  1       -1 0.35891333E-02 0.15413066E+03</pdfrwt>
<totfact> 0.50469481E+03</totfact>
</mgrwt>
</event>
<event>
 7    1  0.5928109E-006  0.1635160E+03  0.7546771E-02  0.1191095E+00
         -1   -1    0    0    0  501 -0.00000000000E+00  0.00000000000E+00  0.35284777829E+03  0.35284777829E+03  0.00000000000E+00 0.  1.
          1   -1    0    0  501    0  0.00000000000E+00 -0.00000000000E+00 -0.77283954154E+02  0.77283954154E+02  0.00000000000E+00 0. -1.
         23    2    1    2    0    0  0.59833770308E+02 -0.86793379071E+02  0.64761470619E+02  0.17587363048E+03  0.12499726037E+03 0.  0.
          5    1    3    3  502    0  0.32602697983E+01  0.30485158029E+02  0.24417888223E+02  0.39475276876E+02  0.47000000000E+01 0. -1.
         -5    1    3    3    0  502  0.56573500510E+02 -0.11727853710E+03  0.40343582396E+02  0.13639835360E+03  0.47000000000E+01 0. -1.
        -11    1    1    2    0    0 -0.60134422144E+02  0.72595918467E+01  0.70199698581E+02  0.92719189391E+02  0.00000000000E+00 0. -1.
         11    1    1    2    0    0  0.30065183564E+00  0.79533787225E+02  0.14060265494E+03  0.16153891258E+03  0.00000000000E+00 0.  1.
<mgrwt>
<rscale>  0 0.15789370E+03</rscale>
<asrwt>0</asrwt>
<pdfrwt beam="2">  1        1 0.11889839E-01 0.16351601E+03</pdfrwt>
<pdfrwt beam="1">  1       -1 0.54284273E-01 0.16351601E+03</pdfrwt>
<totfact> 0.17565268E+03</totfact>
</mgrwt>
</event>
<event>
 6    1  0.5928109E-006  0.1864538E+03  0.7546771E-02  0.1178695E+00
          1   -1    0    0  501    0  0.00000000000E+00  0.00000000000E+00  0.11903567355E+04  0.11903567355E+04  0.00000000000E+00 0. -1.
         -1   -1    0    0    0  501 -0.00000000000E+00 -0.00000000000E+00 -0.25022495262E+02  0.25022495262E+02  0.00000000000E+00 0.  1.
          5    1    1    2  502    0 -0.16249392161E+02  0.10705967627E+03  0.68906683447E+03  0.69753925295E+03  0.47000000000E+01 0. -1.
         -5    1    1    2    0  502  0.62413609117E+02 -0.31473364716E+02  0.23825135111E+03  0.24833813158E+03  0.47000000000E+01 0.  1.
        -11    1    1    2    0    0 -0.71284538675E+02 -0.68001533449E+02  0.16834569769E+03  0.19505375653E+03  0.00000000000E+00 0.  1.
         11    1    1    2    0    0  0.25120321719E+02 -0.75847781091E+01  0.69670357016E+02  0.74448089761E+02  0.00000000000E+00 0. -1.
<mgrwt>
<rscale>  0 0.16918978E+03</rscale>
<asrwt>0</asrwt>
<pdfrwt beam="1">  1        1 0.18313176E+00 0.18645377E+03</pdfrwt>
<pdfrwt beam="2">  1       -1 0.38496156E-02 0.18645377E+03</pdfrwt>
<totfact> 0.30109545E+03</totfact>
</mgrwt>
</event>
<event>
 7    1  0.5928109E-006  0.1661385E+03  0.7546771E-02  0.1189109E+00
         -3   -1    0    0    0  501 -0.00000000000E+00  0.00000000000E+00  0.32908577965E+03  0.32908577965E+03  0.00000000000E+00 0.  1.
          3   -1    0    0  501    0  0.00000000000E+00 -0.00000000000E+00 -0.14835406586E+03  0.14835406586E+03  0.00000000000E+00 0. -1.
         23    2    1    2    0    0 -0.59307602921E+01 -0.10927631362E+03 -0.77192685741E+02  0.18319584324E+03  0.12500207844E+03 0.  0.
          5    1    3    3  502    0 -0.57878710937E+02 -0.80085399351E+02 -0.20938034017E+02  0.10111432954E+03  0.47000000000E+01 0. -1.
         -5    1    3    3    0  502  0.51947950645E+02 -0.29190914269E+02 -0.56254651723E+02  0.82081513708E+02  0.47000000000E+01 0. -1.
        -11    1    1    2    0    0 -0.15955493567E+00  0.66565846220E+02  0.23723516199E+03  0.24639715791E+03  0.00000000000E+00 0.  1.
         11    1    1    2    0    0  0.60903152278E+01  0.42710467401E+02  0.20689237534E+02  0.47846844356E+02  0.00000000000E+00 0. -1.
<mgrwt>
<rscale>  0 0.15963544E+03</rscale>
<asrwt>0</asrwt>
<pdfrwt beam="2">  1        3 0.22823703E-01 0.16613852E+03</pdfrwt>
<pdfrwt beam="1">  1       -3 0.50628581E-01 0.16613852E+03</pdfrwt>
<totfact> 0.16537508E+02</totfact>
</mgrwt>
</event>
<event>
 7    1  0.5928109E-006  0.1659461E+03  0.7546771E-02  0.1186607E+00
          4   -1    0    0  501    0  0.00000000000E+00  0.00000000000E+00  0.17504932573E+03  0.17504932573E+03  0.00000000000E+00 0. -1.
         -4   -1    0    0    0  501 -0.00000000000E+00 -0.00000000000E+00 -0.15751937395E+03  0.15751937395E+03  0.00000000000E+00 0.  1.
         23    2    1    2    0    0 -0.41633641196E+02  0.10085120007E+03  0.60008280637E+02  0.17646279411E+03  0.12503519235E+03 0.  0.
          5    1    3    3  502    0 -0.53495280572E+02  0.55914487182E+01  0.59507973075E+02  0.80351093345E+02  0.47000000000E+01 0. -1.
         -5    1    3    3    0  502  0.11861639376E+02  0.95259751353E+02  0.50030756137E+00  0.96111700766E+02  0.47000000000E+01 0. -1.
        -11    1    1    2    0    0 -0.12112642781E+02 -0.90116374220E+02 -0.44560232042E+02  0.10125853691E+03  0.00000000000E+00 0.  1.
         11    1    1    2    0    0  0.53746283977E+02 -0.10734825852E+02  0.20819031830E+01  0.54847368654E+02  0.00000000000E+00 0. -1.
<mgrwt>
<rscale>  0 0.16186537E+03</rscale>
<asrwt>0</asrwt>
<pdfrwt beam="1">  1        4 0.26930666E-01 0.16594615E+03</pdfrwt>
<pdfrwt beam="2">  1       -4 0.24233750E-01 0.16594615E+03</pdfrwt>
<totfact> 0.35683078E+02</totfact>
</mgrwt>
</event>
<event>
 7    1  0.5928109E-006  0.1406426E+03  0.7546771E-02  0.1223413E+00
          3   -1    0    0  501    0  0.00000000000E+00  0.00000000000E+00  0.20307312498E+04  0.20307312498E+04  0.00000000000E+00 0. -1.
         -3   -1    0    0    0  501 -0.00000000000E+00 -0.00000000000E+00 -0.95219124101E+01  0.95219124101E+01  0.00000000000E+00 0.  1.
         23    2    1    2    0    0 -0.64390768627E+02 -0.33162909692E+01  0.15328294066E+04  0.15392681163E+04  0.12499270046E+03 0.  0.
          5    1    3    3  502    0 -0.94733002932E+02 -0.19098811844E+02  0.13306105875E+04  0.13341235820E+04  0.47000000000E+01 0. -1.
         -5    1    3    3    0  502  0.30342234305E+02  0.15782520875E+02  0.20221881914E+03  0.20514453432E+03  0.47000000000E+01 0. -1.
        -11    1    1    2    0    0  0.86829578084E+02 -0.26028140815E+00  0.42149974636E+03  0.43035041485E+03  0.00000000000E+00 0. -1.
         11    1    1    2    0    0 -0.22438809456E+02  0.35765723774E+01  0.66880184409E+02  0.70634631070E+02  0.00000000000E+00 0.  1.
<mgrwt>
<rscale>  0 0.13276256E+03</rscale>
<asrwt>0</asrwt>
<pdfrwt beam="1">  1        3 0.31241985E+00 0.14064261E+03</pdfrwt>
<pdfrwt beam="2">  1       -3 0.14649112E-02 0.14064261E+03</pdfrwt>
<totfact> 0.14225659E+02</totfact>
</mgrwt>
</event>
<event>
 7    1  0.5928109E-006  0.1402451E+03  0.7546771E-02  0.1222965E+00
          2   -1    0    0  501    0  0.00000000000E+00  0.00000000000E+00  0.47850607704E+02  0.47850607704E+02  0.00000000000E+00 0.  1.
         -2   -1    0    0    0  501 -0.00000000000E+00 -0.00000000000E+00 -0.34110960195E+03  0.34110960195E+03  0.00000000000E+00 0. -1.
         23    2    1    2    0    0 -0.47775006805E+02 -0.41914451337E+02 -0.14025717558E+03  0.19834504066E+03  0.12501762815E+03 0.  0.
          5    1    3    3  502    0  0.36896115023E+02  0.96965288716E+01 -0.23344451697E+02  0.44971095172E+02  0.47000000000E+01 0.  1.
         -5    1    3    3    0  502 -0.84671121827E+02 -0.51610980209E+02 -0.11691272388E+03  0.15337394549E+03  0.47000000000E+01 0.  1.
        -11    1    1    2    0    0  0.69830729569E+02  0.24757299069E+02 -0.65955356777E+02  0.99193567014E+02  0.00000000000E+00 0.  1.
         11    1    1    2    0    0 -0.22055722764E+02  0.17157152268E+02 -0.87046461895E+02  0.91421601983E+02  0.00000000000E+00 0. -1.
<mgrwt>
<rscale>  0 0.13307387E+03</rscale>
<asrwt>0</asrwt>
<pdfrwt beam="1">  1        2 0.73616322E-02 0.14024507E+03</pdfrwt>
<pdfrwt beam="2">  1       -2 0.52478399E-01 0.14024507E+03</pdfrwt>
<totfact> 0.31621164E+03</totfact>
</mgrwt>
</event>
<event>
 7    1  0.5928109E-006  0.1255896E+03  0.7546771E-02  0.1248439E+00
         -2   -1    0    0    0  501 -0.00000000000E+00  0.00000000000E+00  0.76980568689E+02  0.76980568689E+02  0.00000000000E+00 0.  1.
          2   -1    0    0  501    0  0.00000000000E+00 -0.00000000000E+00 -0.17928206631E+03  0.17928206631E+03  0.00000000000E+00 0. -1.
         23    2    1    2    0    0  0.74001738865E+01 -0.95593756546E+01 -0.10272203826E+03  0.16224850235E+03  0.12500646037E+03 0.  0.
          5    1    3    3  502    0 -0.36707763449E+02  0.28174007657E+02 -0.91922568215E+02  0.10301981922E+03  0.47000000000E+01 0.  1.
         -5    1    3    3    0  502  0.44107937336E+02 -0.37733383311E+02 -0.10799470043E+02  0.59228683130E+02  0.47000000000E+01 0.  1.
        -11    1    1    2    0    0 -0.48343073590E+02  0.20450626644E+01 -0.13306137406E+02  0.50182550136E+02  0.00000000000E+00 0.  1.
         11    1    1    2    0    0  0.40942899704E+02  0.75143129902E+01  0.13726678039E+02  0.43831582516E+02  0.00000000000E+00 0. -1.
<mgrwt>
<rscale>  0 0.11681876E+03</rscale>
<asrwt>0</asrwt>
<pdfrwt beam="2">  1        2 0.27581856E-01 0.12558965E+03</pdfrwt>
<pdfrwt beam="1">  1       -2 0.11843165E-01 0.12558965E+03</pdfrwt>
<totfact> 0.91268030E+03</totfact>
</mgrwt>
</event>
<event>
 7    1  0.5928109E-006  0.1477152E+03  0.7546771E-02  0.1212934E+00
         -2   -1    0    0    0  501 -0.00000000000E+00  0.00000000000E+00  0.25506142807E+02  0.25506142807E+02  0.00000000000E+00 0.  1.
          2   -1    0    0  501    0  0.00000000000E+00 -0.00000000000E+00 -0.70791144924E+03  0.70791144924E+03  0.00000000000E+00 0. -1.
         23    2    1    2    0    0 -0.21843055292E+02 -0.75615602986E+02 -0.34725190887E+03  0.37736409409E+03  0.12499973124E+03 0.  0.
          5    1    3    3  502    0 -0.62407314044E+02 -0.72380138768E+02 -0.29968430535E+03  0.31458914509E+03  0.47000000000E+01 0.  1.
         -5    1    3    3    0  502  0.40564258752E+02 -0.32354642173E+01 -0.47567603520E+02  0.62774948996E+02  0.47000000000E+01 0.  1.
        -11    1    1    2    0    0  0.52953871260E+02  0.23761204540E+02 -0.13457104263E+03  0.14655399291E+03  0.00000000000E+00 0. -1.
         11    1    1    2    0    0 -0.31110815968E+02  0.51854398446E+02 -0.20058235492E+03  0.20949950505E+03  0.00000000000E+00 0.  1.
<mgrwt>
<rscale>  0 0.14029377E+03</rscale>
<asrwt>0</asrwt>
<pdfrwt beam="2">  1        2 0.10890946E+00 0.14771517E+03</pdfrwt>
<pdfrwt beam="1">  1       -2 0.39240218E-02 0.14771517E+03</pdfrwt>
<totfact> 0.11249471E+04</totfact>
</mgrwt>
</event>
<event>
 7    1  0.5928109E-006  0.1179689E+03  0.7546771E-02  0.1254859E+00
         -1   -1    0    0    0  501 -0.00000000000E+00  0.00000000000E+00  0.29423653612E+02  0.29423653612E+02  0.00000000000E+00 0.  1.
          1   -1    0    0  501    0  0.00000000000E+00 -0.00000000000E+00 -0.40476266455E+03  0.40476266455E+03  0.00000000000E+00 0. -1.
         23    2    1    2    0    0  0.27357310072E+02  0.99360586617E+01 -0.21755124638E+03  0.24747767699E+03  0.11432194947E+03 0.  0.
          5    1    3    3  502    0  0.56991621003E+02 -0.30833376669E+02 -0.97189068289E+02  0.11690400753E+03  0.47000000000E+01 0. -1.
         -5    1    3    3    0  502 -0.29634310931E+02  0.40769435331E+02 -0.12036217809E+03  0.13057366946E+03  0.47000000000E+01 0.  1.
        -11    1    1    2    0    0 -0.31941128951E+02 -0.35731733553E+02 -0.30627539472E+02  0.56877400393E+02  0.00000000000E+00 0.  1.
         11    1    1    2    0    0  0.45838188790E+01  0.25795674891E+02 -0.12716022509E+03  0.12983124078E+03  0.00000000000E+00 0. -1.
<mgrwt>
<rscale>  0 0.11314233E+03</rscale>
<asrwt>0</asrwt>
<pdfrwt beam="2">  1        1 0.62271176E-01 0.11796888E+03</pdfrwt>
<pdfrwt beam="1">  1       -1 0.45267162E-02 0.11796888E+03</pdfrwt>
<totfact> 0.11420192E+04</totfact>
</mgrwt>
</event>
<event>
 7    1  0.5928109E-006  0.1279575E+03  0.7546771E-02  0.1245851E+00
         -2   -1    0    0    0  501 -0.00000000000E+00  0.00000000000E+00  0.48050023474E+02  0.48050023474E+02  0.00000000000E+00 0.  1.
          2   -1    0    0  501    0  0.00000000000E+00 -0.00000000000E+00 -0.26442555788E+03  0.26442555788E+03  0.00000000000E+00 0. -1.
         23    2    1    2    0    0 -0.22344355980E+02  0.15785991082E+02 -0.15279975704E+03  0.19930098818E+03  0.12499860151E+03 0.  0.
          5    1    3    3  502    0  0.39601613928E+02  0.32858494795E+02 -0.11117627424E+03  0.12259780773E+03  0.47000000000E+01 0. -1.
         -5    1    3    3    0  502 -0.61945969908E+02 -0.17072503713E+02 -0.41623482804E+02  0.76703180453E+02  0.47000000000E+01 0. -1.
        -11    1    1    2    0    0  0.26820688360E+02  0.28371933820E+02 -0.45256481874E+01  0.39303911311E+02  0.00000000000E+00 0.  1.
         11    1    1    2    0    0 -0.44763323795E+01 -0.44157924902E+02 -0.59050129176E+02  0.73870681864E+02  0.00000000000E+00 0. -1.
<mgrwt>
<rscale>  0 0.11834590E+03</rscale>
<asrwt>0</asrwt>
<pdfrwt beam="2">  1        2 0.40680854E-01 0.12795749E+03</pdfrwt>
<pdfrwt beam="1">  1       -2 0.73923114E-02 0.12795749E+03</pdfrwt>
<totfact> 0.12573061E+04</totfact>
</mgrwt>
</event>
<event>
 7    1  0.5928109E-006  0.1890457E+03  0.7546771E-02  0.1164156E+00
          1   -1    0    0  501    0  0.00000000000E+00  0.00000000000E+00  0.35283054828E+03  0.35283054828E+03  0.00000000000E+00 0. -1.
         -1   -1    0    0    0  501 -0.00000000000E+00 -0.00000000000E+00 -0.91136884815E+02  0.91136884815E+02  0.00000000000E+00 0.  1.
         23    2    1    2    0    0 -0.89706776511E+02  0.10984462886E+03  0.15095120756E+03  0.24191844738E+03  0.12500047952E+03 0.  0.
          5    1    3    3  502    0 -0.73921590897E+02  0.82564861449E+02  0.17132404811E+03  0.20409649044E+03  0.47000000000E+01 0. -1.
         -5    1    3    3    0  502 -0.15785185614E+02  0.27279767414E+02 -0.20372840556E+02  0.37821956948E+02  0.47000000000E+01 0. -1.
        -11    1    1    2    0    0  0.80599247858E+01 -0.33619763686E+02  0.78523065343E+02  0.85796985312E+02  0.00000000000E+00 0. -1.
         11    1    1    2    0    0  0.81646851725E+02 -0.76224865177E+02  0.32219390566E+02  0.11625200040E+03  0.00000000000E+00 0.  1.
<mgrwt>
<rscale>  0 0.18382080E+03</rscale>
<asrwt>0</asrwt>
<pdfrwt beam="1">  1        1 0.54281622E-01 0.18904568E+03</pdfrwt>
<pdfrwt beam="2">  1       -1 0.14021059E-01 0.18904568E+03</pdfrwt>
<totfact> 0.25141614E+03</totfact>
</mgrwt>
</event>
<event>
 7    1  0.5928109E-006  0.1465304E+03  0.7546771E-02  0.1213654E+00
         -2   -1    0    0    0  501 -0.00000000000E+00  0.00000000000E+00  0.29299253385E+02  0.29299253385E+02  0.00000000000E+00 0.  1.
          2   -1    0    0  501    0  0.00000000000E+00 -0.00000000000E+00 -0.78490102413E+03  0.78490102413E+03  0.00000000000E+00 0. -1.
         23    2    1    2    0    0 -0.31786168586E+02  0.69528459715E+02 -0.59604795701E+03  0.61379501443E+03  0.12500634167E+03 0.  0.
          5    1    3    3  502    0  0.63764629858E+01  0.97987896922E+02 -0.37952015366E+03  0.39204581908E+03  0.47000000000E+01 0. -1.
         -5    1    3    3    0  502 -0.38162631571E+02 -0.28459437207E+02 -0.21652780335E+03  0.22174919535E+03  0.47000000000E+01 0. -1.
        -11    1    1    2    0    0  0.18261978582E+02 -0.45083662522E+02 -0.16493242355E+03  0.17195563622E+03  0.00000000000E+00 0. -1.
         11    1    1    2    0    0  0.13524190004E+02 -0.24444797193E+02  0.53786098219E+01  0.28449626863E+02  0.00000000000E+00 0.  1.
<mgrwt>
<rscale>  0 0.13975853E+03</rscale>
<asrwt>0</asrwt>
<pdfrwt beam="2">  1        2 0.12075400E+00 0.14653038E+03</pdfrwt>
<pdfrwt beam="1">  1       -2 0.45075775E-02 0.14653038E+03</pdfrwt>
<totfact> 0.80636647E+03</totfact>
</mgrwt>
</event>
<event>
 7    1  0.5928109E-006  0.2021563E+03  0.7546771E-02  0.1151976E+00
          2   -1    0    0  501    0  0.00000000000E+00  0.00000000000E+00  0.16136080667E+04  0.16136080667E+04  0.00000000000E+00 0. -1.
         -2   -1    0    0    0  501 -0.00000000000E+00 -0.00000000000E+00 -0.24821581557E+02  0.24821581557E+02  0.00000000000E+00 0.  1.
         23    2    1    2    0    0  0.76344246256E+02 -0.13930948938E+03  0.10474171611E+04  0.10667473433E+04  0.12502642559E+03 0.  0.
          5    1    3    3  502    0 -0.25511712812E+02 -0.77124242075E+02  0.48632711485E+03  0.49308736431E+03  0.47000000000E+01 0. -1.
         -5    1    3    3    0  502  0.10185595907E+03 -0.62185247305E+02  0.56109004630E+03  0.57365997894E+03  0.47000000000E+01 0. -1.
        -11    1    1    2    0    0  0.68226354633E+01  0.34984096285E+02  0.43456175854E+02  0.56203866125E+02  0.00000000000E+00 0.  1.
         11    1    1    2    0    0 -0.83166881719E+02  0.10432539310E+03  0.49791314810E+03  0.51547843884E+03  0.00000000000E+00 0. -1.
<mgrwt>
<rscale>  0 0.19737108E+03</rscale>
<asrwt>0</asrwt>
<pdfrwt beam="1">  1        2 0.24824731E+00 0.20215634E+03</pdfrwt>
<pdfrwt beam="2">  1       -2 0.38187061E-02 0.20215634E+03</pdfrwt>
<totfact> 0.34917791E+03</totfact>
</mgrwt>
</event>
<event>
 7    1  0.5928109E-006  0.1581579E+03  0.7546771E-02  0.1199324E+00
          1   -1    0    0  501    0  0.00000000000E+00  0.00000000000E+00  0.27017978915E+03  0.27017978915E+03  0.00000000000E+00 0. -1.
         -1   -1    0    0    0  501 -0.00000000000E+00 -0.00000000000E+00 -0.78658206877E+02  0.78658206877E+02  0.00000000000E+00 0.  1.
         23    2    1    2    0    0 -0.49662263996E+02 -0.83203222750E+02  0.12585344345E+03  0.20212130411E+03  0.12499926242E+03 0.  0.
          5    1    3    3  502    0 -0.47694387448E+01 -0.97111538135E+02  0.42287100676E+02  0.10613051997E+03  0.47000000000E+01 0. -1.
         -5    1    3    3    0  502 -0.44892825252E+02  0.13908315386E+02  0.83566342772E+02  0.95990784142E+02  0.47000000000E+01 0. -1.
        -11    1    1    2    0    0  0.59507382365E+02  0.26586243649E+02  0.60652028534E+02  0.89031598170E+02  0.00000000000E+00 0. -1.
         11    1    1    2    0    0 -0.98451183690E+01  0.56616979101E+02  0.50161102910E+01  0.57685093748E+02  0.00000000000E+00 0.  1.
<mgrwt>
<rscale>  0 0.15093913E+03</rscale>
<asrwt>0</asrwt>
<pdfrwt beam="1">  1        1 0.41566121E-01 0.15815793E+03</pdfrwt>
<pdfrwt beam="2">  1       -1 0.12101263E-01 0.15815793E+03</pdfrwt>
<totfact> 0.43833423E+03</totfact>
</mgrwt>
</event>
<event>
 7    1  0.5928109E-006  0.1367631E+03  0.7546771E-02  0.1231199E+00
         -1   -1    0    0    0  501 -0.00000000000E+00  0.00000000000E+00  0.19306823070E+03  0.19306823070E+03  0.00000000000E+00 0.  1.
          1   -1    0    0  501    0  0.00000000000E+00 -0.00000000000E+00 -0.74728407959E+02  0.74728407959E+02  0.00000000000E+00 0. -1.
         23    2    1    2    0    0 -0.21778957883E+02 -0.51018139015E+02  0.71753837354E+02  0.15444340883E+03  0.12500791911E+03 0.  0.
          5    1    3    3  502    0  0.12779177959E+02 -0.19813033165E+02  0.97918936177E+02  0.10082693953E+03  0.47000000000E+01 0.  1.
         -5    1    3    3    0  502 -0.34558135842E+02 -0.31205105850E+02 -0.26165098823E+02  0.53616469302E+02  0.47000000000E+01 0.  1.
        -11    1    1    2    0    0 -0.14744677028E+02  0.21330029335E+02  0.59195597876E+02  0.64625803360E+02  0.00000000000E+00 0.  1.
         11    1    1    2    0    0  0.36523634910E+02  0.29688109680E+02 -0.12609612487E+02  0.48727426471E+02  0.00000000000E+00 0. -1.
<mgrwt>
<rscale>  0 0.12750922E+03</rscale>
<asrwt>0</asrwt>
<pdfrwt beam="2">  1        1 0.11496678E-01 0.13676313E+03</pdfrwt>
<pdfrwt beam="1">  1       -1 0.29702804E-01 0.13676313E+03</pdfrwt>
<totfact> 0.52664916E+03</totfact>
</mgrwt>
</event>
<event>
 7    1  0.5928109E-006  0.1833311E+03  0.7546771E-02  0.1170057E+00
         -1   -1    0    0    0  501 -0.00000000000E+00  0.00000000000E+00  0.96240340813E+02  0.96240340813E+02  0.00000000000E+00 0.  1.
          1   -1    0    0  501    0  0.00000000000E+00 -0.00000000000E+00 -0.30979094416E+03  0.30979094416E+03  0.00000000000E+00 0. -1.
         23    2    1    2    0    0 -0.26040065743E+02 -0.13155605124E+03 -0.10626103196E+03  0.21190023678E+03  0.12500089517E+03 0.  0.
          5    1    3    3  502    0  0.42766961116E+02 -0.83585396548E+02 -0.81227400303E+02  0.12423973615E+03  0.47000000000E+01 0. -1.
         -5    1    3    3    0  502 -0.68807026858E+02 -0.47970654697E+02 -0.25033631656E+02  0.87660500632E+02  0.47000000000E+01 0. -1.
        -11    1    1    2    0    0  0.49330231880E+02  0.93280773412E+02 -0.10561410959E+03  0.14929539380E+03  0.00000000000E+00 0.  1.
         11    1    1    2    0    0 -0.23290166137E+02  0.38275277833E+02 -0.16754617954E+01  0.44835654385E+02  0.00000000000E+00 0. -1.
<mgrwt>
<rscale>  0 0.17769069E+03</rscale>
<asrwt>0</asrwt>
<pdfrwt beam="2">  1        1 0.47660145E-01 0.18333113E+03</pdfrwt>
<pdfrwt beam="1">  1       -1 0.14806206E-01 0.18333113E+03</pdfrwt>
<totfact> 0.27140286E+03</totfact>
</mgrwt>
</event>
<event>
 7    1  0.7447203E-006  0.1452355E+03  0.7546771E-02  0.1216655E+00
         -1   -1    0    0    0  501 -0.00000000000E+00  0.00000000000E+00  0.46168895686E+02  0.46168895686E+02  0.00000000000E+00 0.  1.
          1   -1    0    0  501    0  0.00000000000E+00 -0.00000000000E+00 -0.38517262544E+03  0.38517262544E+03  0.00000000000E+00 0. -1.
         23    2    1    2    0    0  0.73664068863E+02 -0.64653379603E+01 -0.22687162218E+03  0.26937723005E+03  0.12500065392E+03 0.  0.
          5    1    3    3  502    0 -0.24149748783E+02 -0.33131174467E+02 -0.89733979088E+02  0.98768224095E+02  0.47000000000E+01 0. -1.
         -5    1    3    3    0  502  0.97813817645E+02  0.26665836507E+02 -0.13713764310E+03  0.17060900596E+03  0.47000000000E+01 0. -1.
        -11    1    1    2    0    0 -0.21922589083E+02  0.46230126446E+02 -0.42286137823E+02  0.66377269870E+02  0.00000000000E+00 0.  1.
         11    1    1    2    0    0 -0.51741479780E+02 -0.39764788486E+02 -0.69845969742E+02  0.95587021202E+02  0.00000000000E+00 0. -1.
<mgrwt>
<rscale>  0 0.13755656E+03</rscale>
<asrwt>0</asrwt>
<pdfrwt beam="2">  1        1 0.59257324E-01 0.14523553E+03</pdfrwt>
<pdfrwt beam="1">  1       -1 0.71029074E-02 0.14523553E+03</pdfrwt>
<totfact> 0.63163921E+03</totfact>
</mgrwt>
</event>
<event>
 7    1  0.5928109E-006  0.1302047E+03  0.7546771E-02  0.1241639E+00
          2   -1    0    0  501    0  0.00000000000E+00  0.00000000000E+00  0.45250688522E+03  0.45250688522E+03  0.00000000000E+00 0. -1.
         -2   -1    0    0    0  501 -0.00000000000E+00 -0.00000000000E+00 -0.32257800917E+02  0.32257800917E+02  0.00000000000E+00 0.  1.
         23    2    1    2    0    0  0.23717983561E+02  0.27625424451E+02  0.31984173068E+03  0.34532882828E+03  0.12501024013E+03 0.  0.
          5    1    3    3  502    0  0.46334106934E+02 -0.35341280612E+02  0.10399373333E+03  0.11930063769E+03  0.47000000000E+01 0.  1.
         -5    1    3    3    0  502 -0.22616123373E+02  0.62966705063E+02  0.21584799735E+03  0.22602819059E+03  0.47000000000E+01 0.  1.
        -11    1    1    2    0    0 -0.55849175136E+02 -0.52888637913E+01  0.46752602812E+02  0.73026764362E+02  0.00000000000E+00 0. -1.
         11    1    1    2    0    0  0.32131191575E+02 -0.22336560660E+02  0.53654750809E+02  0.66409093493E+02  0.00000000000E+00 0.  1.
<mgrwt>
<rscale>  0 0.12088814E+03</rscale>
<asrwt>0</asrwt>
<pdfrwt beam="1">  1        2 0.69616440E-01 0.13020471E+03</pdfrwt>
<pdfrwt beam="2">  1       -2 0.49627389E-02 0.13020471E+03</pdfrwt>
<totfact> 0.13011454E+04</totfact>
</mgrwt>
</event>
<event>
 7    1  0.5928109E-006  0.1441598E+03  0.7546771E-02  0.1218659E+00
         -1   -1    0    0    0  501 -0.00000000000E+00  0.00000000000E+00  0.84715078993E+03  0.84715078993E+03  0.00000000000E+00 0.  1.
          1   -1    0    0  501    0  0.00000000000E+00 -0.00000000000E+00 -0.21487757009E+02  0.21487757009E+02  0.00000000000E+00 0. -1.
         23    2    1    2    0    0 -0.20520442806E+02  0.68817362501E+02  0.33361526633E+03  0.36342977252E+03  0.12500054268E+03 0.  0.
          5    1    3    3  502    0 -0.22413051905E+02  0.56282032861E+02  0.34210862241E+03  0.34746282052E+03  0.47000000000E+01 0. -1.
         -5    1    3    3    0  502  0.18926090991E+01  0.12535329640E+02 -0.84933560826E+01  0.15966951992E+02  0.47000000000E+01 0. -1.
        -11    1    1    2    0    0  0.40906046722E+02 -0.80941215562E+02  0.40030822494E+03  0.41045275001E+03  0.00000000000E+00 0.  1.
         11    1    1    2    0    0 -0.20385603916E+02  0.12123853061E+02  0.91739541654E+02  0.94756024415E+02  0.00000000000E+00 0. -1.
<mgrwt>
<rscale>  0 0.13611161E+03</rscale>
<asrwt>0</asrwt>
<pdfrwt beam="2">  1        1 0.33058094E-02 0.14415982E+03</pdfrwt>
<pdfrwt beam="1">  1       -1 0.13033086E+00 0.14415982E+03</pdfrwt>
<totfact> 0.15708518E+03</totfact>
</mgrwt>
</event>
<event>
 7    1  0.5928109E-006  0.1516794E+03  0.7546771E-02  0.1207526E+00
         -2   -1    0    0    0  501 -0.00000000000E+00  0.00000000000E+00  0.25662662629E+02  0.25662662629E+02  0.00000000000E+00 0.  1.
          2   -1    0    0  501    0  0.00000000000E+00 -0.00000000000E+00 -0.77130207282E+03  0.77130207282E+03  0.00000000000E+00 0. -1.
         23    2    1    2    0    0  0.78648835202E+02  0.34567356994E+02 -0.33285269173E+03  0.36578349600E+03  0.12500444035E+03 0.  0.
          5    1    3    3  502    0  0.92077259974E+02  0.42293351947E+02 -0.14344866965E+03  0.17568881652E+03  0.47000000000E+01 0. -1.
         -5    1    3    3    0  502 -0.13428424772E+02 -0.77259949531E+01 -0.18940402208E+03  0.19009467948E+03  0.47000000000E+01 0. -1.
        -11    1    1    2    0    0 -0.47122536936E+02 -0.61554584418E+02 -0.20234017152E+03  0.21668189902E+03  0.00000000000E+00 0.  1.
         11    1    1    2    0    0 -0.31526298266E+02  0.26987227424E+02 -0.21044654694E+03  0.21449934043E+03  0.00000000000E+00 0. -1.
<mgrwt>
<rscale>  0 0.14440154E+03</rscale>
<asrwt>0</asrwt>
<pdfrwt beam="2">  1        2 0.11866184E+00 0.15167944E+03</pdfrwt>
<pdfrwt beam="1">  1       -2 0.39481027E-02 0.15167944E+03</pdfrwt>
<totfact> 0.10062147E+04</totfact>
</mgrwt>
</event>
<event>
 6    1  0.5928109E-006  0.1694470E+03  0.7546771E-02  0.1205701E+00
         -2   -1    0    0    0  501 -0.00000000000E+00  0.00000000000E+00  0.28052731138E+02  0.28052731138E+02  0.00000000000E+00 0.  1.
          2   -1    0    0  501    0  0.00000000000E+00 -0.00000000000E+00 -0.13824369906E+04  0.13824369906E+04  0.00000000000E+00 0. -1.
          5    1    1    2  502    0 -0.21512158579E+02 -0.87818421799E+02 -0.60968987988E+03  0.61637544387E+03  0.47000000000E+01 0. -1.
         -5    1    1    2    0  502  0.17128178764E+02  0.75567821749E+02 -0.67107006129E+03  0.67554495583E+03  0.47000000000E+01 0.  1.
        -11    1    1    2    0    0  0.24319154929E+02  0.23898030574E+02  0.69113698013E+01  0.34789426473E+02  0.00000000000E+00 0.  1.
         11    1    1    2    0    0 -0.19935175113E+02 -0.11647430524E+02 -0.80535688140E+02  0.83779895612E+02  0.00000000000E+00 0. -1.
<mgrwt>
<rscale>  0 0.14582366E+03</rscale>
<asrwt>0</asrwt>
<pdfrwt beam="2">  1        2 0.21268264E+00 0.16944702E+03</pdfrwt>
<pdfrwt beam="1">  1       -2 0.43158042E-02 0.16944702E+03</pdfrwt>
<totfact> 0.38431902E+03</totfact>
</mgrwt>
</event>
<event>
 7    1  0.5928109E-006  0.1417306E+03  0.7546771E-02  0.1221160E+00
         -1   -1    0    0    0  501 -0.00000000000E+00  0.00000000000E+00  0.74753828233E+02  0.74753828233E+02  0.00000000000E+00 0.  1.
          1   -1    0    0  501    0  0.00000000000E+00 -0.00000000000E+00 -0.49841657401E+03  0.49841657401E+03  0.00000000000E+00 0. -1.
         23    2    1    2    0    0 -0.55493552308E+02  0.37187587697E+02 -0.43567930931E+03  0.45815284932E+03  0.12500048703E+03 0.  0.
          5    1    3    3  502    0  0.24024694517E+01  0.17063865396E+02 -0.36093294272E+03  0.36137463456E+03  0.47000000000E+01 0. -1.
         -5    1    3    3    0  502 -0.57896021760E+02  0.20123722301E+02 -0.74746366586E+02  0.96778214763E+02  0.47000000000E+01 0. -1.
        -11    1    1    2    0    0  0.52137544957E+02 -0.57899964099E+02 -0.16470854567E+02  0.79636791039E+02  0.00000000000E+00 0. -1.
         11    1    1    2    0    0  0.33560073515E+01  0.20712376402E+02  0.28487418097E+02  0.35380761882E+02  0.00000000000E+00 0.  1.
<mgrwt>
<rscale>  0 0.13433619E+03</rscale>
<asrwt>0</asrwt>
<pdfrwt beam="2">  1        1 0.76679471E-01 0.14173063E+03</pdfrwt>
<pdfrwt beam="1">  1       -1 0.11500589E-01 0.14173063E+03</pdfrwt>
<totfact> 0.21806550E+03</totfact>
</mgrwt>
</event>
<event>
 7    1  0.5928109E-006  0.1253088E+03  0.7546771E-02  0.1250258E+00
          1   -1    0    0  501    0  0.00000000000E+00  0.00000000000E+00  0.18745074794E+03  0.18745074794E+03  0.00000000000E+00 0. -1.
         -1   -1    0    0    0  501 -0.00000000000E+00 -0.00000000000E+00 -0.72868594655E+02  0.72868594655E+02  0.00000000000E+00 0.  1.
         23    2    1    2    0    0 -0.64968710898E+01 -0.59395109752E+01  0.11346621465E+03  0.16904693068E+03  0.12499918312E+03 0.  0.
          5    1    3    3  502    0  0.56584891307E+02  0.13367687549E+02  0.43476365606E+02  0.72751834073E+02  0.47000000000E+01 0. -1.
         -5    1    3    3    0  502 -0.63081762397E+02 -0.19307198524E+02  0.69989849044E+02  0.96295096610E+02  0.47000000000E+01 0. -1.
        -11    1    1    2    0    0 -0.15409063563E+02 -0.21946358185E+02 -0.32688498306E+02  0.42280253062E+02  0.00000000000E+00 0.  1.
         11    1    1    2    0    0  0.21905934652E+02  0.27885869160E+02  0.33804436936E+02  0.48992158846E+02  0.00000000000E+00 0. -1.
<mgrwt>
<rscale>  0 0.11576115E+03</rscale>
<asrwt>0</asrwt>
<pdfrwt beam="1">  1        1 0.28838576E-01 0.12530875E+03</pdfrwt>
<pdfrwt beam="2">  1       -1 0.11210553E-01 0.12530875E+03</pdfrwt>
<totfact> 0.76493252E+03</totfact>
</mgrwt>
</event>
<event>
 7    1  0.5928109E-006  0.1869381E+03  0.7546771E-02  0.1166420E+00
         -1   -1    0    0    0  501 -0.00000000000E+00  0.00000000000E+00  0.10018240359E+03  0.10018240359E+03  0.00000000000E+00 0.  1.
          1   -1    0    0  501    0  0.00000000000E+00 -0.00000000000E+00 -0.35386730609E+03  0.35386730609E+03  0.00000000000E+00 0. -1.
         23    2    1    2    0    0 -0.12868054966E+03 -0.52535048269E+02 -0.21271030253E+03  0.28318109777E+03  0.12500898437E+03 0.  0.
          5    1    3    3  502    0 -0.83194174622E+02 -0.28453959340E+02 -0.29562872932E+02  0.92881386451E+02  0.47000000000E+01 0. -1.
         -5    1    3    3    0  502 -0.45486375043E+02 -0.24081088929E+02 -0.18314742960E+03  0.19029971132E+03  0.47000000000E+01 0. -1.
        -11    1    1    2    0    0  0.67330911215E+01  0.32852747114E+02 -0.33057332442E+02  0.47089539572E+02  0.00000000000E+00 0. -1.
         11    1    1    2    0    0  0.12194745854E+03  0.19682301156E+02 -0.79172675290E+01  0.12377907234E+03  0.00000000000E+00 0.  1.
<mgrwt>
<rscale>  0 0.18143617E+03</rscale>
<asrwt>0</asrwt>
<pdfrwt beam="2">  1        1 0.54441123E-01 0.18693812E+03</pdfrwt>
<pdfrwt beam="1">  1       -1 0.15412678E-01 0.18693812E+03</pdfrwt>
<totfact> 0.21567698E+03</totfact>
</mgrwt>
</event>
<event>
 7    1  0.5928109E-006  0.1329692E+03  0.7546771E-02  0.1238406E+00
         -1   -1    0    0    0  501 -0.00000000000E+00  0.00000000000E+00  0.49838572189E+02  0.49838572189E+02  0.00000000000E+00 0.  1.
          1   -1    0    0  501    0  0.00000000000E+00 -0.00000000000E+00 -0.28963251500E+03  0.28963251500E+03  0.00000000000E+00 0. -1.
         23    2    1    2    0    0 -0.43439908334E+02  0.13019123207E+02 -0.18571457017E+03  0.22840910199E+03  0.12499717234E+03 0.  0.
          5    1    3    3  502    0 -0.12794268699E+02  0.51094591311E+02 -0.21627897400E+02  0.57133234801E+02  0.47000000000E+01 0.  1.
         -5    1    3    3    0  502 -0.30645639635E+02 -0.38075468105E+02 -0.16408667277E+03  0.17127586719E+03  0.47000000000E+01 0.  1.
        -11    1    1    2    0    0  0.57076956456E+02 -0.93261246294E+01 -0.69321808705E+02  0.90278838722E+02  0.00000000000E+00 0. -1.
         11    1    1    2    0    0 -0.13637048121E+02 -0.36929985773E+01  0.15242436071E+02  0.20783146473E+02  0.00000000000E+00 0.  1.
<mgrwt>
<rscale>  0 0.12288904E+03</rscale>
<asrwt>0</asrwt>
<pdfrwt beam="2">  1        1 0.44558849E-01 0.13296923E+03</pdfrwt>
<pdfrwt beam="1">  1       -1 0.76674725E-02 0.13296923E+03</pdfrwt>
<totfact> 0.79850474E+03</totfact>
</mgrwt>
</event>
<event>
 7    1  0.5928109E-006  0.1328710E+03  0.7546771E-02  0.1235382E+00
         -4   -1    0    0    0  501 -0.00000000000E+00  0.00000000000E+00  0.44504017277E+03  0.44504017277E+03  0.00000000000E+00 0.  1.
          4   -1    0    0  501    0  0.00000000000E+00 -0.00000000000E+00 -0.32690150790E+02  0.32690150790E+02  0.00000000000E+00 0. -1.
         23    2    1    2    0    0 -0.42807138684E+02 -0.13428610042E+02  0.18304819829E+03  0.22618876320E+03  0.12506772170E+03 0.  0.
          5    1    3    3  502    0 -0.97672109133E+01 -0.32814192767E+02 -0.43742964504E+01  0.34833807219E+02  0.47000000000E+01 0. -1.
         -5    1    3    3    0  502 -0.33039927771E+02  0.19385582725E+02  0.18742249474E+03  0.19135495598E+03  0.47000000000E+01 0. -1.
        -11    1    1    2    0    0  0.55744574398E+02  0.28403439080E+02  0.22167284267E+03  0.23033250336E+03  0.00000000000E+00 0.  1.
         11    1    1    2    0    0 -0.12937435714E+02 -0.14974829038E+02  0.76289810289E+01  0.21209057007E+02  0.00000000000E+00 0. -1.
<mgrwt>
<rscale>  0 0.12479995E+03</rscale>
<asrwt>0</asrwt>
<pdfrwt beam="2">  1        4 0.50292543E-02 0.13287104E+03</pdfrwt>
<pdfrwt beam="1">  1       -4 0.68467715E-01 0.13287104E+03</pdfrwt>
<totfact> 0.78027537E+02</totfact>
</mgrwt>
</event>
<event>
 7    1  0.5928109E-006  0.1318857E+03  0.7546771E-02  0.1236810E+00
         -2   -1    0    0    0  501 -0.00000000000E+00  0.00000000000E+00  0.18617281997E+02  0.18617281997E+02  0.00000000000E+00 0.  1.
          2   -1    0    0  501    0  0.00000000000E+00 -0.00000000000E+00 -0.76934824579E+03  0.76934824579E+03  0.00000000000E+00 0. -1.
         23    2    1    2    0    0  0.35430301054E+02  0.33375265900E+02 -0.49788129570E+03  0.51505303754E+03  0.12257500668E+03 0.  0.
          5    1    3    3  502    0  0.11014254895E+02  0.46877385722E+02 -0.47807181081E+03  0.48051383892E+03  0.47000000000E+01 0. -1.
         -5    1    3    3    0  502  0.24416046159E+02 -0.13502119821E+02 -0.19809484895E+02  0.34539198623E+02  0.47000000000E+01 0.  1.
        -11    1    1    2    0    0  0.16332018682E+02 -0.46456884081E+02 -0.11625738624E+03  0.12625670980E+03  0.00000000000E+00 0. -1.
         11    1    1    2    0    0 -0.51762319736E+02  0.13081618181E+02 -0.13659228185E+03  0.14665578045E+03  0.00000000000E+00 0.  1.
<mgrwt>
<rscale>  0 0.12389279E+03</rscale>
<asrwt>0</asrwt>
<pdfrwt beam="2">  1        2 0.11836126E+00 0.13188573E+03</pdfrwt>
<pdfrwt beam="1">  1       -2 0.28641974E-02 0.13188573E+03</pdfrwt>
<totfact> 0.16068249E+04</totfact>
</mgrwt>
</event>
<event>
 6    1  0.5928109E-006  0.3583206E+03  0.7546771E-02  0.1109640E+00
         -2   -1    0    0    0  501 -0.00000000000E+00  0.00000000000E+00  0.12841698083E+03  0.12841698083E+03  0.00000000000E+00 0.  1.
          2   -1    0    0  501    0  0.00000000000E+00 -0.00000000000E+00 -0.51930417535E+03  0.51930417535E+03  0.00000000000E+00 0. -1.
          5    1    1    2  502    0  0.55813611570E+02  0.22281353499E+02 -0.45594195040E+03  0.45990952381E+03  0.47000000000E+01 0. -1.
         -5    1    1    2    0  502 -0.74463074996E+02 -0.35113319872E+02  0.37840534328E+02  0.90728665859E+02  0.47000000000E+01 0.  1.
        -11    1    1    2    0    0  0.40497444150E+02 -0.23175660482E+02 -0.50434136907E+00  0.46662710826E+02  0.00000000000E+00 0.  1.
         11    1    1    2    0    0 -0.21847980724E+02  0.36007626854E+02  0.27718562922E+02  0.50420255690E+02  0.00000000000E+00 0. -1.
<mgrwt>
<rscale>  0 0.25588618E+03</rscale>
<asrwt>0</asrwt>
<pdfrwt beam="2">  1        2 0.79892952E-01 0.35832056E+03</pdfrwt>
<pdfrwt beam="1">  1       -2 0.19756458E-01 0.35832056E+03</pdfrwt>
<totfact> 0.12833879E+03</totfact>
</mgrwt>
</event>
<event>
 7    1  0.5928109E-006  0.2443831E+03  0.7546771E-02  0.1120179E+00
          2   -1    0    0  501    0  0.00000000000E+00  0.00000000000E+00  0.30150964635E+03  0.30150964635E+03  0.00000000000E+00 0.  1.
         -2   -1    0    0    0  501 -0.00000000000E+00 -0.00000000000E+00 -0.18986871133E+03  0.18986871133E+03  0.00000000000E+00 0. -1.
         23    2    1    2    0    0  0.47812764084E+02 -0.20447556182E+03  0.10544251933E+03  0.26616014894E+03  0.12500713664E+03 0.  0.
          5    1    3    3  502    0  0.29050308759E+02 -0.54109357834E+02  0.96256950990E+02  0.11427700407E+03  0.47000000000E+01 0.  1.
         -5    1    3    3    0  502  0.18762455325E+02 -0.15036620399E+03  0.91855683379E+01  0.15188314488E+03  0.47000000000E+01 0.  1.
        -11    1    1    2    0    0  0.79075202357E+01  0.11210259814E+03  0.26461207329E+02  0.11545439307E+03  0.00000000000E+00 0.  1.
         11    1    1    2    0    0 -0.55720284320E+02  0.92372963684E+02 -0.20262791637E+02  0.10976381567E+03  0.00000000000E+00 0. -1.
<mgrwt>
<rscale>  0 0.23942148E+03</rscale>
<asrwt>0</asrwt>
<pdfrwt beam="1">  1        2 0.46386099E-01 0.24438310E+03</pdfrwt>
<pdfrwt beam="2">  1       -2 0.29210571E-01 0.24438310E+03</pdfrwt>
<totfact> 0.11662509E+03</totfact>
</mgrwt>
</event>
<event>
 7    1  0.5928109E-006  0.1531993E+03  0.7546771E-02  0.1205175E+00
         -2   -1    0    0    0  501 -0.00000000000E+00  0.00000000000E+00  0.16833917251E+02  0.16833917251E+02  0.00000000000E+00 0.  1.
          2   -1    0    0  501    0  0.00000000000E+00 -0.00000000000E+00 -0.17574539114E+04  0.17574539114E+04  0.00000000000E+00 0. -1.
         23    2    1    2    0    0 -0.59515281441E+02  0.65614454621E+02 -0.14364358926E+04  0.14445823259E+04  0.12499078965E+03 0.  0.
          5    1    3    3  502    0 -0.47236509779E+02  0.61521846108E+02 -0.14237207794E+04  0.14258398132E+04  0.47000000000E+01 0.  1.
         -5    1    3    3    0  502 -0.12278771662E+02  0.40926085130E+01 -0.12715113223E+02  0.18742512698E+02  0.47000000000E+01 0.  1.
        -11    1    1    2    0    0  0.27891036335E+02 -0.71599585682E+02 -0.27736078518E+03  0.28780794939E+03  0.00000000000E+00 0. -1.
         11    1    1    2    0    0  0.31624245105E+02  0.59851310612E+01 -0.26823316354E+02  0.41897553300E+02  0.00000000000E+00 0.  1.
<mgrwt>
<rscale>  0 0.14623702E+03</rscale>
<asrwt>0</asrwt>
<pdfrwt beam="2">  1        2 0.27037751E+00 0.15319929E+03</pdfrwt>
<pdfrwt beam="1">  1       -2 0.25898336E-02 0.15319929E+03</pdfrwt>
<totfact> 0.52103761E+03</totfact>
</mgrwt>
</event>
<event>
 7    1  0.5928109E-006  0.1307167E+03  0.7546771E-02  0.1231291E+00
         -1   -1    0    0    0  501 -0.00000000000E+00  0.00000000000E+00  0.64824180777E+02  0.64824180777E+02  0.00000000000E+00 0.  1.
          1   -1    0    0  501    0  0.00000000000E+00 -0.00000000000E+00 -0.31941927417E+03  0.31941927417E+03  0.00000000000E+00 0. -1.
         23    2    1    2    0    0  0.18319837807E+02  0.33552288106E+02 -0.22853292231E+03  0.26327580861E+03  0.12500192928E+03 0.  0.
          5    1    3    3  502    0  0.10951790046E+02  0.18160799492E+02  0.10122610500E+02  0.23964840636E+02  0.47000000000E+01 0. -1.
         -5    1    3    3    0  502  0.73680477618E+01  0.15391488615E+02 -0.23865553281E+03  0.23931096797E+03  0.47000000000E+01 0. -1.
        -11    1    1    2    0    0 -0.52129179321E+02 -0.25263694717E+02  0.21705676204E+02  0.61861474173E+02  0.00000000000E+00 0.  1.
         11    1    1    2    0    0  0.33809341514E+02 -0.82885933895E+01 -0.47767847290E+02  0.59106172171E+02  0.00000000000E+00 0. -1.
<mgrwt>
<rscale>  0 0.12744869E+03</rscale>
<asrwt>0</asrwt>
<pdfrwt beam="2">  1        1 0.49141426E-01 0.13071670E+03</pdfrwt>
<pdfrwt beam="1">  1       -1 0.99729510E-02 0.13071670E+03</pdfrwt>
<totfact> 0.47458271E+03</totfact>
</mgrwt>
</event>
<event>
 7    1  0.5928109E-006  0.1504169E+03  0.7546771E-02  0.1209062E+00
          1   -1    0    0  501    0  0.00000000000E+00  0.00000000000E+00  0.32629740451E+03  0.32629740451E+03  0.00000000000E+00 0. -1.
         -1   -1    0    0    0  501 -0.00000000000E+00 -0.00000000000E+00 -0.58931003930E+02  0.58931003930E+02  0.00000000000E+00 0.  1.
         23    2    1    2    0    0 -0.78651336524E+02  0.28650809320E+02  0.17590679072E+03  0.23144857412E+03  0.12497336448E+03 0.  0.
          5    1    3    3  502    0 -0.22523308393E+02 -0.12888431046E+02 -0.13427290634E+02  0.29593803567E+02  0.47000000000E+01 0.  1.
         -5    1    3    3    0  502 -0.56128028131E+02  0.41539240366E+02  0.18933408135E+03  0.20185477055E+03  0.47000000000E+01 0.  1.
        -11    1    1    2    0    0  0.65101802251E+02 -0.37143336824E+02  0.15995748789E+02  0.76640303405E+02  0.00000000000E+00 0.  1.
         11    1    1    2    0    0  0.13549534274E+02  0.84925275034E+01  0.75463861075E+02  0.77139530922E+02  0.00000000000E+00 0. -1.
<mgrwt>
<rscale>  0 0.14321875E+03</rscale>
<asrwt>0</asrwt>
<pdfrwt beam="1">  1        1 0.50199600E-01 0.15041690E+03</pdfrwt>
<pdfrwt beam="2">  1       -1 0.90663085E-02 0.15041690E+03</pdfrwt>
<totfact> 0.53861741E+03</totfact>
</mgrwt>
</event>
<event>
 7    1  0.5928109E-006  0.2091958E+03  0.7546771E-02  0.1146020E+00
         -1   -1    0    0    0  501 -0.00000000000E+00  0.00000000000E+00  0.47929048467E+02  0.47929048467E+02  0.00000000000E+00 0.  1.
          1   -1    0    0  501    0  0.00000000000E+00 -0.00000000000E+00 -0.96199293323E+03  0.96199293323E+03  0.00000000000E+00 0. -1.
         23    2    1    2    0    0 -0.12588072207E+03  0.11086334595E+03 -0.65837249907E+03  0.69080912053E+03  0.12500502314E+03 0.  0.
          5    1    3    3  502    0 -0.44361917114E+02 -0.93336750960E+01 -0.31021028235E+03  0.31354043831E+03  0.47000000000E+01 0.  1.
         -5    1    3    3    0  502 -0.81518804954E+02  0.12019702105E+03 -0.34816221672E+03  0.37726868222E+03  0.47000000000E+01 0.  1.
        -11    1    1    2    0    0  0.95518050077E+02 -0.27615425944E+02 -0.10736934923E+03  0.14633689485E+03  0.00000000000E+00 0.  1.
         11    1    1    2    0    0  0.30362671990E+02 -0.83247920010E+02 -0.14832203646E+03  0.17277596632E+03  0.00000000000E+00 0. -1.
<mgrwt>
<rscale>  0 0.20447221E+03</rscale>
<asrwt>0</asrwt>
<pdfrwt beam="2">  1        1 0.14799893E+00 0.20919583E+03</pdfrwt>
<pdfrwt beam="1">  1       -1 0.73736991E-02 0.20919583E+03</pdfrwt>
<totfact> 0.16654472E+03</totfact>
</mgrwt>
</event>
<event>
 7    1  0.5928109E-006  0.1661916E+03  0.7546771E-02  0.1188357E+00
         -1   -1    0    0    0  501 -0.00000000000E+00  0.00000000000E+00  0.20377892416E+02  0.20377892416E+02  0.00000000000E+00 0. -1.
          1   -1    0    0  501    0  0.00000000000E+00 -0.00000000000E+00 -0.11883207466E+04  0.11883207466E+04  0.00000000000E+00 0.  1.
         23    2    1    2    0    0  0.99130358914E+02  0.46560729073E+02 -0.67816480874E+03  0.69823145072E+03  0.12499968566E+03 0.  0.
          5    1    3    3  502    0 -0.60669248302E+01 -0.29429731769E+02 -0.69421905661E+02  0.75791870768E+02  0.47000000000E+01 0. -1.
         -5    1    3    3    0  502  0.10519728374E+03  0.75990460842E+02 -0.60874290308E+03  0.62243957995E+03  0.47000000000E+01 0. -1.
        -11    1    1    2    0    0 -0.68430271237E+02 -0.75107859228E+02 -0.36189991205E+03  0.37589285559E+03  0.00000000000E+00 0.  1.
         11    1    1    2    0    0 -0.30700087678E+02  0.28547130155E+02 -0.12787813344E+03  0.13457433275E+03  0.00000000000E+00 0. -1.
<mgrwt>
<rscale>  0 0.16030163E+03</rscale>
<asrwt>0</asrwt>
<pdfrwt beam="2">  1        1 0.18281867E+00 0.16619161E+03</pdfrwt>
<pdfrwt beam="1">  1       -1 0.31350588E-02 0.16619161E+03</pdfrwt>
<totfact> 0.40761740E+03</totfact>
</mgrwt>
</event>
<event>
 6    1  0.5928109E-006  0.2769043E+03  0.7546771E-02  0.1128987E+00
          2   -1    0    0  501    0  0.00000000000E+00  0.00000000000E+00  0.37732726023E+03  0.37732726023E+03  0.00000000000E+00 0. -1.
         -2   -1    0    0    0  501 -0.00000000000E+00 -0.00000000000E+00 -0.14425264656E+03  0.14425264656E+03  0.00000000000E+00 0.  1.
          5    1    1    2  502    0  0.54344971485E+02 -0.68366252573E+02  0.32656180408E+03  0.33807103144E+03  0.47000000000E+01 0. -1.
         -5    1    1    2    0  502 -0.70825403472E+01 -0.15332964531E+01 -0.51506395781E+02  0.52225589342E+02  0.47000000000E+01 0.  1.
        -11    1    1    2    0    0 -0.16957391012E+02  0.86304817588E+02 -0.40391583169E+02  0.96786128343E+02  0.00000000000E+00 0.  1.
         11    1    1    2    0    0 -0.30305040127E+02 -0.16405268561E+02 -0.15892114539E+01  0.34497157661E+02  0.00000000000E+00 0. -1.
<mgrwt>
<rscale>  0 0.22669595E+03</rscale>
<asrwt>0</asrwt>
<pdfrwt beam="1">  1        2 0.58050347E-01 0.27690427E+03</pdfrwt>
<pdfrwt beam="2">  1       -2 0.22192715E-01 0.27690427E+03</pdfrwt>
<totfact> 0.14926594E+03</totfact>
</mgrwt>
</event>
<event>
 6    1  0.5928109E-006  0.2337204E+03  0.7546771E-02  0.1128779E+00
         -2   -1    0    0    0  501 -0.00000000000E+00  0.00000000000E+00  0.38992942133E+02  0.38992942133E+02  0.00000000000E+00 0.  1.
          2   -1    0    0  501    0  0.00000000000E+00 -0.00000000000E+00 -0.12533241989E+04  0.12533241989E+04  0.00000000000E+00 0. -1.
          5    1    1    2  502    0  0.19753450605E+03  0.32388183078E+02 -0.64034701712E+03  0.67092120836E+03  0.47000000000E+01 0. -1.
         -5    1    1    2    0  502 -0.11291182063E+02 -0.22476840815E+02 -0.32512734666E+02  0.41374715478E+02  0.47000000000E+01 0.  1.
        -11    1    1    2    0    0 -0.18710835907E+02  0.40860752797E+01 -0.81213121795E+01  0.20802574434E+02  0.00000000000E+00 0. -1.
         11    1    1    2    0    0 -0.16753248808E+03 -0.13997417543E+02 -0.53335019281E+03  0.55921864278E+03  0.00000000000E+00 0.  1.
<mgrwt>
<rscale>  0 0.22698633E+03</rscale>
<asrwt>0</asrwt>
<pdfrwt beam="2">  1        2 0.19281910E+00 0.23372043E+03</pdfrwt>
<pdfrwt beam="1">  1       -2 0.59989143E-02 0.23372043E+03</pdfrwt>
<totfact> 0.27543607E+03</totfact>
</mgrwt>
</event>
<event>
 7    1  0.5928109E-006  0.1294176E+03  0.7546771E-02  0.1241651E+00
         -2   -1    0    0    0  501 -0.00000000000E+00  0.00000000000E+00  0.28569928588E+02  0.28569928588E+02  0.00000000000E+00 0.  1.
          2   -1    0    0  501    0  0.00000000000E+00 -0.00000000000E+00 -0.58929443710E+03  0.58929443710E+03  0.00000000000E+00 0. -1.
         23    2    1    2    0    0 -0.20838256482E+02  0.26171224643E+02 -0.45635889045E+03  0.47435466888E+03  0.12501899484E+03 0.  0.
          5    1    3    3  502    0 -0.14829980449E+02  0.71872933165E+02 -0.36000954366E+03  0.36744334035E+03  0.47000000000E+01 0.  1.
         -5    1    3    3    0  502 -0.60082760329E+01 -0.45701708523E+02 -0.96349346781E+02  0.10691132853E+03  0.47000000000E+01 0.  1.
        -11    1    1    2    0    0  0.45983959281E+02 -0.30380399087E+02 -0.10435441067E+03  0.11801413553E+03  0.00000000000E+00 0. -1.
         11    1    1    2    0    0 -0.25145702799E+02  0.42091744447E+01 -0.11207395332E-01  0.25495561268E+02  0.00000000000E+00 0.  1.
<mgrwt>
<rscale>  0 0.12088083E+03</rscale>
<asrwt>0</asrwt>
<pdfrwt beam="2">  1        2 0.90660678E-01 0.12941760E+03</pdfrwt>
<pdfrwt beam="1">  1       -2 0.43953739E-02 0.12941760E+03</pdfrwt>
<totfact> 0.11651913E+04</totfact>
</mgrwt>
</event>
<event>
 7    1  0.5928109E-006  0.1278545E+03  0.7546771E-02  0.1253056E+00
         -2   -1    0    0    0  501 -0.00000000000E+00  0.00000000000E+00  0.75338365882E+02  0.75338365882E+02  0.00000000000E+00 0.  1.
          2   -1    0    0  501    0  0.00000000000E+00 -0.00000000000E+00 -0.15268891012E+03  0.15268891012E+03  0.00000000000E+00 0. -1.
         23    2    1    2    0    0 -0.48903288629E+01 -0.26411102279E+02 -0.71652825492E+02  0.14656366691E+03  0.12500127766E+03 0.  0.
          5    1    3    3  502    0 -0.75049853716E+01  0.13905632422E+02 -0.97163124463E+02  0.98551784225E+02  0.47000000000E+01 0. -1.
         -5    1    3    3    0  502  0.26146565087E+01 -0.40316734701E+02  0.25510298971E+02  0.48011882688E+02  0.47000000000E+01 0. -1.
        -11    1    1    2    0    0  0.32744245676E+02  0.69605103438E+01  0.19884123689E+02  0.38936007808E+02  0.00000000000E+00 0.  1.
         11    1    1    2    0    0 -0.27853916813E+02  0.19450591935E+02 -0.25581842437E+02  0.42527601284E+02  0.00000000000E+00 0. -1.
<mgrwt>
<rscale>  0 0.11415943E+03</rscale>
<asrwt>0</asrwt>
<pdfrwt beam="2">  1        2 0.23490601E-01 0.12785453E+03</pdfrwt>
<pdfrwt beam="1">  1       -2 0.11590518E-01 0.12785453E+03</pdfrwt>
<totfact> 0.11284199E+04</totfact>
</mgrwt>
</event>
<event>
 7    1  0.5928109E-006  0.1786190E+03  0.7546771E-02  0.1175526E+00
          2   -1    0    0  501    0  0.00000000000E+00  0.00000000000E+00  0.10873439369E+04  0.10873439369E+04  0.00000000000E+00 0. -1.
         -2   -1    0    0    0  501 -0.00000000000E+00 -0.00000000000E+00 -0.25642256034E+02  0.25642256034E+02  0.00000000000E+00 0.  1.
         23    2    1    2    0    0  0.94145546781E+01 -0.12724639367E+03  0.60946667309E+03  0.63510185088E+03  0.12499782735E+03 0.  0.
          5    1    3    3  502    0 -0.48417972827E+02 -0.10595701208E+03  0.41318631033E+03  0.42932063257E+03  0.47000000000E+01 0.  1.
         -5    1    3    3    0  502  0.57832527505E+02 -0.21289381594E+02  0.19628036276E+03  0.20578121831E+03  0.47000000000E+01 0.  1.
        -11    1    1    2    0    0  0.15768294135E+01  0.89126572944E+02  0.41141633142E+03  0.42096250445E+03  0.00000000000E+00 0. -1.
         11    1    1    2    0    0 -0.10991384092E+02  0.38119820729E+02  0.40818676360E+02  0.56921837606E+02  0.00000000000E+00 0.  1.
<mgrwt>
<rscale>  0 0.17224536E+03</rscale>
<asrwt>0</asrwt>
<pdfrwt beam="1">  1        2 0.16728365E+00 0.17861897E+03</pdfrwt>
<pdfrwt beam="2">  1       -2 0.39449633E-02 0.17861897E+03</pdfrwt>
<totfact> 0.64220233E+03</totfact>
</mgrwt>
</event>
<event>
 7    1  0.5928109E-006  0.1254576E+03  0.7546771E-02  0.1247851E+00
          2   -1    0    0  501    0  0.00000000000E+00  0.00000000000E+00  0.12180277800E+03  0.12180277800E+03  0.00000000000E+00 0. -1.
         -2   -1    0    0    0  501 -0.00000000000E+00 -0.00000000000E+00 -0.10696116983E+03  0.10696116983E+03  0.00000000000E+00 0.  1.
         23    2    1    2    0    0  0.20991088516E+02 -0.63237837897E+01  0.36993297541E+02  0.13079798428E+03  0.12352729492E+03 0.  0.
          5    1    3    3  502    0  0.61034602513E+02  0.29908765475E+02  0.34902728222E+02  0.76550946392E+02  0.47000000000E+01 0. -1.
         -5    1    3    3    0  502 -0.40043513997E+02 -0.36232549265E+02  0.20905693191E+01  0.54247037887E+02  0.47000000000E+01 0.  1.
        -11    1    1    2    0    0 -0.12838237325E+02 -0.65089515912E+01 -0.57612485272E+02  0.59383375179E+02  0.00000000000E+00 0.  1.
         11    1    1    2    0    0 -0.81528511909E+01  0.12832735381E+02  0.35460795901E+02  0.38582588377E+02  0.00000000000E+00 0. -1.
<mgrwt>
<rscale>  0 0.11716353E+03</rscale>
<asrwt>0</asrwt>
<pdfrwt beam="1">  1        2 0.18738889E-01 0.12545760E+03</pdfrwt>
<pdfrwt beam="2">  1       -2 0.16455565E-01 0.12545760E+03</pdfrwt>
<totfact> 0.82367561E+03</totfact>
</mgrwt>
</event>
<event>
 7    1  0.5928109E-006  0.1999735E+03  0.7546771E-02  0.1154296E+00
          1   -1    0    0  501    0  0.00000000000E+00  0.00000000000E+00  0.10460666512E+03  0.10460666512E+03  0.00000000000E+00 0. -1.
         -1   -1    0    0    0  501 -0.00000000000E+00 -0.00000000000E+00 -0.66709531662E+03  0.66709531662E+03  0.00000000000E+00 0.  1.
         23    2    1    2    0    0 -0.14096913873E+03  0.67029055681E+02 -0.20870069215E+02  0.20105961422E+03  0.12499686516E+03 0.  0.
          5    1    3    3  502    0 -0.39487958403E+01 -0.14245466139E+02  0.29987043260E+02  0.33761502597E+02  0.47000000000E+01 0. -1.
         -5    1    3    3    0  502 -0.13702034289E+03  0.81274521820E+02 -0.50857112475E+02  0.16729811162E+03  0.47000000000E+01 0. -1.
        -11    1    1    2    0    0  0.42361460845E+02 -0.45076517437E+02 -0.33484158068E+03  0.34050737135E+03  0.00000000000E+00 0.  1.
         11    1    1    2    0    0  0.98607677885E+02 -0.21952538244E+02 -0.20677700160E+03  0.23013499618E+03  0.00000000000E+00 0. -1.
<mgrwt>
<rscale>  0 0.19469261E+03</rscale>
<asrwt>0</asrwt>
<pdfrwt beam="1">  1        1 0.16093333E-01 0.19997352E+03</pdfrwt>
<pdfrwt beam="2">  1       -1 0.10263005E+00 0.19997352E+03</pdfrwt>
<totfact> 0.32476046E+02</totfact>
</mgrwt>
</event>
<event>
 6    1  0.5928109E-006  0.1522615E+03  0.7546771E-02  0.1219767E+00
          2   -1    0    0  501    0  0.00000000000E+00  0.00000000000E+00  0.49992096419E+03  0.49992096419E+03  0.00000000000E+00 0. -1.
         -2   -1    0    0    0  501 -0.00000000000E+00 -0.00000000000E+00 -0.31052345659E+02  0.31052345659E+02  0.00000000000E+00 0.  1.
          5    1    1    2  502    0 -0.35047443029E+02 -0.21478055487E+02  0.24523882773E+03  0.24870424756E+03  0.47000000000E+01 0. -1.
         -5    1    1    2    0  502  0.48620772021E+02  0.56501849358E+02  0.74782492583E+02  0.10569271332E+03  0.47000000000E+01 0.  1.
        -11    1    1    2    0    0  0.65545627106E+01  0.24798668693E+02  0.75878936350E+02  0.80097123811E+02  0.00000000000E+00 0.  1.
         11    1    1    2    0    0 -0.20127891703E+02 -0.59822462564E+02  0.72968361874E+02  0.96479225153E+02  0.00000000000E+00 0. -1.
<mgrwt>
<rscale>  0 0.13532111E+03</rscale>
<asrwt>0</asrwt>
<pdfrwt beam="1">  1        2 0.76910912E-01 0.15226149E+03</pdfrwt>
<pdfrwt beam="2">  1       -2 0.47772843E-02 0.15226149E+03</pdfrwt>
<totfact> 0.12502056E+04</totfact>
</mgrwt>
</event>
<event>
 7    1  0.5928109E-006  0.1302193E+03  0.7546771E-02  0.1240696E+00
          4   -1    0    0  501    0  0.00000000000E+00  0.00000000000E+00  0.17843220615E+03  0.17843220615E+03  0.00000000000E+00 0. -1.
         -4   -1    0    0    0  501 -0.00000000000E+00 -0.00000000000E+00 -0.73543712873E+02  0.73543712873E+02  0.00000000000E+00 0.  1.
         23    2    1    2    0    0  0.36474057822E+02 -0.24073439701E+01  0.66096090612E+02  0.14603343770E+03  0.12498367706E+03 0.  0.
          5    1    3    3  502    0  0.39490159509E+02 -0.32430066898E+02 -0.19698274587E+02  0.54966298391E+02  0.47000000000E+01 0. -1.
         -5    1    3    3    0  502 -0.30161016867E+01  0.30022722928E+02  0.85794365200E+02  0.91067139306E+02  0.47000000000E+01 0. -1.
        -11    1    1    2    0    0 -0.20508469577E+02  0.25071534051E+02 -0.21980543269E+02  0.39144902944E+02  0.00000000000E+00 0.  1.
         11    1    1    2    0    0 -0.15965588245E+02 -0.22664190081E+02  0.60772945930E+02  0.66797578378E+02  0.00000000000E+00 0. -1.
<mgrwt>
<rscale>  0 0.12146721E+03</rscale>
<asrwt>0</asrwt>
<pdfrwt beam="1">  1        4 0.27451109E-01 0.13021932E+03</pdfrwt>
<pdfrwt beam="2">  1       -4 0.11314417E-01 0.13021932E+03</pdfrwt>
<totfact> 0.12631828E+03</totfact>
</mgrwt>
</event>
<event>
 7    1  0.5928109E-006  0.1496302E+03  0.7546771E-02  0.1206937E+00
         -2   -1    0    0    0  501 -0.00000000000E+00  0.00000000000E+00  0.94336529569E+01  0.94336529569E+01  0.00000000000E+00 0.  1.
          2   -1    0    0  501    0  0.00000000000E+00 -0.00000000000E+00 -0.47327795427E+04  0.47327795427E+04  0.00000000000E+00 0. -1.
         23    2    1    2    0    0  0.61670676139E+02  0.70786433186E+02 -0.41982905969E+04  0.42009562176E+04  0.11651272413E+03 0.  0.
          5    1    3    3  502    0  0.81196316737E+02  0.14238680529E+02 -0.30307190467E+04  0.30318435995E+04  0.47000000000E+01 0. -1.
         -5    1    3    3    0  502 -0.19525640598E+02  0.56547752657E+02 -0.11675715502E+04  0.11691126181E+04  0.47000000000E+01 0.  1.
        -11    1    1    2    0    0  0.17121938737E+02 -0.43452352297E+02 -0.22692526619E+03  0.23168155762E+03  0.00000000000E+00 0. -1.
         11    1    1    2    0    0 -0.78792614875E+02 -0.27334080889E+02 -0.29813002668E+03  0.30957542045E+03  0.00000000000E+00 0.  1.
<mgrwt>
<rscale>  0 0.14485887E+03</rscale>
<asrwt>0</asrwt>
<pdfrwt beam="2">  1        2 0.72811845E+00 0.14963023E+03</pdfrwt>
<pdfrwt beam="1">  1       -2 0.14513342E-02 0.14963023E+03</pdfrwt>
<totfact> 0.13377470E+02</totfact>
</mgrwt>
</event>
<event>
 7    1  0.5928109E-006  0.1332465E+03  0.7546771E-02  0.1237016E+00
          2   -1    0    0  501    0  0.00000000000E+00  0.00000000000E+00  0.25714398993E+03  0.25714398993E+03  0.00000000000E+00 0. -1.
         -2   -1    0    0    0  501 -0.00000000000E+00 -0.00000000000E+00 -0.93559272864E+02  0.93559272864E+02  0.00000000000E+00 0.  1.
         23    2    1    2    0    0 -0.33832503943E+02  0.31399480382E+02  0.20395933787E+03  0.24362682928E+03  0.12499621892E+03 0.  0.
          5    1    3    3  502    0 -0.94691437267E+01  0.78484247934E+02  0.10840995880E+03  0.13425442645E+03  0.47000000000E+01 0. -1.
         -5    1    3    3    0  502 -0.24363360217E+02 -0.47084767552E+02  0.95549379079E+02  0.10937240282E+03  0.47000000000E+01 0. -1.
        -11    1    1    2    0    0  0.37788189332E+02 -0.56089326342E+02 -0.45552362571E+02  0.81541262673E+02  0.00000000000E+00 0. -1.
         11    1    1    2    0    0 -0.39556853887E+01  0.24689845960E+02  0.51777417650E+01  0.25535170847E+02  0.00000000000E+00 0.  1.
<mgrwt>
<rscale>  0 0.12376275E+03</rscale>
<asrwt>0</asrwt>
<pdfrwt beam="1">  1        2 0.39560614E-01 0.13324647E+03</pdfrwt>
<pdfrwt beam="2">  1       -2 0.14393734E-01 0.13324647E+03</pdfrwt>
<totfact> 0.45451659E+03</totfact>
</mgrwt>
</event>
<event>
 6    1  0.5928109E-006  0.4141294E+03  0.7546771E-02  0.1056476E+00
         -2   -1    0    0    0  501 -0.00000000000E+00  0.00000000000E+00  0.10016455956E+03  0.10016455956E+03  0.00000000000E+00 0.  1.
          2   -1    0    0  501    0  0.00000000000E+00 -0.00000000000E+00 -0.12953047660E+04  0.12953047660E+04  0.00000000000E+00 0. -1.
          5    1    1    2  502    0  0.66078001259E+02 -0.20858921452E+03 -0.10116494770E+04  0.10350519393E+04  0.47000000000E+01 0. -1.
         -5    1    1    2    0  502  0.82533421129E+01 -0.13305574598E+02  0.27886317308E+02  0.32324799527E+02  0.47000000000E+01 0.  1.
        -11    1    1    2    0    0 -0.96603767112E+01 -0.67591963498E+01 -0.33012034059E+01  0.12243674180E+02  0.00000000000E+00 0. -1.
         11    1    1    2    0    0 -0.64670966660E+02  0.22865398547E+03 -0.20807584331E+03  0.31584891257E+03  0.00000000000E+00 0.  1.
<mgrwt>
<rscale>  0 0.36537514E+03</rscale>
<asrwt>0</asrwt>
<pdfrwt beam="2">  1        2 0.19927766E+00 0.41412939E+03</pdfrwt>
<pdfrwt beam="1">  1       -2 0.15409932E-01 0.41412939E+03</pdfrwt>
<totfact> 0.57277745E+02</totfact>
</mgrwt>
</event>
<event>
 7    1  0.5928109E-006  0.1502430E+03  0.7546771E-02  0.1209364E+00
         -1   -1    0    0    0  501 -0.00000000000E+00  0.00000000000E+00  0.22471204315E+02  0.22471204315E+02  0.00000000000E+00 0.  1.
          1   -1    0    0  501    0  0.00000000000E+00 -0.00000000000E+00 -0.90446918010E+03  0.90446918010E+03  0.00000000000E+00 0. -1.
         23    2    1    2    0    0 -0.14025391554E+00 -0.83360692489E+02 -0.61145203572E+03  0.62964001904E+03  0.12499574735E+03 0.  0.
          5    1    3    3  502    0 -0.48869801607E+02 -0.87196093036E+02 -0.37340958026E+03  0.38658533441E+03  0.47000000000E+01 0.  1.
         -5    1    3    3    0  502  0.48729547692E+02  0.38354005467E+01 -0.23804245546E+03  0.24305468462E+03  0.47000000000E+01 0.  1.
        -11    1    1    2    0    0  0.25488257694E+02 -0.66695999077E+01 -0.92548861596E+02  0.96225914524E+02  0.00000000000E+00 0. -1.
         11    1    1    2    0    0 -0.25348003779E+02  0.90030292397E+02 -0.17799707846E+03  0.20107445085E+03  0.00000000000E+00 0.  1.
<mgrwt>
<rscale>  0 0.14298781E+03</rscale>
<asrwt>0</asrwt>
<pdfrwt beam="2">  1        1 0.13914911E+00 0.15024301E+03</pdfrwt>
<pdfrwt beam="1">  1       -1 0.34571082E-02 0.15024301E+03</pdfrwt>
<totfact> 0.56534906E+03</totfact>
</mgrwt>
</event>
<event>
 7    1  0.5928109E-006  0.1708909E+03  0.7546771E-02  0.1183075E+00
          2   -1    0    0  501    0  0.00000000000E+00  0.00000000000E+00  0.75264449715E+03  0.75264449715E+03  0.00000000000E+00 0. -1.
         -2   -1    0    0    0  501 -0.00000000000E+00 -0.00000000000E+00 -0.39245229828E+02  0.39245229828E+02  0.00000000000E+00 0.  1.
         23    2    1    2    0    0  0.97532093919E+02 -0.63762565549E+02  0.52313368171E+03  0.55033856383E+03  0.12500204713E+03 0.  0.
          5    1    3    3  502    0  0.11312763557E+03 -0.60701022773E+02  0.29695484341E+03  0.32355331110E+03  0.47000000000E+01 0. -1.
         -5    1    3    3    0  502 -0.15595541649E+02 -0.30615427753E+01  0.22617883830E+03  0.22678525273E+03  0.47000000000E+01 0. -1.
        -11    1    1    2    0    0 -0.78510326488E+02 -0.30428409368E+01  0.88557293729E+02  0.11838718055E+03  0.00000000000E+00 0.  1.
         11    1    1    2    0    0 -0.19021767431E+02  0.66805406485E+02  0.10170829189E+03  0.12316398260E+03  0.00000000000E+00 0. -1.
<mgrwt>
<rscale>  0 0.16508247E+03</rscale>
<asrwt>0</asrwt>
<pdfrwt beam="1">  1        2 0.11579145E+00 0.17089086E+03</pdfrwt>
<pdfrwt beam="2">  1       -2 0.60377282E-02 0.17089086E+03</pdfrwt>
<totfact> 0.55011029E+03</totfact>
</mgrwt>
</event>
<event>
 7    1  0.5928109E-006  0.1429313E+03  0.7546771E-02  0.1213036E+00
          2   -1    0    0  501    0  0.00000000000E+00  0.00000000000E+00  0.17375871269E+04  0.17375871269E+04  0.00000000000E+00 0. -1.
         -2   -1    0    0    0  501 -0.00000000000E+00 -0.00000000000E+00 -0.13399071147E+02  0.13399071147E+02  0.00000000000E+00 0.  1.
         23    2    1    2    0    0 -0.63693789856E+02 -0.27133852126E+02  0.12664176734E+04  0.12744579564E+04  0.12504484917E+03 0.  0.
          5    1    3    3  502    0 -0.67794533790E+02  0.19557794745E+02  0.36363754249E+03  0.37044967061E+03  0.47000000000E+01 0. -1.
         -5    1    3    3    0  502  0.41007439347E+01 -0.46691646870E+02  0.90278013096E+03  0.90400828583E+03  0.47000000000E+01 0. -1.
        -11    1    1    2    0    0  0.95510382012E+02  0.30793314879E+02  0.34512550280E+03  0.35941907851E+03  0.00000000000E+00 0.  1.
         11    1    1    2    0    0 -0.31816592156E+02 -0.36594627537E+01  0.11264487952E+03  0.11710916311E+03  0.00000000000E+00 0. -1.
<mgrwt>
<rscale>  0 0.14021812E+03</rscale>
<asrwt>0</asrwt>
<pdfrwt beam="1">  1        2 0.26732092E+00 0.14293131E+03</pdfrwt>
<pdfrwt beam="2">  1       -2 0.20613969E-02 0.14293131E+03</pdfrwt>
<totfact> 0.74329454E+03</totfact>
</mgrwt>
</event>
<event>
 7    1  0.5928109E-006  0.1826009E+03  0.7546771E-02  0.1178252E+00
         -1   -1    0    0    0  501 -0.00000000000E+00  0.00000000000E+00  0.94030647579E+02  0.94030647579E+02  0.00000000000E+00 0.  1.
          1   -1    0    0  501    0  0.00000000000E+00 -0.00000000000E+00 -0.26990600423E+03  0.26990600423E+03  0.00000000000E+00 0. -1.
         23    2    1    2    0    0  0.39042061246E+02  0.12725786246E+03 -0.10496332385E+03  0.21061902821E+03  0.12499691831E+03 0.  0.
          5    1    3    3  502    0 -0.16146132364E+02  0.43806056592E+01  0.20225532304E+02  0.26665510557E+02  0.47000000000E+01 0.  1.
         -5    1    3    3    0  502  0.55188193610E+02  0.12287725680E+03 -0.12518885615E+03  0.18395351765E+03  0.47000000000E+01 0.  1.
        -11    1    1    2    0    0 -0.12555580701E+02 -0.58629191570E+02 -0.46275593456E+02  0.75739390416E+02  0.00000000000E+00 0. -1.
         11    1    1    2    0    0 -0.26486480545E+02 -0.68628670890E+02 -0.24636439350E+02  0.77578233183E+02  0.00000000000E+00 0.  1.
<mgrwt>
<rscale>  0 0.16961269E+03</rscale>
<asrwt>0</asrwt>
<pdfrwt beam="2">  1        1 0.41524000E-01 0.18260086E+03</pdfrwt>
<pdfrwt beam="1">  1       -1 0.14466254E-01 0.18260086E+03</pdfrwt>
<totfact> 0.33432435E+03</totfact>
</mgrwt>
</event>
<event>
 7    1  0.5928109E-006  0.1335255E+03  0.7546771E-02  0.1222588E+00
         -1   -1    0    0    0  501 -0.00000000000E+00  0.00000000000E+00  0.59594636560E+02  0.59594636560E+02  0.00000000000E+00 0.  1.
          1   -1    0    0  501    0  0.00000000000E+00 -0.00000000000E+00 -0.31266311584E+03  0.31266311584E+03  0.00000000000E+00 0. -1.
         23    2    1    2    0    0 -0.45417395610E+02  0.11908683987E+02 -0.16789319254E+03  0.21451613199E+03  0.12499796080E+03 0.  0.
          5    1    3    3  502    0  0.11265361627E+02 -0.26405609360E+02 -0.13565320575E+03  0.13873733026E+03  0.47000000000E+01 0.  1.
         -5    1    3    3    0  502 -0.56682757237E+02  0.38314293347E+02 -0.32239986787E+02  0.75778801724E+02  0.47000000000E+01 0.  1.
        -11    1    1    2    0    0 -0.12971086636E+01  0.30775505797E+02 -0.89166694157E+02  0.94337233343E+02  0.00000000000E+00 0. -1.
         11    1    1    2    0    0  0.46714504274E+02 -0.42684189784E+02  0.39914074099E+01  0.63404387074E+02  0.00000000000E+00 0.  1.
<mgrwt>
<rscale>  0 0.13333592E+03</rscale>
<asrwt>0</asrwt>
<pdfrwt beam="2">  1        1 0.48102019E-01 0.13352545E+03</pdfrwt>
<pdfrwt beam="1">  1       -1 0.91684054E-02 0.13352545E+03</pdfrwt>
<totfact> 0.55454512E+03</totfact>
</mgrwt>
</event>
<event>
 7    1  0.5928109E-006  0.1202566E+03  0.7546771E-02  0.1289044E+00
          2   -1    0    0  501    0  0.00000000000E+00  0.00000000000E+00  0.10691130621E+03  0.10691130621E+03  0.00000000000E+00 0. -1.
         -2   -1    0    0    0  501 -0.00000000000E+00 -0.00000000000E+00 -0.73480455802E+02  0.73480455802E+02  0.00000000000E+00 0.  1.
         23    2    1    2    0    0 -0.38316211053E+02 -0.28114764352E+02 -0.17662713999E+01  0.12026959817E+03  0.11046757228E+03 0.  0.
          5    1    3    3  502    0  0.35129536392E+01  0.34719300201E+02  0.21358760649E+02  0.41183216317E+02  0.47000000000E+01 0. -1.
         -5    1    3    3    0  502 -0.41829164692E+02 -0.62834064553E+02 -0.23125032049E+02  0.79086381851E+02  0.47000000000E+01 0.  1.
        -11    1    1    2    0    0  0.19877743758E+02  0.99515348936E+01  0.21104218573E+02  0.30652011112E+02  0.00000000000E+00 0.  1.
         11    1    1    2    0    0  0.18438467295E+02  0.18163229458E+02  0.14092903235E+02  0.29470152733E+02  0.00000000000E+00 0. -1.
<mgrwt>
<rscale>  0 0.95953065E+02</rscale>
<asrwt>0</asrwt>
<pdfrwt beam="1">  1        2 0.16447893E-01 0.12025663E+03</pdfrwt>
<pdfrwt beam="2">  1       -2 0.11304686E-01 0.12025663E+03</pdfrwt>
<totfact> 0.17465471E+04</totfact>
</mgrwt>
</event>
<event>
 7    1  0.5928109E-006  0.1802021E+03  0.7546771E-02  0.1172202E+00
          2   -1    0    0  501    0  0.00000000000E+00  0.00000000000E+00  0.37657177586E+03  0.37657177586E+03  0.00000000000E+00 0. -1.
         -2   -1    0    0    0  501 -0.00000000000E+00 -0.00000000000E+00 -0.78189022781E+02  0.78189022781E+02  0.00000000000E+00 0.  1.
         23    2    1    2    0    0  0.12274938038E+03  0.42141250175E+02  0.17208604512E+03  0.24917142844E+03  0.12501799261E+03 0.  0.
          5    1    3    3  502    0  0.70233440124E+02  0.49511772931E+02  0.20442768360E+02  0.88454217246E+02  0.47000000000E+01 0. -1.
         -5    1    3    3    0  502  0.52515940258E+02 -0.73705227558E+01  0.15164327676E+03  0.16071721120E+03  0.47000000000E+01 0. -1.
        -11    1    1    2    0    0 -0.67543086427E+02 -0.71091720523E+02  0.61904274658E+02  0.11596654894E+03  0.00000000000E+00 0. -1.
         11    1    1    2    0    0 -0.55206293954E+02  0.28950470347E+02  0.64392433295E+02  0.89622821263E+02  0.00000000000E+00 0.  1.
<mgrwt>
<rscale>  0 0.17552849E+03</rscale>
<asrwt>0</asrwt>
<pdfrwt beam="1">  1        2 0.57934118E-01 0.18020209E+03</pdfrwt>
<pdfrwt beam="2">  1       -2 0.12029081E-01 0.18020209E+03</pdfrwt>
<totfact> 0.41078469E+03</totfact>
</mgrwt>
</event>
<event>
 7    1  0.5928109E-006  0.1347046E+03  0.7546771E-02  0.1232591E+00
         -2   -1    0    0    0  501 -0.00000000000E+00  0.00000000000E+00  0.22703203336E+02  0.22703203336E+02  0.00000000000E+00 0.  1.
          2   -1    0    0  501    0  0.00000000000E+00 -0.00000000000E+00 -0.72195811759E+03  0.72195811759E+03  0.00000000000E+00 0. -1.
         23    2    1    2    0    0 -0.41682930492E+02  0.32593399500E+02 -0.51716438502E+03  0.53441961367E+03  0.12387705987E+03 0.  0.
          5    1    3    3  502    0 -0.46268497626E+02  0.17617724887E+01 -0.49169632075E+03  0.49389395578E+03  0.47000000000E+01 0. -1.
         -5    1    3    3    0  502  0.45855671338E+01  0.30831627011E+02 -0.25468064263E+02  0.40525657890E+02  0.47000000000E+01 0.  1.
        -11    1    1    2    0    0 -0.35177461956E+01 -0.22307418230E+02 -0.24899633831E+00  0.22584451411E+02  0.00000000000E+00 0. -1.
         11    1    1    2    0    0  0.45200676688E+02 -0.10285981270E+02 -0.18184153290E+03  0.18765725584E+03  0.00000000000E+00 0.  1.
<mgrwt>
<rscale>  0 0.12659909E+03</rscale>
<asrwt>0</asrwt>
<pdfrwt beam="2">  1        2 0.11107046E+00 0.13470457E+03</pdfrwt>
<pdfrwt beam="1">  1       -2 0.34928011E-02 0.13470457E+03</pdfrwt>
<totfact> 0.12978616E+04</totfact>
</mgrwt>
</event>
<event>
 7    1  0.5979243E-006  0.2337268E+03  0.7546771E-02  0.1126712E+00
         -1   -1    0    0    0  501 -0.00000000000E+00  0.00000000000E+00  0.25612092317E+03  0.25612092317E+03  0.00000000000E+00 0.  1.
          1   -1    0    0  501    0  0.00000000000E+00 -0.00000000000E+00 -0.20012811621E+03  0.20012811621E+03  0.00000000000E+00 0. -1.
         23    2    1    2    0    0 -0.68223013084E+02  0.18533344429E+03  0.37120141301E+02  0.23665607952E+03  0.12500131999E+03 0.  0.
          5    1    3    3  502    0 -0.76404891978E+02  0.37222051808E+02  0.88755714966E+01  0.85580689576E+02  0.47000000000E+01 0.  1.
         -5    1    3    3    0  502  0.81818788945E+01  0.14811139248E+03  0.28244569804E+02  0.15107538995E+03  0.47000000000E+01 0.  1.
        -11    1    1    2    0    0  0.79959645984E+02 -0.82076090053E+02  0.15361416598E+02  0.11561142964E+03  0.00000000000E+00 0.  1.
         11    1    1    2    0    0 -0.11736632900E+02 -0.10325735423E+03  0.35112490576E+01  0.10398153021E+03  0.00000000000E+00 0. -1.
<mgrwt>
<rscale>  0 0.22989708E+03</rscale>
<asrwt>0</asrwt>
<pdfrwt beam="2">  1        1 0.30788941E-01 0.23372675E+03</pdfrwt>
<pdfrwt beam="1">  1       -1 0.39403219E-01 0.23372675E+03</pdfrwt>
<totfact> 0.92929201E+02</totfact>
</mgrwt>
</event>
<event>
 7    1  0.5928109E-006  0.2451764E+03  0.7546771E-02  0.1118944E+00
         -1   -1    0    0    0  501 -0.00000000000E+00  0.00000000000E+00  0.82036741712E+02  0.82036741712E+02  0.00000000000E+00 0.  1.
          1   -1    0    0  501    0  0.00000000000E+00 -0.00000000000E+00 -0.68800428562E+03  0.68800428562E+03  0.00000000000E+00 0. -1.
         23    2    1    2    0    0 -0.20736735484E+03 -0.38574710256E+02 -0.30936557509E+03  0.39473854927E+03  0.12498893993E+03 0.  0.
          5    1    3    3  502    0 -0.18657351190E+03 -0.67545150550E+02 -0.20948779400E+03  0.28858144178E+03  0.47000000000E+01 0.  1.
         -5    1    3    3    0  502 -0.20793842941E+02  0.28970440294E+02 -0.99877781088E+02  0.10615710749E+03  0.47000000000E+01 0.  1.
        -11    1    1    2    0    0  0.52804426858E+02 -0.28921066592E+01 -0.21594125706E+02  0.57122482804E+02  0.00000000000E+00 0.  1.
         11    1    1    2    0    0  0.15456292798E+03  0.41466816915E+02 -0.27500784311E+03  0.31817999526E+03  0.00000000000E+00 0. -1.
<mgrwt>
<rscale>  0 0.24127905E+03</rscale>
<asrwt>0</asrwt>
<pdfrwt beam="2">  1        1 0.10584681E+00 0.24517639E+03</pdfrwt>
<pdfrwt beam="1">  1       -1 0.12621038E-01 0.24517639E+03</pdfrwt>
<totfact> 0.12237914E+03</totfact>
</mgrwt>
</event>
<event>
 7    1  0.5928109E-006  0.1259912E+03  0.7546771E-02  0.1251153E+00
          2   -1    0    0  501    0  0.00000000000E+00  0.00000000000E+00  0.85408476987E+03  0.85408476987E+03  0.00000000000E+00 0.  1.
         -2   -1    0    0    0  501 -0.00000000000E+00 -0.00000000000E+00 -0.15782602387E+02  0.15782602387E+02  0.00000000000E+00 0. -1.
         23    2    1    2    0    0 -0.15708542264E+02  0.76744072475E+00  0.64778497930E+03  0.65992360641E+03  0.12500575833E+03 0.  0.
          5    1    3    3  502    0 -0.57701704341E+02 -0.14261277038E+02  0.53854848080E+03  0.54183893075E+03  0.47000000000E+01 0.  1.
         -5    1    3    3    0  502  0.41993162077E+02  0.15028717763E+02  0.10923649850E+03  0.11808467565E+03  0.47000000000E+01 0.  1.
        -11    1    1    2    0    0  0.49683398360E+02  0.54691329844E+01  0.14076566125E+03  0.14937644685E+03  0.00000000000E+00 0.  1.
         11    1    1    2    0    0 -0.33974856096E+02 -0.62365737091E+01  0.49751526929E+02  0.60567318994E+02  0.00000000000E+00 0. -1.
<mgrwt>
<rscale>  0 0.11524571E+03</rscale>
<asrwt>0</asrwt>
<pdfrwt beam="1">  1        2 0.13139762E+00 0.12599122E+03</pdfrwt>
<pdfrwt beam="2">  1       -2 0.24280933E-02 0.12599122E+03</pdfrwt>
<totfact> 0.17893109E+04</totfact>
</mgrwt>
</event>
<event>
 7    1  0.5928109E-006  0.1572427E+03  0.7546771E-02  0.1199997E+00
         -1   -1    0    0    0  501 -0.00000000000E+00  0.00000000000E+00  0.33910370915E+02  0.33910370915E+02  0.00000000000E+00 0.  1.
          1   -1    0    0  501    0  0.00000000000E+00 -0.00000000000E+00 -0.66106726125E+03  0.66106726125E+03  0.00000000000E+00 0. -1.
         23    2    1    2    0    0 -0.20214872851E+01  0.95384114382E+02 -0.43098081576E+03  0.45876980193E+03  0.12499220745E+03 0.  0.
          5    1    3    3  502    0  0.56861501855E+02  0.52441885099E+02 -0.28765431423E+03  0.29791018144E+03  0.47000000000E+01 0.  1.
         -5    1    3    3    0  502 -0.58882989140E+02  0.42942229283E+02 -0.14332650153E+03  0.16085962049E+03  0.47000000000E+01 0.  1.
        -11    1    1    2    0    0  0.37339245469E+02 -0.36106814693E+02 -0.13249315359E+03  0.14231077635E+03  0.00000000000E+00 0. -1.
         11    1    1    2    0    0 -0.35317758184E+02 -0.59277299689E+02 -0.63682920987E+02  0.93897053878E+02  0.00000000000E+00 0.  1.
<mgrwt>
<rscale>  0 0.15038764E+03</rscale>
<asrwt>0</asrwt>
<pdfrwt beam="2">  1        1 0.10170265E+00 0.15724270E+03</pdfrwt>
<pdfrwt beam="1">  1       -1 0.52169806E-02 0.15724270E+03</pdfrwt>
<totfact> 0.49340310E+03</totfact>
</mgrwt>
</event>
<event>
 7    1  0.5928109E-006  0.1232470E+03  0.7546771E-02  0.1251941E+00
         -1   -1    0    0    0  501 -0.00000000000E+00  0.00000000000E+00  0.13503343824E+03  0.13503343824E+03  0.00000000000E+00 0.  1.
          1   -1    0    0  501    0  0.00000000000E+00 -0.00000000000E+00 -0.21600427684E+03  0.21600427684E+03  0.00000000000E+00 0. -1.
         23    2    1    2    0    0  0.16958822188E+02 -0.10283481959E+01 -0.17819480163E+03  0.21666383537E+03  0.12207035298E+03 0.  0.
          5    1    3    3  502    0 -0.16925806596E+02 -0.43144569228E+02 -0.14671793581E+03  0.15393563418E+03  0.47000000000E+01 0. -1.
         -5    1    3    3    0  502  0.33884628785E+02  0.42116221032E+02 -0.31476865821E+02  0.62728201184E+02  0.47000000000E+01 0.  1.
        -11    1    1    2    0    0 -0.29003532688E+02 -0.27920705248E+02  0.97110059470E+01  0.41413455862E+02  0.00000000000E+00 0.  1.
         11    1    1    2    0    0  0.12044710500E+02  0.28949053444E+02  0.87512957080E+02  0.92960423855E+02  0.00000000000E+00 0. -1.
<mgrwt>
<rscale>  0 0.11479392E+03</rscale>
<asrwt>0</asrwt>
<pdfrwt beam="2">  1        1 0.33231427E-01 0.12324703E+03</pdfrwt>
<pdfrwt beam="1">  1       -1 0.20774375E-01 0.12324703E+03</pdfrwt>
<totfact> 0.24382841E+03</totfact>
</mgrwt>
</event>
<event>
 7    1  0.5928109E-006  0.1159801E+03  0.7546771E-02  0.1260107E+00
          1   -1    0    0  501    0  0.00000000000E+00  0.00000000000E+00  0.86021719307E+02  0.86021719307E+02  0.00000000000E+00 0. -1.
         -1   -1    0    0    0  501 -0.00000000000E+00 -0.00000000000E+00 -0.12912310421E+03  0.12912310421E+03  0.00000000000E+00 0.  1.
         23    2    1    2    0    0  0.32959031992E+02 -0.38417462762E+01 -0.20442365292E+02  0.11776792833E+03  0.11113207386E+03 0.  0.
          5    1    3    3  502    0  0.39449600255E+02  0.48601829946E+02 -0.80494845091E+01  0.63287384487E+02  0.47000000000E+01 0. -1.
         -5    1    3    3    0  502 -0.64905682622E+01 -0.52443576222E+02 -0.12392880783E+02  0.54480543843E+02  0.47000000000E+01 0.  1.
        -11    1    1    2    0    0 -0.21248039091E+02  0.26012897477E+02  0.26107957968E+02  0.42541455895E+02  0.00000000000E+00 0. -1.
         11    1    1    2    0    0 -0.11710992901E+02 -0.22171151201E+02 -0.48766977582E+02  0.54835439296E+02  0.00000000000E+00 0.  1.
<mgrwt>
<rscale>  0 0.11025028E+03</rscale>
<asrwt>0</asrwt>
<pdfrwt beam="1">  1        1 0.13234111E-01 0.11598015E+03</pdfrwt>
<pdfrwt beam="2">  1       -1 0.19865093E-01 0.11598015E+03</pdfrwt>
<totfact> 0.83570696E+03</totfact>
</mgrwt>
</event>
<event>
 7    1  0.5928109E-006  0.1430955E+03  0.7546771E-02  0.1219500E+00
          2   -1    0    0  501    0  0.00000000000E+00  0.00000000000E+00  0.54080565713E+03  0.54080565713E+03  0.00000000000E+00 0. -1.
         -2   -1    0    0    0  501 -0.00000000000E+00 -0.00000000000E+00 -0.31069353509E+02  0.31069353509E+02  0.00000000000E+00 0.  1.
         23    2    1    2    0    0 -0.38989514855E+01  0.69548831143E+02  0.30807773638E+03  0.33968842153E+03  0.12499636127E+03 0.  0.
          5    1    3    3  502    0  0.47261942523E+02  0.74393131079E+02  0.22729300052E+03  0.24382827410E+03  0.47000000000E+01 0.  1.
         -5    1    3    3    0  502 -0.51160894009E+02 -0.48442999362E+01  0.80784735855E+02  0.95860147428E+02  0.47000000000E+01 0.  1.
        -11    1    1    2    0    0  0.37783588916E+02 -0.22807600189E+02  0.36640246828E+02  0.57361083545E+02  0.00000000000E+00 0.  1.
         11    1    1    2    0    0 -0.33884637431E+02 -0.46741230953E+02  0.16501832041E+03  0.17482550557E+03  0.00000000000E+00 0. -1.
<mgrwt>
<rscale>  0 0.13551075E+03</rscale>
<asrwt>0</asrwt>
<pdfrwt beam="1">  1        2 0.83200864E-01 0.14309553E+03</pdfrwt>
<pdfrwt beam="2">  1       -2 0.47799009E-02 0.14309553E+03</pdfrwt>
<totfact> 0.11398703E+04</totfact>
</mgrwt>
</event>
<event>
 7    1  0.5928109E-006  0.2311627E+03  0.7546771E-02  0.1128757E+00
          1   -1    0    0  501    0  0.00000000000E+00  0.00000000000E+00  0.19118442261E+04  0.19118442261E+04  0.00000000000E+00 0. -1.
         -1   -1    0    0    0  501 -0.00000000000E+00 -0.00000000000E+00 -0.44217616931E+02  0.44217616931E+02  0.00000000000E+00 0.  1.
         23    2    1    2    0    0  0.84011778786E+02 -0.17536800601E+03  0.15806697826E+04  0.15974833866E+04  0.12499716940E+03 0.  0.
          5    1    3    3  502    0 -0.32861398422E+02 -0.43925426495E+02  0.35243578975E+03  0.35671051358E+03  0.47000000000E+01 0. -1.
         -5    1    3    3    0  502  0.11687317721E+03 -0.13144257951E+03  0.12282339929E+04  0.12407728731E+04  0.47000000000E+01 0. -1.
        -11    1    1    2    0    0 -0.67731844155E+02  0.45384157325E+02  0.13733409065E+03  0.15971216893E+03  0.00000000000E+00 0.  1.
         11    1    1    2    0    0 -0.16279934631E+02  0.12998384868E+03  0.14962273583E+03  0.19886628741E+03  0.00000000000E+00 0. -1.
<mgrwt>
<rscale>  0 0.22701727E+03</rscale>
<asrwt>0</asrwt>
<pdfrwt beam="1">  1        1 0.29412982E+00 0.23116273E+03</pdfrwt>
<pdfrwt beam="2">  1       -1 0.68027118E-02 0.23116273E+03</pdfrwt>
<totfact> 0.42795613E+02</totfact>
</mgrwt>
</event>
<event>
 7    1  0.5928109E-006  0.1283119E+03  0.7546771E-02  0.1295042E+00
         -2   -1    0    0    0  501 -0.00000000000E+00  0.00000000000E+00  0.47088316471E+01  0.47088316471E+01  0.00000000000E+00 0.  1.
          2   -1    0    0  501    0  0.00000000000E+00 -0.00000000000E+00 -0.15056927022E+04  0.15056927022E+04  0.00000000000E+00 0. -1.
         23    2    1    2    0    0 -0.73567800466E+01 -0.28011435075E+02 -0.12925069564E+04  0.12988603369E+04  0.12500071932E+03 0.  0.
          5    1    3    3  502    0 -0.63781212930E+02 -0.10407800204E+02 -0.50796109375E+03  0.51207707251E+03  0.47000000000E+01 0.  1.
         -5    1    3    3    0  502  0.56424432884E+02 -0.17603634870E+02 -0.78454586262E+03  0.78678326441E+03  0.47000000000E+01 0.  1.
        -11    1    1    2    0    0 -0.55689738709E+01  0.19783361807E+02 -0.12016622777E+03  0.12191110356E+03  0.00000000000E+00 0. -1.
         11    1    1    2    0    0  0.12925753917E+02  0.82280732671E+01 -0.88310686416E+02  0.89630093380E+02  0.00000000000E+00 0.  1.
<mgrwt>
<rscale>  0 0.93303900E+02</rscale>
<asrwt>0</asrwt>
<pdfrwt beam="2">  1        2 0.23164500E+00 0.12831190E+03</pdfrwt>
<pdfrwt beam="1">  1       -2 0.72443574E-03 0.12831190E+03</pdfrwt>
<totfact> 0.43694402E+04</totfact>
</mgrwt>
</event>
<event>
 7    1  0.5928109E-006  0.1275385E+03  0.7546771E-02  0.1244809E+00
          3   -1    0    0  501    0  0.00000000000E+00  0.00000000000E+00  0.12059758197E+04  0.12059758197E+04  0.00000000000E+00 0. -1.
         -3   -1    0    0    0  501 -0.00000000000E+00 -0.00000000000E+00 -0.25369840288E+02  0.25369840288E+02  0.00000000000E+00 0.  1.
         23    2    1    2    0    0  0.18206610250E+02  0.17576548736E+02  0.10946934810E+04  0.11020979532E+04  0.12500266204E+03 0.  0.
          5    1    3    3  502    0  0.62356405902E+02  0.31066883601E+02  0.41594516660E+03  0.42176527148E+03  0.47000000000E+01 0. -1.
         -5    1    3    3    0  502 -0.44149795652E+02 -0.13490334864E+02  0.67874831437E+03  0.68033268175E+03  0.47000000000E+01 0. -1.
        -11    1    1    2    0    0  0.30236785425E+02  0.14723556802E+02  0.51819578373E+02  0.61776330585E+02  0.00000000000E+00 0. -1.
         11    1    1    2    0    0 -0.48443395675E+02 -0.32300105538E+02  0.34092920048E+02  0.67471376151E+02  0.00000000000E+00 0.  1.
<mgrwt>
<rscale>  0 0.11896835E+03</rscale>
<asrwt>0</asrwt>
<pdfrwt beam="1">  1        3 0.18553470E+00 0.12753855E+03</pdfrwt>
<pdfrwt beam="2">  1       -3 0.39030533E-02 0.12753855E+03</pdfrwt>
<totfact> 0.15593976E+02</totfact>
</mgrwt>
</event>
<event>
 7    1  0.5928109E-006  0.1304073E+03  0.7546771E-02  0.1240781E+00
          1   -1    0    0  501    0  0.00000000000E+00  0.00000000000E+00  0.67391727293E+03  0.67391727293E+03  0.00000000000E+00 0. -1.
         -1   -1    0    0    0  501 -0.00000000000E+00 -0.00000000000E+00 -0.19694402544E+02  0.19694402544E+02  0.00000000000E+00 0.  1.
         23    2    1    2    0    0 -0.32370205759E+02  0.18318409807E+02  0.41803133861E+03  0.43789982372E+03  0.12499064442E+03 0.  0.
          5    1    3    3  502    0 -0.25851325197E+02 -0.19764012262E+01  0.83547884859E+01  0.27642171891E+02  0.47000000000E+01 0.  1.
         -5    1    3    3    0  502 -0.65188805626E+01  0.20294811033E+02  0.40967655013E+03  0.41025765183E+03  0.47000000000E+01 0.  1.
        -11    1    1    2    0    0  0.41735510879E+02  0.25714601741E+02  0.86816008938E+02  0.99700115441E+02  0.00000000000E+00 0.  1.
         11    1    1    2    0    0 -0.93653051196E+01 -0.44033011548E+02  0.14937552283E+03  0.15601173631E+03  0.00000000000E+00 0. -1.
<mgrwt>
<rscale>  0 0.12141496E+03</rscale>
<asrwt>0</asrwt>
<pdfrwt beam="1">  1        1 0.10367956E+00 0.13040727E+03</pdfrwt>
<pdfrwt beam="2">  1       -1 0.30299086E-02 0.13040727E+03</pdfrwt>
<totfact> 0.10564780E+04</totfact>
</mgrwt>
</event>
<event>
 7    1  0.5928109E-006  0.1326474E+03  0.7546771E-02  0.1236505E+00
         -3   -1    0    0    0  501 -0.00000000000E+00  0.00000000000E+00  0.33621297353E+03  0.33621297353E+03  0.00000000000E+00 0.  1.
          3   -1    0    0  501    0  0.00000000000E+00 -0.00000000000E+00 -0.44446143525E+02  0.44446143525E+02  0.00000000000E+00 0. -1.
         23    2    1    2    0    0  0.41229740585E+02  0.16479814077E+02  0.10952249136E+03  0.17201892257E+03  0.12499543122E+03 0.  0.
          5    1    3    3  502    0 -0.36271602908E+02 -0.17726343397E+02  0.11218230367E+02  0.42163860358E+02  0.47000000000E+01 0. -1.
         -5    1    3    3    0  502  0.77501343493E+02  0.34206157474E+02  0.98304260989E+02  0.12985506221E+03  0.47000000000E+01 0. -1.
        -11    1    1    2    0    0 -0.55713174860E+02 -0.33642645719E+02  0.76048354145E+02  0.10009564242E+03  0.00000000000E+00 0. -1.
         11    1    1    2    0    0  0.14483434275E+02  0.17162831642E+02  0.10619598451E+03  0.10854455207E+03  0.00000000000E+00 0.  1.
<mgrwt>
<rscale>  0 0.12408580E+03</rscale>
<asrwt>0</asrwt>
<pdfrwt beam="2">  1        3 0.68378685E-02 0.13264740E+03</pdfrwt>
<pdfrwt beam="1">  1       -3 0.51725071E-01 0.13264740E+03</pdfrwt>
<totfact> 0.11799000E+03</totfact>
</mgrwt>
</event>
<event>
 7    1  0.5928109E-006  0.1466858E+03  0.7546771E-02  0.1214721E+00
          1   -1    0    0  501    0  0.00000000000E+00  0.00000000000E+00  0.20938361589E+04  0.20938361589E+04  0.00000000000E+00 0. -1.
         -1   -1    0    0    0  501 -0.00000000000E+00 -0.00000000000E+00 -0.15603737308E+02  0.15603737308E+02  0.00000000000E+00 0.  1.
         23    2    1    2    0    0  0.14455602228E+02  0.75376135355E+02  0.18147614625E+04  0.18206800659E+04  0.12500484145E+03 0.  0.
          5    1    3    3  502    0  0.35579974245E+02  0.71330917335E+01  0.13447199189E+04  0.13452176649E+04  0.47000000000E+01 0. -1.
         -5    1    3    3    0  502 -0.21124372017E+02  0.68243043621E+02  0.47004154356E+03  0.47546240100E+03  0.47000000000E+01 0. -1.
        -11    1    1    2    0    0  0.35229666816E+02 -0.48770661180E+02  0.15995087584E+03  0.17089174789E+03  0.00000000000E+00 0.  1.
         11    1    1    2    0    0 -0.49685269045E+02 -0.26605474174E+02  0.10352008330E+03  0.11786808246E+03  0.00000000000E+00 0. -1.
<mgrwt>
<rscale>  0 0.13897043E+03</rscale>
<asrwt>0</asrwt>
<pdfrwt beam="1">  1        1 0.32212842E+00 0.14668584E+03</pdfrwt>
<pdfrwt beam="2">  1       -1 0.24005766E-02 0.14668584E+03</pdfrwt>
<totfact> 0.15483010E+03</totfact>
</mgrwt>
</event>
<event>
 7    1  0.5928109E-006  0.1252665E+03  0.7546771E-02  0.1253263E+00
          1   -1    0    0  501    0  0.00000000000E+00  0.00000000000E+00  0.51594890274E+03  0.51594890274E+03  0.00000000000E+00 0. -1.
         -1   -1    0    0    0  501 -0.00000000000E+00 -0.00000000000E+00 -0.35296515136E+02  0.35296515136E+02  0.00000000000E+00 0.  1.
         23    2    1    2    0    0 -0.79323373877E+01  0.18345771134E+01  0.43730720315E+03  0.45489481323E+03  0.12500165410E+03 0.  0.
          5    1    3    3  502    0 -0.55937840087E+02 -0.30207607637E+02  0.17438502297E+03  0.18567112793E+03  0.47000000000E+01 0.  1.
         -5    1    3    3    0  502  0.48005502699E+02  0.32042184750E+02  0.26292218018E+03  0.26922368529E+03  0.47000000000E+01 0.  1.
        -11    1    1    2    0    0 -0.12474482404E+02 -0.34090600442E+02 -0.28660670300E+01  0.36414229224E+02  0.00000000000E+00 0.  1.
         11    1    1    2    0    0  0.20406819792E+02  0.32256023328E+02  0.46211251487E+02  0.59936375424E+02  0.00000000000E+00 0. -1.
<mgrwt>
<rscale>  0 0.11404184E+03</rscale>
<asrwt>0</asrwt>
<pdfrwt beam="1">  1        1 0.79376749E-01 0.12526652E+03</pdfrwt>
<pdfrwt beam="2">  1       -1 0.54302335E-02 0.12526652E+03</pdfrwt>
<totfact> 0.64278324E+03</totfact>
</mgrwt>
</event>
<event>
 7    1  0.5928109E-006  0.1292649E+03  0.7546771E-02  0.1242372E+00
          1   -1    0    0  501    0  0.00000000000E+00  0.00000000000E+00  0.75596376475E+03  0.75596376475E+03  0.00000000000E+00 0. -1.
         -1   -1    0    0    0  501 -0.00000000000E+00 -0.00000000000E+00 -0.17608642280E+02  0.17608642280E+02  0.00000000000E+00 0.  1.
         23    2    1    2    0    0 -0.26100968416E+02  0.20085729569E+02  0.49082958487E+03  0.50756586617E+03  0.12499892013E+03 0.  0.
          5    1    3    3  502    0 -0.51324347274E+02  0.16362753222E+02  0.83930233693E+02  0.99841386428E+02  0.47000000000E+01 0.  1.
         -5    1    3    3    0  502  0.25223378858E+02  0.37229763472E+01  0.40689935118E+03  0.40772447974E+03  0.47000000000E+01 0.  1.
        -11    1    1    2    0    0  0.39154260235E+02  0.27028628471E+02  0.10355462265E+03  0.11396123343E+03  0.00000000000E+00 0.  1.
         11    1    1    2    0    0 -0.13053291818E+02 -0.47114358040E+02  0.14397091495E+03  0.15204530743E+03  0.00000000000E+00 0. -1.
<mgrwt>
<rscale>  0 0.12044041E+03</rscale>
<asrwt>0</asrwt>
<pdfrwt beam="1">  1        1 0.11630209E+00 0.12926495E+03</pdfrwt>
<pdfrwt beam="2">  1       -1 0.27090225E-02 0.12926495E+03</pdfrwt>
<totfact> 0.10532135E+04</totfact>
</mgrwt>
</event>
<event>
 7    1  0.5928109E-006  0.1776472E+03  0.7546771E-02  0.1175670E+00
         -3   -1    0    0    0  501 -0.00000000000E+00  0.00000000000E+00  0.50765200443E+03  0.50765200443E+03  0.00000000000E+00 0.  1.
          3   -1    0    0  501    0  0.00000000000E+00 -0.00000000000E+00 -0.55095762916E+02  0.55095762916E+02  0.00000000000E+00 0. -1.
         23    2    1    2    0    0  0.27054886410E+02  0.12329638129E+03  0.22793292178E+03  0.28898431153E+03  0.12499820383E+03 0.  0.
          5    1    3    3  502    0  0.62308218459E+02  0.33654794597E+02  0.14640938423E+03  0.16270450847E+03  0.47000000000E+01 0.  1.
         -5    1    3    3    0  502 -0.35253332049E+02  0.89641586697E+02  0.81523537550E+02  0.12627980306E+03  0.47000000000E+01 0.  1.
        -11    1    1    2    0    0  0.28335077372E+02 -0.80659760581E+02  0.13957233349E+03  0.16367440197E+03  0.00000000000E+00 0.  1.
         11    1    1    2    0    0 -0.55389963782E+02 -0.42636620713E+02  0.85050986249E+02  0.11008905384E+03  0.00000000000E+00 0. -1.
<mgrwt>
<rscale>  0 0.17210523E+03</rscale>
<asrwt>0</asrwt>
<pdfrwt beam="2">  1        3 0.84762716E-02 0.17764717E+03</pdfrwt>
<pdfrwt beam="1">  1       -3 0.78100305E-01 0.17764717E+03</pdfrwt>
<totfact> 0.36702453E+02</totfact>
</mgrwt>
</event>
<event>
 7    1  0.5928109E-006  0.1849651E+03  0.7546771E-02  0.1168029E+00
         -2   -1    0    0    0  501 -0.00000000000E+00  0.00000000000E+00  0.23498950743E+03  0.23498950743E+03  0.00000000000E+00 0. -1.
          2   -1    0    0  501    0  0.00000000000E+00 -0.00000000000E+00 -0.14010893862E+03  0.14010893862E+03  0.00000000000E+00 0.  1.
         23    2    1    2    0    0  0.83874435103E+02 -0.10750347722E+03  0.46239084517E+00  0.18496565376E+03  0.12498064165E+03 0.  0.
          5    1    3    3  502    0  0.67877993429E+01 -0.96363423676E+02  0.30413537180E+02  0.10138568383E+03  0.47000000000E+01 0.  1.
         -5    1    3    3    0  502  0.77086635760E+02 -0.11140053543E+02 -0.29951146334E+02  0.83579969924E+02  0.47000000000E+01 0.  1.
        -11    1    1    2    0    0 -0.97283578762E+02  0.74853906989E+02  0.94378273299E+02  0.15483688372E+03  0.00000000000E+00 0. -1.
         11    1    1    2    0    0  0.13409143659E+02  0.32649570230E+02  0.39904659055E-01  0.35295908577E+02  0.00000000000E+00 0.  1.
<mgrwt>
<rscale>  0 0.17976684E+03</rscale>
<asrwt>0</asrwt>
<pdfrwt beam="2">  1        2 0.21555221E-01 0.18496508E+03</pdfrwt>
<pdfrwt beam="1">  1       -2 0.36152232E-01 0.18496508E+03</pdfrwt>
<totfact> 0.18133391E+03</totfact>
</mgrwt>
</event>
<event>
 7    1  0.5928109E-006  0.1299427E+03  0.7546771E-02  0.1244025E+00
          2   -1    0    0  501    0  0.00000000000E+00  0.00000000000E+00  0.51412135265E+02  0.51412135265E+02  0.00000000000E+00 0. -1.
         -2   -1    0    0    0  501 -0.00000000000E+00 -0.00000000000E+00 -0.35364662376E+03  0.35364662376E+03  0.00000000000E+00 0.  1.
         23    2    1    2    0    0 -0.12880801335E+02 -0.33075783898E+02 -0.55192602154E+02  0.14117832840E+03  0.12500069821E+03 0.  0.
          5    1    3    3  502    0  0.61404614392E+01 -0.78416467858E+02 -0.45011941256E+02  0.90746969942E+02  0.47000000000E+01 0. -1.
         -5    1    3    3    0  502 -0.19021262774E+02  0.45340683961E+02 -0.10180660898E+02  0.50431358457E+02  0.47000000000E+01 0. -1.
        -11    1    1    2    0    0 -0.38276858791E+00  0.55050271224E+02 -0.95928264957E+02  0.11060249044E+03  0.00000000000E+00 0. -1.
         11    1    1    2    0    0  0.13263569922E+02 -0.21974487326E+02 -0.15111362138E+03  0.15327794018E+03  0.00000000000E+00 0.  1.
<mgrwt>
<rscale>  0 0.11943903E+03</rscale>
<asrwt>0</asrwt>
<pdfrwt beam="1">  1        2 0.79095591E-02 0.12994267E+03</pdfrwt>
<pdfrwt beam="2">  1       -2 0.54407174E-01 0.12994267E+03</pdfrwt>
<totfact> 0.26741520E+03</totfact>
</mgrwt>
</event>
<event>
 7    1  0.5928109E-006  0.1305836E+03  0.7546771E-02  0.1240377E+00
          2   -1    0    0  501    0  0.00000000000E+00  0.00000000000E+00  0.88780709201E+03  0.88780709201E+03  0.00000000000E+00 0.  1.
         -2   -1    0    0    0  501 -0.00000000000E+00 -0.00000000000E+00 -0.14800259196E+02  0.14800259196E+02  0.00000000000E+00 0. -1.
         23    2    1    2    0    0 -0.35391267103E+02 -0.13248573482E+02  0.51965381141E+03  0.53580982851E+03  0.12499608845E+03 0.  0.
          5    1    3    3  502    0  0.72175585888E+01  0.51852386177E+02  0.21818058078E+03  0.22442285742E+03  0.47000000000E+01 0. -1.
         -5    1    3    3    0  502 -0.42608825691E+02 -0.65100959659E+02  0.30147323063E+03  0.31138697108E+03  0.47000000000E+01 0. -1.
        -11    1    1    2    0    0 -0.11562602348E+02  0.41011666526E+02  0.18431417994E+03  0.18917549390E+03  0.00000000000E+00 0.  1.
         11    1    1    2    0    0  0.46953869451E+02 -0.27763093043E+02  0.16903884147E+03  0.17762202880E+03  0.00000000000E+00 0. -1.
<mgrwt>
<rscale>  0 0.12166414E+03</rscale>
<asrwt>0</asrwt>
<pdfrwt beam="1">  1        2 0.13658566E+00 0.13058365E+03</pdfrwt>
<pdfrwt beam="2">  1       -2 0.22769636E-02 0.13058365E+03</pdfrwt>
<totfact> 0.18746172E+04</totfact>
</mgrwt>
</event>
<event>
 6    1  0.5928109E-006  0.2082926E+03  0.7546771E-02  0.1162246E+00
          2   -1    0    0  501    0  0.00000000000E+00  0.00000000000E+00  0.32606432799E+03  0.32606432799E+03  0.00000000000E+00 0. -1.
         -2   -1    0    0    0  501 -0.00000000000E+00 -0.00000000000E+00 -0.13471425375E+03  0.13471425375E+03  0.00000000000E+00 0.  1.
          5    1    1    2  502    0 -0.36722692289E+02  0.58219972743E+02  0.15643345560E+03  0.17097262175E+03  0.47000000000E+01 0. -1.
         -5    1    1    2    0  502 -0.38909033571E+02 -0.11464891779E+03  0.85608377882E+02  0.14835488400E+03  0.47000000000E+01 0.  1.
        -11    1    1    2    0    0 -0.10901725100E+02 -0.65263237532E+01  0.11959203431E+02  0.17448869837E+02  0.00000000000E+00 0. -1.
         11    1    1    2    0    0  0.86533450960E+02  0.62955268803E+02 -0.62650962684E+02  0.12400220615E+03  0.00000000000E+00 0.  1.
<mgrwt>
<rscale>  0 0.18586380E+03</rscale>
<asrwt>0</asrwt>
<pdfrwt beam="1">  1        2 0.50163743E-01 0.20829260E+03</pdfrwt>
<pdfrwt beam="2">  1       -2 0.20725270E-01 0.20829260E+03</pdfrwt>
<totfact> 0.19556711E+03</totfact>
</mgrwt>
</event>
<event>
 7    1  0.5928109E-006  0.1687355E+03  0.7546771E-02  0.1186442E+00
         -3   -1    0    0    0  501 -0.00000000000E+00  0.00000000000E+00  0.94946686747E+02  0.94946686747E+02  0.00000000000E+00 0.  1.
          3   -1    0    0  501    0  0.00000000000E+00 -0.00000000000E+00 -0.27119537371E+03  0.27119537371E+03  0.00000000000E+00 0. -1.
         23    2    1    2    0    0  0.10820084944E+03  0.33761847374E+02 -0.13729174426E+03  0.21753322693E+03  0.12499758246E+03 0.  0.
          5    1    3    3  502    0  0.36146553872E+02 -0.24281146989E+02 -0.11382921262E+03  0.12196445016E+03  0.47000000000E+01 0.  1.
         -5    1    3    3    0  502  0.72054295565E+02  0.58042994364E+02 -0.23462531639E+02  0.95568776779E+02  0.47000000000E+01 0.  1.
        -11    1    1    2    0    0 -0.12108570176E+03 -0.19103527802E+02 -0.26376145475E+02  0.12538896680E+03  0.00000000000E+00 0.  1.
         11    1    1    2    0    0  0.12884852319E+02 -0.14658319572E+02 -0.12580797231E+02  0.23219866729E+02  0.00000000000E+00 0. -1.
<mgrwt>
<rscale>  0 0.16201347E+03</rscale>
<asrwt>0</asrwt>
<pdfrwt beam="2">  1        3 0.41722365E-01 0.16873554E+03</pdfrwt>
<pdfrwt beam="1">  1       -3 0.14607183E-01 0.16873554E+03</pdfrwt>
<totfact> 0.53123344E+02</totfact>
</mgrwt>
</event>
<event>
 7    1  0.5928109E-006  0.2845102E+03  0.7546771E-02  0.1094928E+00
         -4   -1    0    0    0  501 -0.00000000000E+00  0.00000000000E+00  0.44665347516E+03  0.44665347516E+03  0.00000000000E+00 0. -1.
          4   -1    0    0  501    0  0.00000000000E+00 -0.00000000000E+00 -0.21717341549E+03  0.21717341549E+03  0.00000000000E+00 0.  1.
         23    2    1    2    0    0  0.25354676070E+03  0.32171656152E+02 -0.32038140402E+02  0.28630839198E+03  0.12500031022E+03 0.  0.
          5    1    3    3  502    0  0.42554594806E+02  0.30452797670E+02 -0.52491827867E+02  0.74268084787E+02  0.47000000000E+01 0.  1.
         -5    1    3    3    0  502  0.21099216590E+03  0.17188584825E+01  0.20453687465E+02  0.21204030720E+03  0.47000000000E+01 0.  1.
        -11    1    1    2    0    0 -0.11854348561E+03 -0.46044256405E+02  0.17589217203E+03  0.21704996593E+03  0.00000000000E+00 0.  1.
         11    1    1    2    0    0 -0.13500327509E+03  0.13872600253E+02  0.85626028041E+02  0.16046853274E+03  0.00000000000E+00 0. -1.
<mgrwt>
<rscale>  0 0.28139831E+03</rscale>
<asrwt>0</asrwt>
<pdfrwt beam="2">  1        4 0.33411295E-01 0.28451020E+03</pdfrwt>
<pdfrwt beam="1">  1       -4 0.68715919E-01 0.28451020E+03</pdfrwt>
<totfact> 0.31596824E+01</totfact>
</mgrwt>
</event>
<event>
 7    1  0.5928109E-006  0.1258083E+03  0.7546771E-02  0.1252213E+00
          2   -1    0    0  501    0  0.00000000000E+00  0.00000000000E+00  0.71918343596E+03  0.71918343596E+03  0.00000000000E+00 0.  1.
         -2   -1    0    0    0  501 -0.00000000000E+00 -0.00000000000E+00 -0.17480613266E+02  0.17480613266E+02  0.00000000000E+00 0. -1.
         23    2    1    2    0    0 -0.11908725201E+02  0.77503389745E+01  0.52443766838E+03  0.53931678724E+03  0.12500337396E+03 0.  0.
          5    1    3    3  502    0  0.36112094437E+02 -0.17373975844E+02  0.41645776805E+03  0.41840781657E+03  0.47000000000E+01 0.  1.
         -5    1    3    3    0  502 -0.48020819638E+02  0.25124314819E+02  0.10797990033E+03  0.12090897067E+03  0.47000000000E+01 0.  1.
        -11    1    1    2    0    0  0.20714623064E+02 -0.42788201759E+02  0.74090486214E+02  0.88030255968E+02  0.00000000000E+00 0. -1.
         11    1    1    2    0    0 -0.88058978630E+01  0.35037862784E+02  0.10317466810E+03  0.10931700601E+03  0.00000000000E+00 0.  1.
<mgrwt>
<rscale>  0 0.11463861E+03</rscale>
<asrwt>0</asrwt>
<pdfrwt beam="1">  1        2 0.11064358E+00 0.12580830E+03</pdfrwt>
<pdfrwt beam="2">  1       -2 0.26893257E-02 0.12580830E+03</pdfrwt>
<totfact> 0.19045609E+04</totfact>
</mgrwt>
</event>
<event>
 7    1  0.5928109E-006  0.1360732E+03  0.7546771E-02  0.1225437E+00
          2   -1    0    0  501    0  0.00000000000E+00  0.00000000000E+00  0.34406298669E+02  0.34406298669E+02  0.00000000000E+00 0. -1.
         -2   -1    0    0    0  501 -0.00000000000E+00 -0.00000000000E+00 -0.47076707867E+03  0.47076707867E+03  0.00000000000E+00 0.  1.
         23    2    1    2    0    0  0.67221368268E+02  0.29140894856E+02 -0.22228509940E+03  0.26062728084E+03  0.11466477226E+03 0.  0.
          5    1    3    3  502    0  0.74115505751E+02 -0.20779108382E+02 -0.87392767094E+02  0.11655241430E+03  0.47000000000E+01 0. -1.
         -5    1    3    3    0  502 -0.68941374837E+01  0.49920003238E+02 -0.13489233231E+03  0.14407486654E+03  0.47000000000E+01 0.  1.
        -11    1    1    2    0    0 -0.75221518663E+02 -0.51767997460E+02 -0.18861956919E+03  0.20956035960E+03  0.00000000000E+00 0.  1.
         11    1    1    2    0    0  0.80001503954E+01  0.22627102604E+02 -0.25456111406E+02  0.34985736901E+02  0.00000000000E+00 0. -1.
<mgrwt>
<rscale>  0 0.13136996E+03</rscale>
<asrwt>0</asrwt>
<pdfrwt beam="1">  1        2 0.52932773E-02 0.13607319E+03</pdfrwt>
<pdfrwt beam="2">  1       -2 0.72425697E-01 0.13607319E+03</pdfrwt>
<totfact> 0.24762397E+03</totfact>
</mgrwt>
</event>
<event>
 6    1  0.5928109E-006  0.2536111E+03  0.7546771E-02  0.1111044E+00
         -2   -1    0    0    0  501 -0.00000000000E+00  0.00000000000E+00  0.23186758944E+02  0.23186758944E+02  0.00000000000E+00 0.  1.
          2   -1    0    0  501    0  0.00000000000E+00 -0.00000000000E+00 -0.69348413847E+03  0.69348413847E+03  0.00000000000E+00 0. -1.
          5    1    1    2  502    0 -0.44200278158E+02  0.25337226225E+01 -0.50705010981E+03  0.50900097073E+03  0.47000000000E+01 0. -1.
         -5    1    1    2    0  502  0.59380343452E+01 -0.62367391824E+00  0.76420685451E+01  0.10776847066E+02  0.47000000000E+01 0.  1.
        -11    1    1    2    0    0  0.59212983996E+02 -0.13253717849E+02 -0.67368880342E+02  0.90666446655E+02  0.00000000000E+00 0. -1.
         11    1    1    2    0    0 -0.20950740183E+02  0.11343669145E+02 -0.10352045791E+03  0.10622663296E+03  0.00000000000E+00 0.  1.
<mgrwt>
<rscale>  0 0.25361112E+03</rscale>
<asrwt>0</asrwt>
<pdfrwt beam="2">  1        2 0.10668987E+00 0.25361112E+03</pdfrwt>
<pdfrwt beam="1">  1       -2 0.35671936E-02 0.25361112E+03</pdfrwt>
<totfact> 0.13737851E+04</totfact>
</mgrwt>
</event>
<event>
 7    1  0.5928109E-006  0.1570070E+03  0.7546771E-02  0.1200922E+00
          1   -1    0    0  501    0  0.00000000000E+00  0.00000000000E+00  0.23913225278E+03  0.23913225278E+03  0.00000000000E+00 0. -1.
         -1   -1    0    0    0  501 -0.00000000000E+00 -0.00000000000E+00 -0.95304822250E+02  0.95304822250E+02  0.00000000000E+00 0.  1.
         23    2    1    2    0    0 -0.68338963054E+02 -0.65995742725E+02  0.13061526229E+03  0.20423405378E+03  0.12500220019E+03 0.  0.
          5    1    3    3  502    0 -0.91251964254E+02 -0.74641533329E+02  0.66488338241E+02  0.13542920143E+03  0.47000000000E+01 0. -1.
         -5    1    3    3    0  502  0.22913001200E+02  0.86457906039E+01  0.64126924045E+02  0.68804852348E+02  0.47000000000E+01 0. -1.
        -11    1    1    2    0    0  0.64937044814E+02  0.25306699366E+01  0.14705108700E+02  0.66629305124E+02  0.00000000000E+00 0.  1.
         11    1    1    2    0    0  0.34019182404E+01  0.63465072788E+02 -0.14929404511E+01  0.63573716133E+02  0.00000000000E+00 0. -1.
<mgrwt>
<rscale>  0 0.14963482E+03</rscale>
<asrwt>0</asrwt>
<pdfrwt beam="1">  1        1 0.36789577E-01 0.15700701E+03</pdfrwt>
<pdfrwt beam="2">  1       -1 0.14662280E-01 0.15700701E+03</pdfrwt>
<totfact> 0.37796494E+03</totfact>
</mgrwt>
</event>
<event>
 7    1  0.5928109E-006  0.1421861E+03  0.7546771E-02  0.1219967E+00
         -2   -1    0    0    0  501 -0.00000000000E+00  0.00000000000E+00  0.23990165460E+02  0.23990165460E+02  0.00000000000E+00 0.  1.
          2   -1    0    0  501    0  0.00000000000E+00 -0.00000000000E+00 -0.74148061240E+03  0.74148061240E+03  0.00000000000E+00 0. -1.
         23    2    1    2    0    0 -0.81576679852E+01 -0.67240526266E+02 -0.48746600491E+03  0.50777948160E+03  0.12501623924E+03 0.  0.
          5    1    3    3  502    0 -0.40139062647E+02 -0.91249151867E+02 -0.30456884214E+03  0.32050245189E+03  0.47000000000E+01 0. -1.
         -5    1    3    3    0  502  0.31981394662E+02  0.24008625601E+02 -0.18289716277E+03  0.18727702971E+03  0.47000000000E+01 0. -1.
        -11    1    1    2    0    0 -0.11323381503E+02  0.87293208697E+02 -0.18052528494E+03  0.20084247996E+03  0.00000000000E+00 0.  1.
         11    1    1    2    0    0  0.19481049488E+02 -0.20052682431E+02 -0.49499157097E+02  0.56848816304E+02  0.00000000000E+00 0. -1.
<mgrwt>
<rscale>  0 0.13517885E+03</rscale>
<asrwt>0</asrwt>
<pdfrwt beam="2">  1        2 0.11407393E+00 0.14218613E+03</pdfrwt>
<pdfrwt beam="1">  1       -2 0.36907951E-02 0.14218613E+03</pdfrwt>
<totfact> 0.11624564E+04</totfact>
</mgrwt>
</event>
<event>
 7    1  0.5928109E-006  0.2052194E+03  0.7546771E-02  0.1149256E+00
         -3   -1    0    0    0  501 -0.00000000000E+00  0.00000000000E+00  0.54170949055E+02  0.54170949055E+02  0.00000000000E+00 0.  1.
          3   -1    0    0  501    0  0.00000000000E+00 -0.00000000000E+00 -0.90962956240E+03  0.90962956240E+03  0.00000000000E+00 0. -1.
         23    2    1    2    0    0 -0.13113519155E+03 -0.96394117549E+02 -0.66810123594E+03  0.69890935298E+03  0.12500703127E+03 0.  0.
          5    1    3    3  502    0 -0.12122276338E+03 -0.75287261761E+02 -0.32493519886E+03  0.35491985518E+03  0.47000000000E+01 0. -1.
         -5    1    3    3    0  502 -0.99124281668E+01 -0.21106855787E+02 -0.34316603708E+03  0.34398949780E+03  0.47000000000E+01 0. -1.
        -11    1    1    2    0    0 -0.11315200613E+02  0.17191298287E+02 -0.68585339656E+01  0.21693639387E+02  0.00000000000E+00 0.  1.
         11    1    1    2    0    0  0.14245039216E+03  0.79202819262E+02 -0.18049884344E+03  0.24319751908E+03  0.00000000000E+00 0. -1.
<mgrwt>
<rscale>  0 0.20057297E+03</rscale>
<asrwt>0</asrwt>
<pdfrwt beam="2">  1        3 0.13994300E+00 0.20521945E+03</pdfrwt>
<pdfrwt beam="1">  1       -3 0.83339924E-02 0.20521945E+03</pdfrwt>
<totfact> 0.99812098E+01</totfact>
</mgrwt>
</event>
<event>
 7    1  0.5928109E-006  0.1328349E+03  0.7546771E-02  0.1237364E+00
          3   -1    0    0  501    0  0.00000000000E+00  0.00000000000E+00  0.44740117195E+02  0.44740117195E+02  0.00000000000E+00 0. -1.
         -3   -1    0    0    0  501 -0.00000000000E+00 -0.00000000000E+00 -0.31028207088E+03  0.31028207088E+03  0.00000000000E+00 0.  1.
         23    2    1    2    0    0  0.41337077298E+02  0.17639966359E+02 -0.12151246810E+03  0.18002889572E+03  0.12500080407E+03 0.  0.
          5    1    3    3  502    0  0.41100906114E+01  0.19442612533E+02 -0.13764070087E+03  0.13914726215E+03  0.47000000000E+01 0.  1.
         -5    1    3    3    0  502  0.37226986686E+02 -0.18026461740E+01  0.16128232776E+02  0.40881633571E+02  0.47000000000E+01 0.  1.
        -11    1    1    2    0    0 -0.53001118415E+02  0.29812458862E+00 -0.34152557148E+02  0.63052395602E+02  0.00000000000E+00 0. -1.
         11    1    1    2    0    0  0.11664041117E+02 -0.17938090948E+02 -0.10987692844E+03  0.11194089675E+03  0.00000000000E+00 0.  1.
<mgrwt>
<rscale>  0 0.12354318E+03</rscale>
<asrwt>0</asrwt>
<pdfrwt beam="1">  1        3 0.68830949E-02 0.13283495E+03</pdfrwt>
<pdfrwt beam="2">  1       -3 0.47735704E-01 0.13283495E+03</pdfrwt>
<totfact> 0.13702472E+03</totfact>
</mgrwt>
</event>
<event>
 6    1  0.5928109E-006  0.1339292E+03  0.7546771E-02  0.1282824E+00
         -2   -1    0    0    0  501 -0.00000000000E+00  0.00000000000E+00  0.79366945846E+01  0.79366945846E+01  0.00000000000E+00 0.  1.
          2   -1    0    0  501    0  0.00000000000E+00 -0.00000000000E+00 -0.16914516293E+04  0.16914516293E+04  0.00000000000E+00 0. -1.
          5    1    1    2  502    0  0.42110122576E+02 -0.71218118050E+02 -0.10837023925E+04  0.10868662514E+04  0.47000000000E+01 0. -1.
         -5    1    1    2    0  502 -0.16163598606E+02  0.47415846551E+02 -0.52870704082E+03  0.53109580062E+03  0.47000000000E+01 0.  1.
        -11    1    1    2    0    0 -0.18037760891E+02  0.58091667791E+01 -0.25539672957E+02  0.31802234691E+02  0.00000000000E+00 0.  1.
         11    1    1    2    0    0 -0.79087630798E+01  0.17993104719E+02 -0.45565828378E+02  0.49624037187E+02  0.00000000000E+00 0. -1.
<mgrwt>
<rscale>  0 0.98807616E+02</rscale>
<asrwt>0</asrwt>
<pdfrwt beam="2">  1        2 0.26022382E+00 0.13392916E+03</pdfrwt>
<pdfrwt beam="1">  1       -2 0.12210276E-02 0.13392916E+03</pdfrwt>
<totfact> 0.16680883E+04</totfact>
</mgrwt>
</event>
<event>
 7    1  0.5928109E-006  0.1708727E+03  0.7546771E-02  0.1184259E+00
          1   -1    0    0  501    0  0.00000000000E+00  0.00000000000E+00  0.11819958178E+04  0.11819958178E+04  0.00000000000E+00 0. -1.
         -1   -1    0    0    0  501 -0.00000000000E+00 -0.00000000000E+00 -0.34356482370E+02  0.34356482370E+02  0.00000000000E+00 0.  1.
         23    2    1    2    0    0  0.70670479957E+02  0.92612941134E+02  0.97970640232E+03  0.99449591282E+03  0.12500404902E+03 0.  0.
          5    1    3    3  502    0  0.71855365026E+02  0.17111221237E+02  0.72561474798E+03  0.72937976381E+03  0.47000000000E+01 0. -1.
         -5    1    3    3    0  502 -0.11848850688E+01  0.75501719897E+02  0.25409165434E+03  0.26511614901E+03  0.47000000000E+01 0. -1.
        -11    1    1    2    0    0 -0.43708132772E+02 -0.81673408640E+02  0.16901888916E+03  0.19273902418E+03  0.00000000000E+00 0. -1.
         11    1    1    2    0    0 -0.26962347185E+02 -0.10939532494E+02 -0.10859560556E+01  0.29117363162E+02  0.00000000000E+00 0.  1.
<mgrwt>
<rscale>  0 0.16399496E+03</rscale>
<asrwt>0</asrwt>
<pdfrwt beam="1">  1        1 0.18184548E+00 0.17087272E+03</pdfrwt>
<pdfrwt beam="2">  1       -1 0.52856136E-02 0.17087272E+03</pdfrwt>
<totfact> 0.19039915E+03</totfact>
</mgrwt>
</event>
<event>
 7    1  0.5928109E-006  0.1592900E+03  0.7546771E-02  0.1197444E+00
         -1   -1    0    0    0  501 -0.00000000000E+00  0.00000000000E+00  0.40743981760E+02  0.40743981760E+02  0.00000000000E+00 0.  1.
          1   -1    0    0  501    0  0.00000000000E+00 -0.00000000000E+00 -0.63117670739E+03  0.63117670739E+03  0.00000000000E+00 0. -1.
         23    2    1    2    0    0  0.87372310977E+02 -0.46038218913E+02 -0.45269335170E+03  0.47990058399E+03  0.12497944434E+03 0.  0.
          5    1    3    3  502    0  0.23478681049E+02 -0.58595920268E+02 -0.82454580211E+02  0.10394988280E+03  0.47000000000E+01 0. -1.
         -5    1    3    3    0  502  0.63893629929E+02  0.12557701355E+02 -0.37023877149E+03  0.37595070119E+03  0.47000000000E+01 0. -1.
        -11    1    1    2    0    0 -0.26450274970E+02  0.24206810057E+02  0.41253091055E+01  0.36091617785E+02  0.00000000000E+00 0.  1.
         11    1    1    2    0    0 -0.60922036007E+02  0.21831408856E+02 -0.14186468303E+03  0.15592848738E+03  0.00000000000E+00 0. -1.
<mgrwt>
<rscale>  0 0.15249188E+03</rscale>
<asrwt>0</asrwt>
<pdfrwt beam="2">  1        1 0.97104106E-01 0.15928999E+03</pdfrwt>
<pdfrwt beam="1">  1       -1 0.62683051E-02 0.15928999E+03</pdfrwt>
<totfact> 0.40046067E+03</totfact>
</mgrwt>
</event>
<event>
 7    1  0.5928109E-006  0.1278426E+03  0.7546771E-02  0.1245691E+00
          2   -1    0    0  501    0  0.00000000000E+00  0.00000000000E+00  0.13017730185E+03  0.13017730185E+03  0.00000000000E+00 0. -1.
         -2   -1    0    0    0  501 -0.00000000000E+00 -0.00000000000E+00 -0.97356626877E+02  0.97356626877E+02  0.00000000000E+00 0.  1.
         23    2    1    2    0    0 -0.26827365918E+02  0.22322904902E+00  0.37508531132E+02  0.13323146463E+03  0.12499590340E+03 0.  0.
          5    1    3    3  502    0  0.26602812480E+02  0.48509975383E+02  0.19491021830E+02  0.58846557041E+02  0.47000000000E+01 0. -1.
         -5    1    3    3    0  502 -0.53430178398E+02 -0.48286746334E+02  0.18017509303E+02  0.74384907587E+02  0.47000000000E+01 0. -1.
        -11    1    1    2    0    0  0.57234999751E+02 -0.12097985549E+02 -0.14396944631E+02  0.60245153046E+02  0.00000000000E+00 0.  1.
         11    1    1    2    0    0 -0.30407633833E+02  0.11874756500E+02  0.97090884734E+01  0.34057311054E+02  0.00000000000E+00 0. -1.
<mgrwt>
<rscale>  0 0.11844130E+03</rscale>
<asrwt>0</asrwt>
<pdfrwt beam="1">  1        2 0.20027277E-01 0.12784261E+03</pdfrwt>
<pdfrwt beam="2">  1       -2 0.14977943E-01 0.12784261E+03</pdfrwt>
<totfact> 0.89268897E+03</totfact>
</mgrwt>
</event>
<event>
 7    1  0.5928109E-006  0.1710008E+03  0.7546771E-02  0.1182792E+00
         -2   -1    0    0    0  501 -0.00000000000E+00  0.00000000000E+00  0.31803583971E+02  0.31803583971E+02  0.00000000000E+00 0.  1.
          2   -1    0    0  501    0  0.00000000000E+00 -0.00000000000E+00 -0.80973448281E+03  0.80973448281E+03  0.00000000000E+00 0. -1.
         23    2    1    2    0    0  0.54861710826E+02  0.10267095848E+03 -0.43795640564E+03  0.47015646716E+03  0.12526035819E+03 0.  0.
          5    1    3    3  502    0  0.31811434251E+02  0.49978771487E+02 -0.49234894513E+02  0.77175188929E+02  0.47000000000E+01 0. -1.
         -5    1    3    3    0  502  0.23050276574E+02  0.52692186997E+02 -0.38872151113E+03  0.39298127823E+03  0.47000000000E+01 0. -1.
        -11    1    1    2    0    0  0.21741567114E+02 -0.13186154950E+02 -0.27562712647E+02  0.37500314017E+02  0.00000000000E+00 0.  1.
         11    1    1    2    0    0 -0.76603277939E+02 -0.89484803534E+02 -0.31241178055E+03  0.33388128561E+03  0.00000000000E+00 0. -1.
<mgrwt>
<rscale>  0 0.16534386E+03</rscale>
<asrwt>0</asrwt>
<pdfrwt beam="2">  1        2 0.12457452E+00 0.17100085E+03</pdfrwt>
<pdfrwt beam="1">  1       -2 0.48928597E-02 0.17100085E+03</pdfrwt>
<totfact> 0.69092920E+03</totfact>
</mgrwt>
</event>
<event>
 7    1  0.5928109E-006  0.1794456E+03  0.7546771E-02  0.1175906E+00
         -2   -1    0    0    0  501 -0.00000000000E+00  0.00000000000E+00  0.16101830580E+03  0.16101830580E+03  0.00000000000E+00 0.  1.
          2   -1    0    0  501    0  0.00000000000E+00 -0.00000000000E+00 -0.18170436889E+03  0.18170436889E+03  0.00000000000E+00 0. -1.
         23    2    1    2    0    0  0.28555548793E+02  0.12551194777E+03 -0.55309182029E+02  0.18777603467E+03  0.12502825752E+03 0.  0.
          5    1    3    3  502    0 -0.55293127409E+01  0.14106399397E+03 -0.48909775792E+02  0.14947869368E+03  0.47000000000E+01 0.  1.
         -5    1    3    3    0  502  0.34084861534E+02 -0.15552046203E+02 -0.63994062378E+01  0.38297340993E+02  0.47000000000E+01 0.  1.
        -11    1    1    2    0    0 -0.52923428883E+02 -0.65271712906E+02  0.31978918256E+02  0.89910717066E+02  0.00000000000E+00 0. -1.
         11    1    1    2    0    0  0.24367880090E+02 -0.60240234865E+02  0.26442006866E+01  0.65035922949E+02  0.00000000000E+00 0.  1.
<mgrwt>
<rscale>  0 0.17187575E+03</rscale>
<asrwt>0</asrwt>
<pdfrwt beam="2">  1        2 0.27954518E-01 0.17944563E+03</pdfrwt>
<pdfrwt beam="1">  1       -2 0.24772047E-01 0.17944563E+03</pdfrwt>
<totfact> 0.26863116E+03</totfact>
</mgrwt>
</event>
<event>
 7    1  0.5928109E-006  0.1644341E+03  0.7546771E-02  0.1191376E+00
          1   -1    0    0  501    0  0.00000000000E+00  0.00000000000E+00  0.51938752185E+03  0.51938752185E+03  0.00000000000E+00 0. -1.
         -1   -1    0    0    0  501 -0.00000000000E+00 -0.00000000000E+00 -0.53919537446E+02  0.53919537446E+02  0.00000000000E+00 0.  1.
         23    2    1    2    0    0 -0.43586890120E+01  0.10669013819E+03  0.36955153523E+03  0.40448349538E+03  0.12504709948E+03 0.  0.
          5    1    3    3  502    0  0.46565004186E+02  0.43777326300E+02  0.73422259331E+02  0.97456000729E+02  0.47000000000E+01 0.  1.
         -5    1    3    3    0  502 -0.50923693198E+02  0.62912811890E+02  0.29612927589E+03  0.30702749465E+03  0.47000000000E+01 0.  1.
        -11    1    1    2    0    0 -0.24064256271E+02 -0.14368318153E+02  0.59169946237E+02  0.65472280654E+02  0.00000000000E+00 0. -1.
         11    1    1    2    0    0  0.28422945283E+02 -0.92321820037E+02  0.36746502939E+02  0.10335128326E+03  0.00000000000E+00 0.  1.
<mgrwt>
<rscale>  0 0.15764947E+03</rscale>
<asrwt>0</asrwt>
<pdfrwt beam="1">  1        1 0.79905769E-01 0.16443406E+03</pdfrwt>
<pdfrwt beam="2">  1       -1 0.82953138E-02 0.16443406E+03</pdfrwt>
<totfact> 0.34214973E+03</totfact>
</mgrwt>
</event>
<event>
 7    1  0.5928109E-006  0.1448559E+03  0.7546771E-02  0.1217540E+00
         -2   -1    0    0    0  501 -0.00000000000E+00  0.00000000000E+00  0.19519024931E+02  0.19519024931E+02  0.00000000000E+00 0.  1.
          2   -1    0    0  501    0  0.00000000000E+00 -0.00000000000E+00 -0.86949615334E+03  0.86949615334E+03  0.00000000000E+00 0. -1.
         23    2    1    2    0    0 -0.64662922174E+01  0.72900716056E+02 -0.48380589598E+03  0.50502611500E+03  0.12500761781E+03 0.  0.
          5    1    3    3  502    0  0.55791631868E+00 -0.35216371429E+02 -0.96916935636E+02  0.10322541596E+03  0.47000000000E+01 0.  1.
         -5    1    3    3    0  502 -0.70242085361E+01  0.10811708748E+03 -0.38688896034E+03  0.40180069904E+03  0.47000000000E+01 0.  1.
        -11    1    1    2    0    0  0.29516629339E+02  0.87192419439E+01 -0.10088194705E+03  0.10547238419E+03  0.00000000000E+00 0.  1.
         11    1    1    2    0    0 -0.23050337122E+02 -0.81619958000E+02 -0.26528928539E+03  0.27851667908E+03  0.00000000000E+00 0. -1.
<mgrwt>
<rscale>  0 0.13691570E+03</rscale>
<asrwt>0</asrwt>
<pdfrwt beam="2">  1        2 0.13376861E+00 0.14485590E+03</pdfrwt>
<pdfrwt beam="1">  1       -2 0.30029275E-02 0.14485590E+03</pdfrwt>
<totfact> 0.12936566E+04</totfact>
</mgrwt>
</event>
<event>
 7    1  0.5928109E-006  0.1458732E+03  0.7546771E-02  0.1215792E+00
          2   -1    0    0  501    0  0.00000000000E+00  0.00000000000E+00  0.24438512501E+03  0.24438512501E+03  0.00000000000E+00 0. -1.
         -2   -1    0    0    0  501 -0.00000000000E+00 -0.00000000000E+00 -0.71049598171E+02  0.71049598171E+02  0.00000000000E+00 0.  1.
         23    2    1    2    0    0  0.65380201150E+02 -0.37140897750E+02  0.89897082735E+02  0.17134898193E+03  0.12499988454E+03 0.  0.
          5    1    3    3  502    0  0.95025222904E+02 -0.47670676498E+02  0.43206334477E+02  0.11485279154E+03  0.47000000000E+01 0. -1.
         -5    1    3    3    0  502 -0.29645021753E+02  0.10529778748E+02  0.46690748258E+02  0.56496190386E+02  0.47000000000E+01 0. -1.
        -11    1    1    2    0    0 -0.67400904122E+02 -0.32177834423E+01  0.22817651716E+02  0.71231181631E+02  0.00000000000E+00 0.  1.
         11    1    1    2    0    0  0.20207029718E+01  0.40358681193E+02  0.60620792385E+02  0.72854559621E+02  0.00000000000E+00 0. -1.
<mgrwt>
<rscale>  0 0.13818519E+03</rscale>
<asrwt>0</asrwt>
<pdfrwt beam="1">  1        2 0.37597711E-01 0.14587319E+03</pdfrwt>
<pdfrwt beam="2">  1       -2 0.10930708E-01 0.14587319E+03</pdfrwt>
<totfact> 0.75055808E+03</totfact>
</mgrwt>
</event>
<event>
 7    1  0.5928109E-006  0.1908353E+03  0.7546771E-02  0.1162492E+00
         -1   -1    0    0    0  501 -0.00000000000E+00  0.00000000000E+00  0.29079586357E+03  0.29079586357E+03  0.00000000000E+00 0.  1.
          1   -1    0    0  501    0  0.00000000000E+00 -0.00000000000E+00 -0.11278309361E+03  0.11278309361E+03  0.00000000000E+00 0. -1.
         23    2    1    2    0    0 -0.10403669916E+03 -0.99857115069E+02  0.82099669664E+02  0.20774615381E+03  0.12499212160E+03 0.  0.
          5    1    3    3  502    0 -0.80054457010E+02 -0.10224124959E+03  0.85655719824E+01  0.13022076727E+03  0.47000000000E+01 0. -1.
         -5    1    3    3    0  502 -0.23982242154E+02  0.23841345238E+01  0.73534097682E+02  0.77525386539E+02  0.47000000000E+01 0. -1.
        -11    1    1    2    0    0  0.60215128241E+02  0.59005817167E+02  0.10562081660E+03  0.13514179601E+03  0.00000000000E+00 0.  1.
         11    1    1    2    0    0  0.43821570924E+02  0.40851297902E+02 -0.97077163020E+01  0.60691007360E+02  0.00000000000E+00 0. -1.
<mgrwt>
<rscale>  0 0.18559916E+03</rscale>
<asrwt>0</asrwt>
<pdfrwt beam="2">  1        1 0.17351245E-01 0.19083529E+03</pdfrwt>
<pdfrwt beam="1">  1       -1 0.44737825E-01 0.19083529E+03</pdfrwt>
<totfact> 0.15347663E+03</totfact>
</mgrwt>
</event>
<event>
 7    1  0.5928109E-006  0.1158554E+03  0.7546771E-02  0.1261348E+00
          1   -1    0    0  501    0  0.00000000000E+00  0.00000000000E+00  0.97615078228E+02  0.97615078228E+02  0.00000000000E+00 0. -1.
         -1   -1    0    0    0  501 -0.00000000000E+00 -0.00000000000E+00 -0.21612786833E+03  0.21612786833E+03  0.00000000000E+00 0.  1.
         23    2    1    2    0    0  0.15886005718E+02 -0.21054901932E+02  0.46197977491E+02  0.12472660491E+03  0.11281311437E+03 0.  0.
          5    1    3    3  502    0  0.39453493421E+02  0.17463767356E+02  0.62840986264E+02  0.76371728198E+02  0.47000000000E+01 0. -1.
         -5    1    3    3    0  502 -0.23567487703E+02 -0.38518669288E+02 -0.16643008773E+02  0.48354876707E+02  0.47000000000E+01 0.  1.
        -11    1    1    2    0    0  0.87052252400E+01  0.46842778536E+02 -0.13314286963E+03  0.14141092808E+03  0.00000000000E+00 0.  1.
         11    1    1    2    0    0 -0.24591230958E+02 -0.25787876604E+02 -0.31567897972E+02  0.47605413580E+02  0.00000000000E+00 0. -1.
<mgrwt>
<rscale>  0 0.10958068E+03</rscale>
<asrwt>0</asrwt>
<pdfrwt beam="1">  1        1 0.15017704E-01 0.11585540E+03</pdfrwt>
<pdfrwt beam="2">  1       -1 0.33250441E-01 0.11585540E+03</pdfrwt>
<totfact> 0.30437263E+03</totfact>
</mgrwt>
</event>
<event>
 7    1  0.5928109E-006  0.1305054E+03  0.7546771E-02  0.1240260E+00
          1   -1    0    0  501    0  0.00000000000E+00  0.00000000000E+00  0.47471547029E+03  0.47471547029E+03  0.00000000000E+00 0. -1.
         -1   -1    0    0    0  501 -0.00000000000E+00 -0.00000000000E+00 -0.45900622249E+02  0.45900622249E+02  0.00000000000E+00 0.  1.
         23    2    1    2    0    0  0.39587899436E+01 -0.37273685957E+02  0.39528995300E+03  0.41627611251E+03  0.12500662070E+03 0.  0.
          5    1    3    3  502    0  0.42936797222E+02 -0.19878154193E+00  0.32388175919E+03  0.32674928004E+03  0.47000000000E+01 0. -1.
         -5    1    3    3    0  502 -0.38978007278E+02 -0.37074904415E+02  0.71408193812E+02  0.89526832471E+02  0.47000000000E+01 0. -1.
        -11    1    1    2    0    0  0.30797169625E+02 -0.10733773382E+02 -0.59184926401E+01  0.33146766103E+02  0.00000000000E+00 0.  1.
         11    1    1    2    0    0 -0.34755959569E+02  0.48007459339E+02  0.39443387680E+02  0.71193213928E+02  0.00000000000E+00 0. -1.
<mgrwt>
<rscale>  0 0.12173592E+03</rscale>
<asrwt>0</asrwt>
<pdfrwt beam="1">  1        1 0.73033146E-01 0.13050538E+03</pdfrwt>
<pdfrwt beam="2">  1       -1 0.70616345E-02 0.13050538E+03</pdfrwt>
<totfact> 0.48546821E+03</totfact>
</mgrwt>
</event>
<event>
 7    1  0.5928109E-006  0.1448935E+03  0.7546771E-02  0.1218597E+00
         -2   -1    0    0    0  501 -0.00000000000E+00  0.00000000000E+00  0.61559229087E+02  0.61559229087E+02  0.00000000000E+00 0.  1.
          2   -1    0    0  501    0  0.00000000000E+00 -0.00000000000E+00 -0.27836219030E+03  0.27836219030E+03  0.00000000000E+00 0. -1.
         23    2    1    2    0    0  0.37554806524E+02  0.62934293781E+02 -0.15054863704E+03  0.20894743864E+03  0.12499220445E+03 0.  0.
          5    1    3    3  502    0  0.93926406227E+00 -0.12179685074E+02 -0.11866522438E+03  0.11938489193E+03  0.47000000000E+01 0. -1.
         -5    1    3    3    0  502  0.36615542462E+02  0.75113978855E+02 -0.31883412659E+02  0.89562546703E+02  0.47000000000E+01 0. -1.
        -11    1    1    2    0    0 -0.31025575864E+02  0.15215554822E+02 -0.19869441409E+02  0.39860935365E+02  0.00000000000E+00 0.  1.
         11    1    1    2    0    0 -0.65292306600E+01 -0.78149848602E+02 -0.46384882763E+02  0.91113045380E+02  0.00000000000E+00 0. -1.
<mgrwt>
<rscale>  0 0.13615621E+03</rscale>
<asrwt>0</asrwt>
<pdfrwt beam="2">  1        2 0.42824953E-01 0.14489355E+03</pdfrwt>
<pdfrwt beam="1">  1       -2 0.94706505E-02 0.14489355E+03</pdfrwt>
<totfact> 0.81866360E+03</totfact>
</mgrwt>
</event>
<event>
 7    1  0.5928109E-006  0.1314429E+03  0.7546771E-02  0.1238880E+00
         -2   -1    0    0    0  501 -0.00000000000E+00  0.00000000000E+00  0.44653789288E+02  0.44653789288E+02  0.00000000000E+00 0.  1.
          2   -1    0    0  501    0  0.00000000000E+00 -0.00000000000E+00 -0.32925598521E+03  0.32925598521E+03  0.00000000000E+00 0. -1.
         23    2    1    2    0    0 -0.33884103299E+02  0.22447535619E+02 -0.21681129696E+03  0.25354365826E+03  0.12500089537E+03 0.  0.
          5    1    3    3  502    0 -0.25339633375E+02  0.67232604218E+02 -0.72710105465E+02  0.10232873265E+03  0.47000000000E+01 0. -1.
         -5    1    3    3    0  502 -0.85444699235E+01 -0.44785068599E+02 -0.14410119150E+03  0.15121492561E+03  0.47000000000E+01 0. -1.
        -11    1    1    2    0    0 -0.13745619889E+02 -0.16732233549E+02 -0.69062618688E+02  0.72377862677E+02  0.00000000000E+00 0. -1.
         11    1    1    2    0    0  0.47629723188E+02 -0.57153020700E+01  0.12717197285E+01  0.47988253560E+02  0.00000000000E+00 0.  1.
<mgrwt>
<rscale>  0 0.12259299E+03</rscale>
<asrwt>0</asrwt>
<pdfrwt beam="2">  1        2 0.50654764E-01 0.13144295E+03</pdfrwt>
<pdfrwt beam="1">  1       -2 0.68698141E-02 0.13144295E+03</pdfrwt>
<totfact> 0.11177254E+04</totfact>
</mgrwt>
</event>
<event>
 7    1  0.5928109E-006  0.1407146E+03  0.7546771E-02  0.1222985E+00
          1   -1    0    0  501    0  0.00000000000E+00  0.00000000000E+00  0.57718324797E+03  0.57718324797E+03  0.00000000000E+00 0. -1.
         -1   -1    0    0    0  501 -0.00000000000E+00 -0.00000000000E+00 -0.33713838572E+02  0.33713838572E+02  0.00000000000E+00 0.  1.
         23    2    1    2    0    0  0.41606152758E+02 -0.49457564071E+02  0.42424035665E+03  0.44696810619E+03  0.12499394043E+03 0.  0.
          5    1    3    3  502    0 -0.33787640892E+02  0.14071183881E+02  0.68721602577E+02  0.78002253516E+02  0.47000000000E+01 0. -1.
         -5    1    3    3    0  502  0.75393793650E+02 -0.63528747952E+02  0.35551875407E+03  0.36896585267E+03  0.47000000000E+01 0. -1.
        -11    1    1    2    0    0  0.10215792148E+02 -0.81741955616E+01 -0.77196928121E+01  0.15191232320E+02  0.00000000000E+00 0.  1.
         11    1    1    2    0    0 -0.51821944906E+02  0.57631759633E+02  0.12694874556E+03  0.14873774804E+03  0.00000000000E+00 0. -1.
<mgrwt>
<rscale>  0 0.13305966E+03</rscale>
<asrwt>0</asrwt>
<pdfrwt beam="1">  1        1 0.88797415E-01 0.14071463E+03</pdfrwt>
<pdfrwt beam="2">  1       -1 0.51867448E-02 0.14071463E+03</pdfrwt>
<totfact> 0.59672455E+03</totfact>
</mgrwt>
</event>
<event>
 7    1  0.5928109E-006  0.1826358E+03  0.7546771E-02  0.1170782E+00
         -2   -1    0    0    0  501 -0.00000000000E+00  0.00000000000E+00  0.24080864582E+02  0.24080864582E+02  0.00000000000E+00 0.  1.
          2   -1    0    0  501    0  0.00000000000E+00 -0.00000000000E+00 -0.13045164805E+04  0.13045164805E+04  0.00000000000E+00 0. -1.
         23    2    1    2    0    0  0.89864472576E+02  0.98261446041E+02 -0.84124813174E+03  0.86084507221E+03  0.12499953595E+03 0.  0.
          5    1    3    3  502    0  0.82026204302E+02  0.76948092463E+01 -0.53595392161E+03  0.54226949423E+03  0.47000000000E+01 0.  1.
         -5    1    3    3    0  502  0.78382682749E+01  0.90566636794E+02 -0.30529421013E+03  0.31857557798E+03  0.47000000000E+01 0.  1.
        -11    1    1    2    0    0 -0.42330373056E+02 -0.29713080951E+02 -0.30784577562E+03  0.31215981360E+03  0.00000000000E+00 0.  1.
         11    1    1    2    0    0 -0.47534099520E+02 -0.68548365089E+02 -0.13134170858E+03  0.15559245928E+03  0.00000000000E+00 0. -1.
<mgrwt>
<rscale>  0 0.17695610E+03</rscale>
<asrwt>0</asrwt>
<pdfrwt beam="2">  1        2 0.20069490E+00 0.18263576E+03</pdfrwt>
<pdfrwt beam="1">  1       -2 0.37047473E-02 0.18263576E+03</pdfrwt>
<totfact> 0.53292253E+03</totfact>
</mgrwt>
</event>
<event>
 7    1  0.5928109E-006  0.1314317E+03  0.7546771E-02  0.1235827E+00
         -2   -1    0    0    0  501 -0.00000000000E+00  0.00000000000E+00  0.29595433094E+02  0.29595433094E+02  0.00000000000E+00 0. -1.
          2   -1    0    0  501    0  0.00000000000E+00 -0.00000000000E+00 -0.48383961364E+03  0.48383961364E+03  0.00000000000E+00 0.  1.
         23    2    1    2    0    0 -0.23136141257E+02 -0.33370973849E+02 -0.21809867937E+03  0.25463958554E+03  0.12500152661E+03 0.  0.
          5    1    3    3  502    0  0.14545554018E+02 -0.44496419675E+02 -0.17535844506E+02  0.50210560125E+02  0.47000000000E+01 0. -1.
         -5    1    3    3    0  502 -0.37681695275E+02  0.11125445826E+02 -0.20056283487E+03  0.20442902542E+03  0.47000000000E+01 0. -1.
        -11    1    1    2    0    0  0.57360577344E+02  0.18498573524E+02 -0.92656289550E+02  0.11053334813E+03  0.00000000000E+00 0. -1.
         11    1    1    2    0    0 -0.34224436088E+02  0.14872400325E+02 -0.14348921163E+03  0.14826211306E+03  0.00000000000E+00 0.  1.
<mgrwt>
<rscale>  0 0.12451671E+03</rscale>
<asrwt>0</asrwt>
<pdfrwt beam="2">  1        2 0.74436863E-01 0.13143167E+03</pdfrwt>
<pdfrwt beam="1">  1       -2 0.45531436E-02 0.13143167E+03</pdfrwt>
<totfact> 0.13773938E+04</totfact>
</mgrwt>
</event>
<event>
 7    1  0.5928109E-006  0.1821243E+03  0.7546771E-02  0.1171317E+00
         -1   -1    0    0    0  501 -0.00000000000E+00  0.00000000000E+00  0.19994136749E+03  0.19994136749E+03  0.00000000000E+00 0.  1.
          1   -1    0    0  501    0  0.00000000000E+00 -0.00000000000E+00 -0.20372182519E+03  0.20372182519E+03  0.00000000000E+00 0. -1.
         23    2    1    2    0    0 -0.11626830135E+03  0.63445396705E+02 -0.10865051942E+03  0.21207120607E+03  0.12500249923E+03 0.  0.
          5    1    3    3  502    0 -0.72639857332E+01  0.19303532179E+02 -0.90553195332E+02  0.92991198659E+02  0.47000000000E+01 0.  1.
         -5    1    3    3    0  502 -0.10900431561E+03  0.44141864526E+02 -0.18097324086E+02  0.11908000741E+03  0.47000000000E+01 0.  1.
        -11    1    1    2    0    0  0.84855831564E+02 -0.16246683499E+02  0.10357813235E+03  0.13488104528E+03  0.00000000000E+00 0.  1.
         11    1    1    2    0    0  0.31412469781E+02 -0.47198713206E+02  0.12919293742E+01  0.56710941339E+02  0.00000000000E+00 0. -1.
<mgrwt>
<rscale>  0 0.17641608E+03</rscale>
<asrwt>0</asrwt>
<pdfrwt beam="2">  1        1 0.31341819E-01 0.18212430E+03</pdfrwt>
<pdfrwt beam="1">  1       -1 0.30760211E-01 0.18212430E+03</pdfrwt>
<totfact> 0.13899810E+03</totfact>
</mgrwt>
</event>
<event>
 7    1  0.5928109E-006  0.1259206E+03  0.7546771E-02  0.1249188E+00
         -2   -1    0    0    0  501 -0.00000000000E+00  0.00000000000E+00  0.15536320366E+02  0.15536320366E+02  0.00000000000E+00 0.  1.
          2   -1    0    0  501    0  0.00000000000E+00 -0.00000000000E+00 -0.76477571264E+03  0.76477571264E+03  0.00000000000E+00 0. -1.
         23    2    1    2    0    0  0.15736587374E+02 -0.44565126710E+01 -0.44958912885E+03  0.46689012796E+03  0.12485393911E+03 0.  0.
          5    1    3    3  502    0 -0.99689030003E+01 -0.60644387314E+02 -0.17965350148E+03  0.18993312332E+03  0.47000000000E+01 0.  1.
         -5    1    3    3    0  502  0.25705490374E+02  0.56187874643E+02 -0.26993562737E+03  0.27695700464E+03  0.47000000000E+01 0.  1.
        -11    1    1    2    0    0  0.12071654931E+02 -0.34573758052E+02 -0.71952503541E+02  0.80735570626E+02  0.00000000000E+00 0.  1.
         11    1    1    2    0    0 -0.27808242305E+02  0.39030270723E+02 -0.22769775988E+03  0.23268633442E+03  0.00000000000E+00 0. -1.
<mgrwt>
<rscale>  0 0.11638174E+03</rscale>
<asrwt>0</asrwt>
<pdfrwt beam="2">  1        2 0.11765778E+00 0.12592064E+03</pdfrwt>
<pdfrwt beam="1">  1       -2 0.23902037E-02 0.12592064E+03</pdfrwt>
<totfact> 0.21005625E+04</totfact>
</mgrwt>
</event>
<event>
 7    1  0.5928109E-006  0.1372220E+03  0.7546771E-02  0.1229226E+00
         -1   -1    0    0    0  501 -0.00000000000E+00  0.00000000000E+00  0.40914248716E+03  0.40914248716E+03  0.00000000000E+00 0.  1.
          1   -1    0    0  501    0  0.00000000000E+00 -0.00000000000E+00 -0.59182407017E+02  0.59182407017E+02  0.00000000000E+00 0. -1.
         23    2    1    2    0    0 -0.56234279564E+02 -0.65195384555E+01  0.43631023753E+02  0.14399150188E+03  0.12500035120E+03 0.  0.
          5    1    3    3  502    0 -0.92915633208E+02 -0.20622941784E+02  0.42645570269E+02  0.10439997742E+03  0.47000000000E+01 0. -1.
         -5    1    3    3    0  502  0.36681353644E+02  0.14103403329E+02  0.98545348397E+00  0.39591524461E+02  0.47000000000E+01 0. -1.
        -11    1    1    2    0    0  0.41310173515E+01  0.41803330906E+02  0.95888981704E+02  0.10468658267E+03  0.00000000000E+00 0. -1.
         11    1    1    2    0    0  0.52103262213E+02 -0.35283792450E+02  0.21044007469E+03  0.21964680962E+03  0.00000000000E+00 0.  1.
<mgrwt>
<rscale>  0 0.12881447E+03</rscale>
<asrwt>0</asrwt>
<pdfrwt beam="2">  1        1 0.91049860E-02 0.13722203E+03</pdfrwt>
<pdfrwt beam="1">  1       -1 0.62944996E-01 0.13722203E+03</pdfrwt>
<totfact> 0.18784661E+03</totfact>
</mgrwt>
</event>
<event>
 7    1  0.5928109E-006  0.3493295E+03  0.7546771E-02  0.1063993E+00
          2   -1    0    0  501    0  0.00000000000E+00  0.00000000000E+00  0.20855380205E+04  0.20855380205E+04  0.00000000000E+00 0. -1.
         -2   -1    0    0    0  501 -0.00000000000E+00 -0.00000000000E+00 -0.56826861170E+02  0.56826861170E+02  0.00000000000E+00 0.  1.
         23    2    1    2    0    0  0.26936721067E+03 -0.18397596440E+03  0.10666228815E+04  0.11223704642E+04  0.12500095186E+03 0.  0.
          5    1    3    3  502    0  0.78483475483E+02 -0.12663824971E+03  0.49664614102E+03  0.51853291275E+03  0.47000000000E+01 0.  1.
         -5    1    3    3    0  502  0.19088373519E+03 -0.57337714690E+02  0.56997674046E+03  0.60383755146E+03  0.47000000000E+01 0.  1.
        -11    1    1    2    0    0 -0.11401013746E+03  0.38660803798E+02  0.44153532547E+03  0.45765315779E+03  0.00000000000E+00 0.  1.
         11    1    1    2    0    0 -0.15535707321E+03  0.14531516060E+03  0.52055295233E+03  0.56234125962E+03  0.00000000000E+00 0. -1.
<mgrwt>
<rscale>  0 0.34666279E+03</rscale>
<asrwt>0</asrwt>
<pdfrwt beam="1">  1        2 0.32085194E+00 0.34932948E+03</pdfrwt>
<pdfrwt beam="2">  1       -2 0.87425956E-02 0.34932948E+03</pdfrwt>
<totfact> 0.54444651E+02</totfact>
</mgrwt>
</event>
<event>
 7    1  0.5928109E-006  0.1690328E+03  0.7546771E-02  0.1187122E+00
          2   -1    0    0  501    0  0.00000000000E+00  0.00000000000E+00  0.70287428071E+02  0.70287428071E+02  0.00000000000E+00 0.  1.
         -2   -1    0    0    0  501 -0.00000000000E+00 -0.00000000000E+00 -0.34831760085E+03  0.34831760085E+03  0.00000000000E+00 0. -1.
         23    2    1    2    0    0 -0.11204893774E+03  0.19818298098E+02 -0.18211667410E+03  0.24847246587E+03  0.12499741566E+03 0.  0.
          5    1    3    3  502    0 -0.18142472267E+02  0.62728523167E+02 -0.64618857680E+02  0.91987519190E+02  0.47000000000E+01 0.  1.
         -5    1    3    3    0  502 -0.93906465475E+02 -0.42910225070E+02 -0.11749781642E+03  0.15648494668E+03  0.47000000000E+01 0.  1.
        -11    1    1    2    0    0  0.11487929134E+03  0.50926425211E+01 -0.83807645012E+02  0.14229162993E+03  0.00000000000E+00 0.  1.
         11    1    1    2    0    0 -0.28303535991E+01 -0.24910940619E+02 -0.12105853669E+02  0.27840933121E+02  0.00000000000E+00 0. -1.
<mgrwt>
<rscale>  0 0.16140324E+03</rscale>
<asrwt>0</asrwt>
<pdfrwt beam="1">  1        2 0.10813451E-01 0.16903279E+03</pdfrwt>
<pdfrwt beam="2">  1       -2 0.53587322E-01 0.16903279E+03</pdfrwt>
<totfact> 0.18973075E+03</totfact>
</mgrwt>
</event>
<event>
 7    1  0.5928109E-006  0.1261508E+03  0.7546771E-02  0.1248359E+00
         -4   -1    0    0    0  501 -0.00000000000E+00  0.00000000000E+00  0.25885954650E+03  0.25885954650E+03  0.00000000000E+00 0.  1.
          4   -1    0    0  501    0  0.00000000000E+00 -0.00000000000E+00 -0.46358070579E+02  0.46358070579E+02  0.00000000000E+00 0. -1.
         23    2    1    2    0    0 -0.15349227960E+02  0.73402908728E+01  0.12471790439E+03  0.17739382534E+03  0.12499813969E+03 0.  0.
          5    1    3    3  502    0 -0.19766562289E+02 -0.56504776738E+02  0.75815594753E+02  0.96714017530E+02  0.47000000000E+01 0.  1.
         -5    1    3    3    0  502  0.44173343286E+01  0.63845067611E+02  0.48902309637E+02  0.80679807812E+02  0.47000000000E+01 0.  1.
        -11    1    1    2    0    0  0.17081281006E+02 -0.48091685519E+02  0.38971991716E+02  0.64213678568E+02  0.00000000000E+00 0.  1.
         11    1    1    2    0    0 -0.17320530459E+01  0.40751394646E+02  0.48811579813E+02  0.63610113168E+02  0.00000000000E+00 0. -1.
<mgrwt>
<rscale>  0 0.11686579E+03</rscale>
<asrwt>0</asrwt>
<pdfrwt beam="2">  1        4 0.71320110E-02 0.12615076E+03</pdfrwt>
<pdfrwt beam="1">  1       -4 0.39824545E-01 0.12615076E+03</pdfrwt>
<totfact> 0.13298781E+03</totfact>
</mgrwt>
</event>
<event>
 7    1  0.5928109E-006  0.2291674E+03  0.7546771E-02  0.1130409E+00
         -2   -1    0    0    0  501 -0.00000000000E+00  0.00000000000E+00  0.42163510398E+02  0.42163510398E+02  0.00000000000E+00 0.  1.
          2   -1    0    0  501    0  0.00000000000E+00 -0.00000000000E+00 -0.22901140076E+04  0.22901140076E+04  0.00000000000E+00 0. -1.
         23    2    1    2    0    0  0.41704559518E+02  0.18749657813E+03 -0.19673460064E+04  0.19806483857E+04  0.12499392626E+03 0.  0.
          5    1    3    3  502    0 -0.10190670279E+02  0.56638630295E+02 -0.21395502719E+03  0.22160917820E+03  0.47000000000E+01 0.  1.
         -5    1    3    3    0  502  0.51895229797E+02  0.13085794783E+03 -0.17533909792E+04  0.17590392075E+04  0.47000000000E+01 0.  1.
        -11    1    1    2    0    0 -0.60491874248E+02 -0.69352465404E+02 -0.11358210788E+03  0.14618456327E+03  0.00000000000E+00 0.  1.
         11    1    1    2    0    0  0.18787314730E+02 -0.11814411272E+03 -0.16702238293E+03  0.20544456908E+03  0.00000000000E+00 0. -1.
<mgrwt>
<rscale>  0 0.22472455E+03</rscale>
<asrwt>0</asrwt>
<pdfrwt beam="2">  1        2 0.35232518E+00 0.22916745E+03</pdfrwt>
<pdfrwt beam="1">  1       -2 0.64866949E-02 0.22916745E+03</pdfrwt>
<totfact> 0.68925861E+02</totfact>
</mgrwt>
</event>
<event>
 7    1  0.5928109E-006  0.1610794E+03  0.7546771E-02  0.1194435E+00
         -1   -1    0    0    0  501 -0.00000000000E+00  0.00000000000E+00  0.27659151446E+02  0.27659151446E+02  0.00000000000E+00 0.  1.
          1   -1    0    0  501    0  0.00000000000E+00 -0.00000000000E+00 -0.80950075712E+03  0.80950075712E+03  0.00000000000E+00 0. -1.
         23    2    1    2    0    0 -0.36374793896E+02 -0.94858205093E+02 -0.41816818162E+03  0.44811964358E+03  0.12500152855E+03 0.  0.
          5    1    3    3  502    0  0.34743948069E+02 -0.55050000618E+02 -0.28113725432E+03  0.28861373887E+03  0.47000000000E+01 0.  1.
         -5    1    3    3    0  502 -0.71118741965E+02 -0.39808204475E+02 -0.13703092729E+03  0.15950590471E+03  0.47000000000E+01 0.  1.
        -11    1    1    2    0    0  0.51017830424E+02  0.18540660407E+02 -0.95658880390E+02  0.10998725611E+03  0.00000000000E+00 0.  1.
         11    1    1    2    0    0 -0.14643036528E+02  0.76317544686E+02 -0.26801454367E+03  0.27905300888E+03  0.00000000000E+00 0. -1.
<mgrwt>
<rscale>  0 0.15502156E+03</rscale>
<asrwt>0</asrwt>
<pdfrwt beam="2">  1        1 0.12453858E+00 0.16107944E+03</pdfrwt>
<pdfrwt beam="1">  1       -1 0.42552541E-02 0.16107944E+03</pdfrwt>
<totfact> 0.49671252E+03</totfact>
</mgrwt>
</event>
<event>
 7    1  0.5928109E-006  0.1405064E+03  0.7546771E-02  0.1223643E+00
         -1   -1    0    0    0  501 -0.00000000000E+00  0.00000000000E+00  0.49880629585E+02  0.49880629585E+02  0.00000000000E+00 0.  1.
          1   -1    0    0  501    0  0.00000000000E+00 -0.00000000000E+00 -0.35492961841E+03  0.35492961841E+03  0.00000000000E+00 0. -1.
         23    2    1    2    0    0 -0.75552090087E+01  0.63725110205E+02 -0.23300543235E+03  0.27209112455E+03  0.12499631076E+03 0.  0.
          5    1    3    3  502    0 -0.50190364076E+02  0.79508031980E+02 -0.14411708120E+03  0.17214070666E+03  0.47000000000E+01 0.  1.
         -5    1    3    3    0  502  0.42635155067E+02 -0.15782921775E+02 -0.88888351144E+02  0.99950417890E+02  0.47000000000E+01 0.  1.
        -11    1    1    2    0    0 -0.92535387120E+01 -0.34680621421E+02  0.15399595883E+02  0.39057918969E+02  0.00000000000E+00 0.  1.
         11    1    1    2    0    0  0.16808747721E+02 -0.29044488784E+02 -0.87443152358E+02  0.93661204471E+02  0.00000000000E+00 0. -1.
<mgrwt>
<rscale>  0 0.13260355E+03</rscale>
<asrwt>0</asrwt>
<pdfrwt beam="2">  1        1 0.54604554E-01 0.14050640E+03</pdfrwt>
<pdfrwt beam="1">  1       -1 0.76739434E-02 0.14050640E+03</pdfrwt>
<totfact> 0.62174947E+03</totfact>
</mgrwt>
</event>
<event>
 7    1  0.5928109E-006  0.1308192E+03  0.7546771E-02  0.1242030E+00
          2   -1    0    0  501    0  0.00000000000E+00  0.00000000000E+00  0.20428784487E+03  0.20428784487E+03  0.00000000000E+00 0. -1.
         -2   -1    0    0    0  501 -0.00000000000E+00 -0.00000000000E+00 -0.67940236635E+02  0.67940236635E+02  0.00000000000E+00 0.  1.
         23    2    1    2    0    0  0.35701320371E+02 -0.14648987162E+02  0.11726118860E+03  0.17568107376E+03  0.12499790488E+03 0.  0.
          5    1    3    3  502    0  0.48119126989E+02 -0.24016022321E+02 -0.32473929503E+01  0.54081931097E+02  0.47000000000E+01 0. -1.
         -5    1    3    3    0  502 -0.12417806618E+02  0.93670351583E+01  0.12050858155E+03  0.12159914266E+03  0.47000000000E+01 0. -1.
        -11    1    1    2    0    0 -0.42532106100E+02  0.45416908213E+02  0.18898319325E+02  0.65029393925E+02  0.00000000000E+00 0.  1.
         11    1    1    2    0    0  0.68307857289E+01 -0.30767921051E+02  0.18810031473E+00  0.31517613825E+02  0.00000000000E+00 0. -1.
<mgrwt>
<rscale>  0 0.12064909E+03</rscale>
<asrwt>0</asrwt>
<pdfrwt beam="1">  1        2 0.31428899E-01 0.13081916E+03</pdfrwt>
<pdfrwt beam="2">  1       -2 0.10452344E-01 0.13081916E+03</pdfrwt>
<totfact> 0.96878313E+03</totfact>
</mgrwt>
</event>
<event>
 7    1  0.5928109E-006  0.1308952E+03  0.7546771E-02  0.1239375E+00
         -1   -1    0    0    0  501 -0.00000000000E+00  0.00000000000E+00  0.29110551733E+02  0.29110551733E+02  0.00000000000E+00 0.  1.
          1   -1    0    0  501    0  0.00000000000E+00 -0.00000000000E+00 -0.46104228515E+03  0.46104228515E+03  0.00000000000E+00 0. -1.
         23    2    1    2    0    0 -0.12845279467E+02  0.36670235878E+02 -0.26852969223E+03  0.29873356253E+03  0.12499535340E+03 0.  0.
          5    1    3    3  502    0 -0.35604376112E+02 -0.30621910193E+02 -0.49365643703E+02  0.68296630667E+02  0.47000000000E+01 0. -1.
         -5    1    3    3    0  502  0.22759096645E+02  0.67292146071E+02 -0.21916404852E+03  0.23043693187E+03  0.47000000000E+01 0. -1.
        -11    1    1    2    0    0 -0.35159008592E+02 -0.55732459331E+01 -0.99409729632E+02  0.10559124633E+03  0.00000000000E+00 0. -1.
         11    1    1    2    0    0  0.48004288059E+02 -0.31096989945E+02 -0.63992311563E+02  0.85828028027E+02  0.00000000000E+00 0.  1.
<mgrwt>
<rscale>  0 0.12228469E+03</rscale>
<asrwt>0</asrwt>
<pdfrwt beam="2">  1        1 0.70929584E-01 0.13089517E+03</pdfrwt>
<pdfrwt beam="1">  1       -1 0.44785463E-02 0.13089517E+03</pdfrwt>
<totfact> 0.99127074E+03</totfact>
</mgrwt>
</event>
<event>
 6    1  0.5928109E-006  0.1713312E+03  0.7546771E-02  0.1196668E+00
         -1   -1    0    0    0  501 -0.00000000000E+00  0.00000000000E+00  0.10936313814E+03  0.10936313814E+03  0.00000000000E+00 0.  1.
          1   -1    0    0  501    0  0.00000000000E+00 -0.00000000000E+00 -0.52427280745E+03  0.52427280745E+03  0.00000000000E+00 0. -1.
          5    1    1    2  502    0  0.67676818372E+02 -0.43690220347E+02 -0.46972253310E+03  0.47660291145E+03  0.47000000000E+01 0. -1.
         -5    1    1    2    0  502 -0.17144982080E+02  0.23997307728E+02 -0.80058811464E+01  0.30919335725E+02  0.47000000000E+01 0.  1.
        -11    1    1    2    0    0 -0.43457176618E+02  0.30471371246E+02  0.85144537709E+02  0.10033256185E+03  0.00000000000E+00 0.  1.
         11    1    1    2    0    0 -0.70746596742E+01 -0.10778458627E+02 -0.22325792775E+02  0.25781136572E+02  0.00000000000E+00 0. -1.
<mgrwt>
<rscale>  0 0.15313938E+03</rscale>
<asrwt>0</asrwt>
<pdfrwt beam="2">  1        1 0.80657357E-01 0.17133124E+03</pdfrwt>
<pdfrwt beam="1">  1       -1 0.16825098E-01 0.17133124E+03</pdfrwt>
<totfact> 0.11293185E+03</totfact>
</mgrwt>
</event>
<event>
 7    1  0.5928109E-006  0.1567303E+03  0.7546771E-02  0.1197325E+00
          1   -1    0    0  501    0  0.00000000000E+00  0.00000000000E+00  0.76238967923E+03  0.76238967923E+03  0.00000000000E+00 0. -1.
         -1   -1    0    0    0  501 -0.00000000000E+00 -0.00000000000E+00 -0.29594888798E+02  0.29594888798E+02  0.00000000000E+00 0.  1.
         23    2    1    2    0    0 -0.13862873559E+02  0.93518160479E+02  0.33108815536E+03  0.36631101186E+03  0.12500626059E+03 0.  0.
          5    1    3    3  502    0 -0.79267290876E+01  0.84375040597E+02  0.34065192325E+03  0.35106666507E+03  0.47000000000E+01 0.  1.
         -5    1    3    3    0  502 -0.59361444718E+01  0.91431198818E+01 -0.95637678983E+01  0.15244346781E+02  0.47000000000E+01 0.  1.
        -11    1    1    2    0    0 -0.34941020636E+02 -0.75942368620E+02  0.18776058407E+03  0.20552896440E+03  0.00000000000E+00 0.  1.
         11    1    1    2    0    0  0.48803894195E+02 -0.17575791858E+02  0.21394605100E+03  0.22014459178E+03  0.00000000000E+00 0. -1.
<mgrwt>
<rscale>  0 0.15259118E+03</rscale>
<asrwt>0</asrwt>
<pdfrwt beam="1">  1        1 0.11729071E+00 0.15673031E+03</pdfrwt>
<pdfrwt beam="2">  1       -1 0.45530604E-02 0.15673031E+03</pdfrwt>
<totfact> 0.49129216E+03</totfact>
</mgrwt>
</event>
<event>
 7    1  0.5928109E-006  0.1314500E+03  0.7546771E-02  0.1238950E+00
          2   -1    0    0  501    0  0.00000000000E+00  0.00000000000E+00  0.91764656099E+03  0.91764656099E+03  0.00000000000E+00 0. -1.
         -2   -1    0    0    0  501 -0.00000000000E+00 -0.00000000000E+00 -0.14894567796E+02  0.14894567796E+02  0.00000000000E+00 0.  1.
         23    2    1    2    0    0 -0.15451805010E+02  0.37665708921E+02  0.58719759110E+03  0.60173093288E+03  0.12498656201E+03 0.  0.
          5    1    3    3  502    0  0.10342887157E+01 -0.42741956329E+02  0.29749719684E+03  0.30059044681E+03  0.47000000000E+01 0. -1.
         -5    1    3    3    0  502 -0.16486093726E+02  0.80407665249E+02  0.28970039426E+03  0.30114048607E+03  0.47000000000E+01 0. -1.
        -11    1    1    2    0    0  0.52328700900E+02 -0.19042534481E+02  0.21512929636E+03  0.22221954282E+03  0.00000000000E+00 0.  1.
         11    1    1    2    0    0 -0.36876895890E+02 -0.18623174440E+02  0.10042510573E+03  0.10859065308E+03  0.00000000000E+00 0. -1.
<mgrwt>
<rscale>  0 0.12254893E+03</rscale>
<asrwt>0</asrwt>
<pdfrwt beam="1">  1        2 0.14117635E+00 0.13145001E+03</pdfrwt>
<pdfrwt beam="2">  1       -2 0.22914727E-02 0.13145001E+03</pdfrwt>
<totfact> 0.17797396E+04</totfact>
</mgrwt>
</event>
<event>
 7    1  0.5928109E-006  0.1382928E+03  0.7546771E-02  0.1227139E+00
         -1   -1    0    0    0  501 -0.00000000000E+00  0.00000000000E+00  0.31867043880E+03  0.31867043880E+03  0.00000000000E+00 0.  1.
          1   -1    0    0  501    0  0.00000000000E+00 -0.00000000000E+00 -0.83843163303E+02  0.83843163303E+02  0.00000000000E+00 0. -1.
         23    2    1    2    0    0 -0.26714135666E+02 -0.52788532058E+02 -0.58625158339E+01  0.13841701624E+03  0.12499850852E+03 0.  0.
          5    1    3    3  502    0 -0.68740224818E+02 -0.16017486657E+01 -0.17266255817E+02  0.71049262464E+02  0.47000000000E+01 0.  1.
         -5    1    3    3    0  502  0.42026089152E+02 -0.51186783392E+02  0.11403739983E+02  0.67367753778E+02  0.47000000000E+01 0.  1.
        -11    1    1    2    0    0 -0.25580976024E+02 -0.74650589246E+01  0.39334680509E+02  0.47511372637E+02  0.00000000000E+00 0. -1.
         11    1    1    2    0    0  0.52295111690E+02  0.60253590983E+02  0.20135511082E+03  0.21658521322E+03  0.00000000000E+00 0.  1.
<mgrwt>
<rscale>  0 0.13021347E+03</rscale>
<asrwt>0</asrwt>
<pdfrwt beam="2">  1        1 0.12898948E-01 0.13829281E+03</pdfrwt>
<pdfrwt beam="1">  1       -1 0.49026221E-01 0.13829281E+03</pdfrwt>
<totfact> 0.18921214E+03</totfact>
</mgrwt>
</event>
<event>
 7    1  0.7373506E-006  0.1414169E+03  0.7546771E-02  0.1222011E+00
         -1   -1    0    0    0  501 -0.00000000000E+00  0.00000000000E+00  0.11037091947E+03  0.11037091947E+03  0.00000000000E+00 0.  1.
          1   -1    0    0  501    0  0.00000000000E+00 -0.00000000000E+00 -0.16133871296E+03  0.16133871296E+03  0.00000000000E+00 0. -1.
         23    2    1    2    0    0  0.66068794115E+02 -0.29766295176E+01 -0.68685537282E+02  0.15721466495E+03  0.12499920786E+03 0.  0.
          5    1    3    3  502    0 -0.26266894093E+02  0.34124305726E+01  0.16314425013E+02  0.31461800190E+02  0.47000000000E+01 0.  1.
         -5    1    3    3    0  502  0.92335688208E+02 -0.63890600902E+01 -0.84999962294E+02  0.12575286476E+03  0.47000000000E+01 0.  1.
        -11    1    1    2    0    0 -0.14130357511E+02  0.43427651094E+02  0.16786616596E+02  0.48656123763E+02  0.00000000000E+00 0. -1.
         11    1    1    2    0    0 -0.51938436603E+02 -0.40451021576E+02  0.93112720148E+00  0.65838843711E+02  0.00000000000E+00 0.  1.
<mgrwt>
<rscale>  0 0.13373862E+03</rscale>
<asrwt>0</asrwt>
<pdfrwt beam="2">  1        1 0.24821341E-01 0.14141693E+03</pdfrwt>
<pdfrwt beam="1">  1       -1 0.16980141E-01 0.14141693E+03</pdfrwt>
<totfact> 0.48724279E+03</totfact>
</mgrwt>
</event>
<event>
 7    1  0.5928109E-006  0.3380857E+03  0.7546771E-02  0.1068791E+00
          1   -1    0    0  501    0  0.00000000000E+00  0.00000000000E+00  0.25039561230E+04  0.25039561230E+04  0.00000000000E+00 0. -1.
         -1   -1    0    0    0  501 -0.00000000000E+00 -0.00000000000E+00 -0.44205251565E+02  0.44205251565E+02  0.00000000000E+00 0.  1.
         23    2    1    2    0    0  0.23863049441E+03 -0.20428785917E+03  0.12426180163E+04  0.12877893703E+04  0.12499554227E+03 0.  0.
          5    1    3    3  502    0  0.12121253500E+03 -0.33926341370E+02  0.36584183490E+03  0.38691835501E+03  0.47000000000E+01 0. -1.
         -5    1    3    3    0  502  0.11741795940E+03 -0.17036151780E+03  0.87677618144E+03  0.90087101534E+03  0.47000000000E+01 0. -1.
        -11    1    1    2    0    0 -0.13937798840E+03  0.12891006556E+03  0.89620751126E+03  0.91609602766E+03  0.00000000000E+00 0. -1.
         11    1    1    2    0    0 -0.99252506007E+02  0.75377793608E+02  0.32092534383E+03  0.34427597655E+03  0.00000000000E+00 0.  1.
<mgrwt>
<rscale>  0 0.33535635E+03</rscale>
<asrwt>0</asrwt>
<pdfrwt beam="1">  1        1 0.38522391E+00 0.33808568E+03</pdfrwt>
<pdfrwt beam="2">  1       -1 0.68008099E-02 0.33808568E+03</pdfrwt>
<totfact> 0.17145201E+02</totfact>
</mgrwt>
</event>
<event>
 6    1  0.5928109E-006  0.1666076E+03  0.7546771E-02  0.1196719E+00
         -2   -1    0    0    0  501 -0.00000000000E+00  0.00000000000E+00  0.35243046370E+02  0.35243046370E+02  0.00000000000E+00 0.  1.
          2   -1    0    0  501    0  0.00000000000E+00 -0.00000000000E+00 -0.74217794165E+03  0.74217794165E+03  0.00000000000E+00 0. -1.
          5    1    1    2  502    0 -0.86328243395E+02  0.15516520666E+02 -0.55440412582E+03  0.56131929661E+03  0.47000000000E+01 0. -1.
         -5    1    1    2    0  502  0.19054377219E+02  0.27392158865E+02 -0.26106804568E+02  0.42626926974E+02  0.47000000000E+01 0.  1.
        -11    1    1    2    0    0  0.12171095241E+01 -0.50449595130E+02 -0.39759970630E+02  0.64245608947E+02  0.00000000000E+00 0.  1.
         11    1    1    2    0    0  0.66056756652E+02  0.75409155995E+01 -0.86663994261E+02  0.10922915549E+03  0.00000000000E+00 0. -1.
<mgrwt>
<rscale>  0 0.15309601E+03</rscale>
<asrwt>0</asrwt>
<pdfrwt beam="2">  1        2 0.11418122E+00 0.16660762E+03</pdfrwt>
<pdfrwt beam="1">  1       -2 0.54220073E-02 0.16660762E+03</pdfrwt>
<totfact> 0.65829874E+03</totfact>
</mgrwt>
</event>
<event>
 7    1  0.5928109E-006  0.1661656E+03  0.7546771E-02  0.1189334E+00
          2   -1    0    0  501    0  0.00000000000E+00  0.00000000000E+00  0.16553873720E+04  0.16553873720E+04  0.00000000000E+00 0. -1.
         -2   -1    0    0    0  501 -0.00000000000E+00 -0.00000000000E+00 -0.14751132993E+02  0.14751132993E+02  0.00000000000E+00 0.  1.
         23    2    1    2    0    0  0.74046786717E+02 -0.80637937345E+02  0.10414134592E+04  0.10545866495E+04  0.12500241946E+03 0.  0.
          5    1    3    3  502    0  0.54447762037E+02 -0.99092179471E+02  0.50702842931E+03  0.51950335605E+03  0.47000000000E+01 0. -1.
         -5    1    3    3    0  502  0.19599024681E+02  0.18454242127E+02  0.53438502988E+03  0.53508329350E+03  0.47000000000E+01 0. -1.
        -11    1    1    2    0    0 -0.58651917247E+02  0.15894886679E+01  0.20747040006E+03  0.21560737643E+03  0.00000000000E+00 0.  1.
         11    1    1    2    0    0 -0.15394869471E+02  0.79048448677E+02  0.39175237975E+03  0.39994447900E+03  0.00000000000E+00 0. -1.
<mgrwt>
<rscale>  0 0.15943660E+03</rscale>
<asrwt>0</asrwt>
<pdfrwt beam="1">  1        2 0.25467483E+00 0.16616561E+03</pdfrwt>
<pdfrwt beam="2">  1       -2 0.22694064E-02 0.16616561E+03</pdfrwt>
<totfact> 0.71510916E+03</totfact>
</mgrwt>
</event>
<event>
 7    1  0.5928109E-006  0.1652754E+03  0.7546771E-02  0.1190259E+00
          2   -1    0    0  501    0  0.00000000000E+00  0.00000000000E+00  0.10751692805E+04  0.10751692805E+04  0.00000000000E+00 0.  1.
         -2   -1    0    0    0  501 -0.00000000000E+00 -0.00000000000E+00 -0.28574535205E+02  0.28574535205E+02  0.00000000000E+00 0. -1.
         23    2    1    2    0    0  0.84656630403E+02  0.67253796116E+02  0.82582175858E+03  0.84219804012E+03  0.12500457464E+03 0.  0.
          5    1    3    3  502    0  0.10224288055E+03  0.25712029552E+02  0.39010628885E+03  0.40412834804E+03  0.47000000000E+01 0.  1.
         -5    1    3    3    0  502 -0.17586250146E+02  0.41541766564E+02  0.43571546973E+03  0.43806969209E+03  0.47000000000E+01 0.  1.
        -11    1    1    2    0    0 -0.35097248952E+01 -0.17182913314E+02 -0.34650429174E+01  0.17876722328E+02  0.00000000000E+00 0. -1.
         11    1    1    2    0    0 -0.81146905508E+02 -0.50070882802E+02  0.22423802961E+03  0.24366905323E+03  0.00000000000E+00 0.  1.
<mgrwt>
<rscale>  0 0.15862413E+03</rscale>
<asrwt>0</asrwt>
<pdfrwt beam="1">  1        2 0.16541063E+00 0.16527541E+03</pdfrwt>
<pdfrwt beam="2">  1       -2 0.43960832E-02 0.16527541E+03</pdfrwt>
<totfact> 0.55357066E+03</totfact>
</mgrwt>
</event>
<event>
 7    1  0.5928109E-006  0.1784638E+03  0.7546771E-02  0.1175287E+00
          2   -1    0    0  501    0  0.00000000000E+00  0.00000000000E+00  0.33255138977E+03  0.33255138977E+03  0.00000000000E+00 0. -1.
         -2   -1    0    0    0  501 -0.00000000000E+00 -0.00000000000E+00 -0.94981044648E+02  0.94981044648E+02  0.00000000000E+00 0.  1.
         23    2    1    2    0    0  0.12085825592E+03 -0.40221269101E+02  0.19864562993E+03  0.26703823869E+03  0.12499946448E+03 0.  0.
          5    1    3    3  502    0  0.90286932169E+02 -0.66439423137E+02  0.70208526546E+02  0.13235276449E+03  0.47000000000E+01 0. -1.
         -5    1    3    3    0  502  0.30571323755E+02  0.26218154036E+02  0.12843710338E+03  0.13468547421E+03  0.47000000000E+01 0. -1.
        -11    1    1    2    0    0 -0.10000308318E+03 -0.29151104958E+01  0.21052263644E+01  0.10006770954E+03  0.00000000000E+00 0.  1.
         11    1    1    2    0    0 -0.20855172742E+02  0.43136379597E+02  0.36819488832E+02  0.60426486185E+02  0.00000000000E+00 0. -1.
<mgrwt>
<rscale>  0 0.17247911E+03</rscale>
<asrwt>0</asrwt>
<pdfrwt beam="1">  1        2 0.51161752E-01 0.17846382E+03</pdfrwt>
<pdfrwt beam="2">  1       -2 0.14612469E-01 0.17846382E+03</pdfrwt>
<totfact> 0.34213640E+03</totfact>
</mgrwt>
</event>
<event>
 7    1  0.5928109E-006  0.1481252E+03  0.7546771E-02  0.1211881E+00
          4   -1    0    0  501    0  0.00000000000E+00  0.00000000000E+00  0.95081146770E+02  0.95081146770E+02  0.00000000000E+00 0. -1.
         -4   -1    0    0    0  501 -0.00000000000E+00 -0.00000000000E+00 -0.19170872485E+03  0.19170872485E+03  0.00000000000E+00 0.  1.
         23    2    1    2    0    0  0.70274457123E+02 -0.37080211147E+02 -0.53087751136E+02  0.15735116552E+03  0.12501055391E+03 0.  0.
          5    1    3    3  502    0  0.33908909853E+02  0.93044379110E+01 -0.83599630416E+02  0.90815058982E+02  0.47000000000E+01 0.  1.
         -5    1    3    3    0  502  0.36365547270E+02 -0.46384649058E+02  0.30511879280E+02  0.66536106542E+02  0.47000000000E+01 0.  1.
        -11    1    1    2    0    0 -0.17457958186E+02  0.57718714648E+02 -0.40524296743E+02  0.72652934911E+02  0.00000000000E+00 0.  1.
         11    1    1    2    0    0 -0.52816498938E+02 -0.20638503500E+02 -0.30155301999E+01  0.56785771186E+02  0.00000000000E+00 0. -1.
<mgrwt>
<rscale>  0 0.14108122E+03</rscale>
<asrwt>0</asrwt>
<pdfrwt beam="1">  1        4 0.14627869E-01 0.14812522E+03</pdfrwt>
<pdfrwt beam="2">  1       -4 0.29493650E-01 0.14812522E+03</pdfrwt>
<totfact> 0.72832719E+02</totfact>
</mgrwt>
</event>
<event>
 7    1  0.5928109E-006  0.1328057E+03  0.7546771E-02  0.1236176E+00
         -1   -1    0    0    0  501 -0.00000000000E+00  0.00000000000E+00  0.30393603018E+03  0.30393603018E+03  0.00000000000E+00 0.  1.
          1   -1    0    0  501    0  0.00000000000E+00 -0.00000000000E+00 -0.47510484039E+02  0.47510484039E+02  0.00000000000E+00 0. -1.
         23    2    1    2    0    0 -0.42845672737E+02  0.13287675359E+02  0.10680893638E+03  0.17042744266E+03  0.12500020134E+03 0.  0.
          5    1    3    3  502    0 -0.46434565519E+01 -0.40081943186E+02 -0.47588972815E+01  0.40900622999E+02  0.47000000000E+01 0.  1.
         -5    1    3    3    0  502 -0.38202216185E+02  0.53369618545E+02  0.11156783366E+03  0.12952681967E+03  0.47000000000E+01 0.  1.
        -11    1    1    2    0    0  0.58200998993E-01  0.34599271709E+02  0.74847838543E+02  0.82457940337E+02  0.00000000000E+00 0.  1.
         11    1    1    2    0    0  0.42787471738E+02 -0.47886947068E+02  0.74768771222E+02  0.98561131219E+02  0.00000000000E+00 0. -1.
<mgrwt>
<rscale>  0 0.12429447E+03</rscale>
<asrwt>0</asrwt>
<pdfrwt beam="2">  1        1 0.73093054E-02 0.13280574E+03</pdfrwt>
<pdfrwt beam="1">  1       -1 0.46759388E-01 0.13280574E+03</pdfrwt>
<totfact> 0.43722765E+03</totfact>
</mgrwt>
</event>
<event>
 7    1  0.5928109E-006  0.1887806E+03  0.7546771E-02  0.1164645E+00
         -2   -1    0    0    0  501 -0.00000000000E+00  0.00000000000E+00  0.31702162570E+02  0.31702162570E+02  0.00000000000E+00 0.  1.
          2   -1    0    0  501    0  0.00000000000E+00 -0.00000000000E+00 -0.11295544329E+04  0.11295544329E+04  0.00000000000E+00 0. -1.
         23    2    1    2    0    0  0.12821167829E+03  0.59806308930E+02 -0.77188381496E+03  0.79463371964E+03  0.12499238196E+03 0.  0.
          5    1    3    3  502    0  0.14851383476E+03  0.28703102732E+02 -0.62141844429E+03  0.63958048761E+03  0.47000000000E+01 0.  1.
         -5    1    3    3    0  502 -0.20302156464E+02  0.31103206198E+02 -0.15046537067E+03  0.15505323204E+03  0.47000000000E+01 0.  1.
        -11    1    1    2    0    0 -0.10348176927E+03 -0.26547890669E+02 -0.14007563799E+03  0.17616597693E+03  0.00000000000E+00 0.  1.
         11    1    1    2    0    0 -0.24729909023E+02 -0.33258418261E+02 -0.18589281738E+03  0.19045689890E+03  0.00000000000E+00 0. -1.
<mgrwt>
<rscale>  0 0.18330156E+03</rscale>
<asrwt>0</asrwt>
<pdfrwt beam="2">  1        2 0.17377759E+00 0.18878063E+03</pdfrwt>
<pdfrwt beam="1">  1       -2 0.48772563E-02 0.18878063E+03</pdfrwt>
<totfact> 0.44207683E+03</totfact>
</mgrwt>
</event>
<event>
 7    1  0.5928109E-006  0.1548145E+03  0.7546771E-02  0.1202755E+00
         -2   -1    0    0    0  501 -0.00000000000E+00  0.00000000000E+00  0.27898902152E+02  0.27898902152E+02  0.00000000000E+00 0. -1.
          2   -1    0    0  501    0  0.00000000000E+00 -0.00000000000E+00 -0.87068011781E+03  0.87068011781E+03  0.00000000000E+00 0.  1.
         23    2    1    2    0    0 -0.69993677359E+02 -0.58679664245E+02 -0.63465124657E+03  0.65326085471E+03  0.12500048662E+03 0.  0.
          5    1    3    3  502    0 -0.61258752496E+02 -0.73410840752E+02 -0.24254551131E+03  0.26075314256E+03  0.47000000000E+01 0. -1.
         -5    1    3    3    0  502 -0.87349248625E+01  0.14731176507E+02 -0.39210573525E+03  0.39250771214E+03  0.47000000000E+01 0. -1.
        -11    1    1    2    0    0  0.40537012968E+02  0.69645742522E+02 -0.80609085918E+02  0.11398071593E+03  0.00000000000E+00 0. -1.
         11    1    1    2    0    0  0.29456664391E+02 -0.10966078277E+02 -0.12752088317E+03  0.13133744932E+03  0.00000000000E+00 0.  1.
<mgrwt>
<rscale>  0 0.14815810E+03</rscale>
<asrwt>0</asrwt>
<pdfrwt beam="2">  1        2 0.13395080E+00 0.15481453E+03</pdfrwt>
<pdfrwt beam="1">  1       -2 0.42921385E-02 0.15481453E+03</pdfrwt>
<totfact> 0.76307665E+03</totfact>
</mgrwt>
</event>
<event>
 7    1  0.9172975E-006  0.2358286E+03  0.7546771E-02  0.1125326E+00
         -1   -1    0    0    0  501 -0.00000000000E+00  0.00000000000E+00  0.46120563126E+02  0.46120563126E+02  0.00000000000E+00 0.  1.
          1   -1    0    0  501    0  0.00000000000E+00 -0.00000000000E+00 -0.11286376507E+04  0.11286376507E+04  0.00000000000E+00 0. -1.
         23    2    1    2    0    0  0.16990326561E+03 -0.10546611770E+03 -0.54971274471E+03  0.59816320441E+03  0.12499958305E+03 0.  0.
          5    1    3    3  502    0  0.44492320179E+02 -0.84479915546E+02 -0.14299331400E+03  0.17200465265E+03  0.47000000000E+01 0. -1.
         -5    1    3    3    0  502  0.12541094543E+03 -0.20986202150E+02 -0.40671943072E+03  0.42615855176E+03  0.47000000000E+01 0. -1.
        -11    1    1    2    0    0 -0.10763340999E+03  0.21515645779E+02 -0.34003244573E+03  0.35730930314E+03  0.00000000000E+00 0. -1.
         11    1    1    2    0    0 -0.62269855618E+02  0.83950471917E+02 -0.19277189711E+03  0.21928570626E+03  0.00000000000E+00 0.  1.
<mgrwt>
<rscale>  0 0.23187611E+03</rscale>
<asrwt>0</asrwt>
<pdfrwt beam="2">  1        1 0.17363656E+00 0.23582858E+03</pdfrwt>
<pdfrwt beam="1">  1       -1 0.70954712E-02 0.23582858E+03</pdfrwt>
<totfact> 0.13331035E+03</totfact>
</mgrwt>
</event>
<event>
 7    1  0.5928109E-006  0.1316132E+03  0.7546771E-02  0.1238905E+00
          1   -1    0    0  501    0  0.00000000000E+00  0.00000000000E+00  0.18529049688E+03  0.18529049688E+03  0.00000000000E+00 0. -1.
         -1   -1    0    0    0  501 -0.00000000000E+00 -0.00000000000E+00 -0.71965055488E+02  0.71965055488E+02  0.00000000000E+00 0.  1.
         23    2    1    2    0    0 -0.25369789376E+01  0.41141529685E+02  0.71261423323E+02  0.14966702847E+03  0.12499186865E+03 0.  0.
          5    1    3    3  502    0 -0.50657920713E+02 -0.14428332276E+02  0.99065390488E+01  0.53801777100E+02  0.47000000000E+01 0.  1.
         -5    1    3    3    0  502  0.48120941775E+02  0.55569861961E+02  0.61354884274E+02  0.95865251368E+02  0.47000000000E+01 0.  1.
        -11    1    1    2    0    0 -0.11047397874E+01 -0.55553322266E+02 -0.72937381492E+01  0.56040973234E+02  0.00000000000E+00 0.  1.
         11    1    1    2    0    0  0.36417187250E+01  0.14411792581E+02  0.49357756223E+02  0.51547550670E+02  0.00000000000E+00 0. -1.
<mgrwt>
<rscale>  0 0.12257743E+03</rscale>
<asrwt>0</asrwt>
<pdfrwt beam="1">  1        1 0.28506230E-01 0.13161318E+03</pdfrwt>
<pdfrwt beam="2">  1       -1 0.11071547E-01 0.13161318E+03</pdfrwt>
<totfact> 0.79394543E+03</totfact>
</mgrwt>
</event>
<event>
 7    1  0.5928109E-006  0.3811155E+03  0.7546771E-02  0.1051529E+00
         -2   -1    0    0    0  501 -0.00000000000E+00  0.00000000000E+00  0.53046841585E+02  0.53046841585E+02  0.00000000000E+00 0. -1.
          2   -1    0    0  501    0  0.00000000000E+00 -0.00000000000E+00 -0.30671012395E+04  0.30671012395E+04  0.00000000000E+00 0.  1.
         23    2    1    2    0    0 -0.29412358175E+03  0.20764407154E+03 -0.20931612615E+04  0.21275744567E+04  0.12499704246E+03 0.  0.
          5    1    3    3  502    0 -0.28643410882E+03  0.15489597739E+03 -0.17151932841E+04  0.17458371500E+04  0.47000000000E+01 0.  1.
         -5    1    3    3    0  502 -0.76894729324E+01  0.52748094153E+02 -0.37796797734E+03  0.38173730670E+03  0.47000000000E+01 0.  1.
        -11    1    1    2    0    0  0.20511884734E+03 -0.14568930988E+03 -0.74071852361E+03  0.78228067071E+03  0.00000000000E+00 0.  1.
         11    1    1    2    0    0  0.89004734415E+02 -0.61954761659E+02 -0.18017461282E+03  0.21029295363E+03  0.00000000000E+00 0. -1.
<mgrwt>
<rscale>  0 0.37839481E+03</rscale>
<asrwt>0</asrwt>
<pdfrwt beam="2">  1        2 0.47186176E+00 0.38111547E+03</pdfrwt>
<pdfrwt beam="1">  1       -2 0.81610521E-02 0.38111547E+03</pdfrwt>
<totfact> 0.16912993E+02</totfact>
</mgrwt>
</event>
<event>
 7    1  0.5928109E-006  0.3172389E+03  0.7546771E-02  0.1078240E+00
          2   -1    0    0  501    0  0.00000000000E+00  0.00000000000E+00  0.20287311018E+04  0.20287311018E+04  0.00000000000E+00 0. -1.
         -2   -1    0    0    0  501 -0.00000000000E+00 -0.00000000000E+00 -0.47891348597E+02  0.47891348597E+02  0.00000000000E+00 0.  1.
         23    2    1    2    0    0  0.67282354479E+02  0.28370477834E+03  0.10038186994E+04  0.10527547316E+04  0.12500090925E+03 0.  0.
          5    1    3    3  502    0  0.14362453889E+02  0.15123815247E+03  0.32081189749E+03  0.35499524281E+03  0.47000000000E+01 0. -1.
         -5    1    3    3    0  502  0.52919900591E+02  0.13246662588E+03  0.68300680187E+03  0.69775948883E+03  0.47000000000E+01 0. -1.
        -11    1    1    2    0    0 -0.77734609195E+01 -0.33359726588E+02  0.42597568957E+02  0.54661237946E+02  0.00000000000E+00 0.  1.
         11    1    1    2    0    0 -0.59508893560E+02 -0.25034505176E+03  0.93442348486E+03  0.96920648079E+03  0.00000000000E+00 0. -1.
<mgrwt>
<rscale>  0 0.31443260E+03</rscale>
<asrwt>0</asrwt>
<pdfrwt beam="1">  1        2 0.31211241E+00 0.31723894E+03</pdfrwt>
<pdfrwt beam="2">  1       -2 0.73679013E-02 0.31723894E+03</pdfrwt>
<totfact> 0.76763771E+02</totfact>
</mgrwt>
</event>
<event>
 7    1  0.5928109E-006  0.1343231E+03  0.7546771E-02  0.1233385E+00
         -2   -1    0    0    0  501 -0.00000000000E+00  0.00000000000E+00  0.27302056301E+03  0.27302056301E+03  0.00000000000E+00 0.  1.
          2   -1    0    0  501    0  0.00000000000E+00 -0.00000000000E+00 -0.52230687414E+02  0.52230687414E+02  0.00000000000E+00 0. -1.
         23    2    1    2    0    0  0.47689140814E+02  0.12599375431E+02  0.11718496733E+03  0.17825547975E+03  0.12493878934E+03 0.  0.
          5    1    3    3  502    0  0.24516788637E+01  0.13343324275E+02 -0.25078105187E+02  0.28897342295E+02  0.47000000000E+01 0. -1.
         -5    1    3    3    0  502  0.45237461950E+02 -0.74394884385E+00  0.14226307252E+03  0.14935813746E+03  0.47000000000E+01 0. -1.
        -11    1    1    2    0    0 -0.59509821568E+02  0.24741569265E+02  0.56259695237E+02  0.85549502751E+02  0.00000000000E+00 0. -1.
         11    1    1    2    0    0  0.11820680754E+02 -0.37340944696E+02  0.47345213026E+02  0.61446267916E+02  0.00000000000E+00 0.  1.
<mgrwt>
<rscale>  0 0.12608419E+03</rscale>
<asrwt>0</asrwt>
<pdfrwt beam="2">  1        2 0.80354905E-02 0.13432312E+03</pdfrwt>
<pdfrwt beam="1">  1       -2 0.42003163E-01 0.13432312E+03</pdfrwt>
<totfact> 0.43620282E+03</totfact>
</mgrwt>
</event>
<event>
 6    1  0.5928109E-006  0.2597453E+03  0.7546771E-02  0.1116207E+00
         -3   -1    0    0    0  501 -0.00000000000E+00  0.00000000000E+00  0.29617535729E+03  0.29617535729E+03  0.00000000000E+00 0.  1.
          3   -1    0    0  501    0  0.00000000000E+00 -0.00000000000E+00 -0.20121244648E+03  0.20121244648E+03  0.00000000000E+00 0. -1.
          5    1    1    2  502    0  0.11186574842E+03 -0.12926520937E+03 -0.33355007193E+02  0.17423572115E+03  0.47000000000E+01 0. -1.
         -5    1    1    2    0  502 -0.78416159716E+02 -0.33035838740E+02  0.13431567184E+02  0.86272578163E+02  0.47000000000E+01 0.  1.
        -11    1    1    2    0    0  0.15827242788E+02  0.13044515901E+03  0.12003849551E+03  0.17797663197E+03  0.00000000000E+00 0.  1.
         11    1    1    2    0    0 -0.49276831489E+02  0.31855889100E+02 -0.51521446835E+01  0.58902872484E+02  0.00000000000E+00 0. -1.
<mgrwt>
<rscale>  0 0.24546210E+03</rscale>
<asrwt>0</asrwt>
<pdfrwt beam="2">  1        3 0.30955761E-01 0.25974532E+03</pdfrwt>
<pdfrwt beam="1">  1       -3 0.45565440E-01 0.25974532E+03</pdfrwt>
<totfact> 0.12167750E+02</totfact>
</mgrwt>
</event>
<event>
 7    1  0.5928109E-006  0.1582672E+03  0.7546771E-02  0.1198557E+00
          2   -1    0    0  501    0  0.00000000000E+00  0.00000000000E+00  0.10459723178E+03  0.10459723178E+03  0.00000000000E+00 0. -1.
         -2   -1    0    0    0  501 -0.00000000000E+00 -0.00000000000E+00 -0.27008466601E+03  0.27008466601E+03  0.00000000000E+00 0.  1.
         23    2    1    2    0    0  0.36126263776E+02 -0.90105058356E+02  0.50314605106E+01  0.15834715442E+03  0.12499790895E+03 0.  0.
          5    1    3    3  502    0  0.25790504404E+02 -0.27863024394E+02  0.62234265876E+02  0.73052666583E+02  0.47000000000E+01 0. -1.
         -5    1    3    3    0  502  0.10335759373E+02 -0.62242033962E+02 -0.57202805366E+02  0.85294487836E+02  0.47000000000E+01 0. -1.
        -11    1    1    2    0    0 -0.59186293532E+02  0.83556112459E+02 -0.16043964879E+03  0.19033003488E+03  0.00000000000E+00 0.  1.
         11    1    1    2    0    0  0.23060029755E+02  0.65489458963E+01 -0.10079245948E+02  0.26004708488E+02  0.00000000000E+00 0. -1.
<mgrwt>
<rscale>  0 0.15157008E+03</rscale>
<asrwt>0</asrwt>
<pdfrwt beam="1">  1        2 0.16091882E-01 0.15826720E+03</pdfrwt>
<pdfrwt beam="2">  1       -2 0.41551487E-01 0.15826720E+03</pdfrwt>
<totfact> 0.19379200E+03</totfact>
</mgrwt>
</event>
<event>
 7    1  0.5928109E-006  0.1393307E+03  0.7546771E-02  0.1225456E+00
         -2   -1    0    0    0  501 -0.00000000000E+00  0.00000000000E+00  0.38579944413E+02  0.38579944413E+02  0.00000000000E+00 0.  1.
          2   -1    0    0  501    0  0.00000000000E+00 -0.00000000000E+00 -0.40695526753E+03  0.40695526753E+03  0.00000000000E+00 0. -1.
         23    2    1    2    0    0  0.17047674338E+02 -0.59180340398E+02 -0.22721864430E+03  0.26653583546E+03  0.12498041199E+03 0.  0.
          5    1    3    3  502    0  0.23195215673E+01 -0.45999093981E+02 -0.23873489034E+03  0.24318251313E+03  0.47000000000E+01 0. -1.
         -5    1    3    3    0  502  0.14728152771E+02 -0.13181246417E+02  0.11516246041E+02  0.23353322334E+02  0.47000000000E+01 0. -1.
        -11    1    1    2    0    0  0.10450642058E+02  0.70180312719E+02 -0.12850704248E+03  0.14679425118E+03  0.00000000000E+00 0. -1.
         11    1    1    2    0    0 -0.27498316396E+02 -0.10999972321E+02 -0.12649636331E+02  0.32205125291E+02  0.00000000000E+00 0.  1.
<mgrwt>
<rscale>  0 0.13135695E+03</rscale>
<asrwt>0</asrwt>
<pdfrwt beam="2">  1        2 0.62608502E-01 0.13933068E+03</pdfrwt>
<pdfrwt beam="1">  1       -2 0.59353762E-02 0.13933068E+03</pdfrwt>
<totfact> 0.11192582E+04</totfact>
</mgrwt>
</event>
<event>
 7    1  0.5928109E-006  0.1170504E+03  0.7546771E-02  0.1257431E+00
          1   -1    0    0  501    0  0.00000000000E+00  0.00000000000E+00  0.24894793043E+03  0.24894793043E+03  0.00000000000E+00 0. -1.
         -1   -1    0    0    0  501 -0.00000000000E+00 -0.00000000000E+00 -0.61502374390E+02  0.61502374390E+02  0.00000000000E+00 0.  1.
         23    2    1    2    0    0  0.14842946742E+02  0.23885691385E+02  0.17778266954E+03  0.21285553396E+03  0.11362201118E+03 0.  0.
          5    1    3    3  502    0 -0.24915691547E+02  0.28678411323E+02  0.16670026896E+03  0.17103892140E+03  0.47000000000E+01 0. -1.
         -5    1    3    3    0  502  0.39758638290E+02 -0.47927199383E+01  0.11082400579E+02  0.41816612556E+02  0.47000000000E+01 0.  1.
        -11    1    1    2    0    0 -0.46798882376E+02  0.49926937543E+00 -0.16509495499E+02  0.49628097921E+02  0.00000000000E+00 0.  1.
         11    1    1    2    0    0  0.31955935634E+02 -0.24384960760E+02  0.26172381992E+02  0.47966672937E+02  0.00000000000E+00 0. -1.
<mgrwt>
<rscale>  0 0.11171245E+03</rscale>
<asrwt>0</asrwt>
<pdfrwt beam="1">  1        1 0.38299681E-01 0.11705042E+03</pdfrwt>
<pdfrwt beam="2">  1       -1 0.94619039E-02 0.11705042E+03</pdfrwt>
<totfact> 0.69414752E+03</totfact>
</mgrwt>
</event>
<event>
 7    1  0.5928109E-006  0.1585788E+03  0.7546771E-02  0.1195640E+00
          1   -1    0    0  501    0  0.00000000000E+00  0.00000000000E+00  0.98753299232E+02  0.98753299232E+02  0.00000000000E+00 0. -1.
         -1   -1    0    0    0  501 -0.00000000000E+00 -0.00000000000E+00 -0.23046075215E+03  0.23046075215E+03  0.00000000000E+00 0.  1.
         23    2    1    2    0    0 -0.64834604405E+02  0.72928358118E+02 -0.88969267926E+02  0.18183171714E+03  0.12500068550E+03 0.  0.
          5    1    3    3  502    0  0.32578661793E+02  0.47138357627E+02 -0.27868110130E+02  0.63891435469E+02  0.47000000000E+01 0. -1.
         -5    1    3    3    0  502 -0.97413266198E+02  0.25790000490E+02 -0.61101157796E+02  0.11794028167E+03  0.47000000000E+01 0. -1.
        -11    1    1    2    0    0  0.28520996454E+02 -0.92140858443E+02 -0.44580542816E+02  0.10625822242E+03  0.00000000000E+00 0.  1.
         11    1    1    2    0    0  0.36313607951E+02  0.19212500325E+02  0.18423578228E+01  0.41124111827E+02  0.00000000000E+00 0. -1.
<mgrwt>
<rscale>  0 0.15400219E+03</rscale>
<asrwt>0</asrwt>
<pdfrwt beam="1">  1        1 0.15192816E-01 0.15857882E+03</pdfrwt>
<pdfrwt beam="2">  1       -1 0.35455500E-01 0.15857882E+03</pdfrwt>
<totfact> 0.27289883E+03</totfact>
</mgrwt>
</event>
<event>
 7    1  0.5928109E-006  0.1340118E+03  0.7546771E-02  0.1234073E+00
          1   -1    0    0  501    0  0.00000000000E+00  0.00000000000E+00  0.14963133530E+03  0.14963133530E+03  0.00000000000E+00 0. -1.
         -1   -1    0    0    0  501 -0.00000000000E+00 -0.00000000000E+00 -0.96025154507E+02  0.96025154507E+02  0.00000000000E+00 0.  1.
         23    2    1    2    0    0 -0.42304370683E+02  0.23304031846E+02  0.13741743395E+02  0.13471454033E+03  0.12500573661E+03 0.  0.
          5    1    3    3  502    0  0.30036777979E+01 -0.34875240008E+02 -0.32127512526E+02  0.47744858436E+02  0.47000000000E+01 0.  1.
         -5    1    3    3    0  502 -0.45308048481E+02  0.58179271854E+02  0.45869255921E+02  0.86969681898E+02  0.47000000000E+01 0.  1.
        -11    1    1    2    0    0  0.20453226016E+02  0.20193015319E+02 -0.19078547103E+02  0.34497583708E+02  0.00000000000E+00 0.  1.
         11    1    1    2    0    0  0.21851144667E+02 -0.43497047165E+02  0.58942984498E+02  0.76444365763E+02  0.00000000000E+00 0. -1.
<mgrwt>
<rscale>  0 0.12563955E+03</rscale>
<asrwt>0</asrwt>
<pdfrwt beam="1">  1        1 0.23020206E-01 0.13401183E+03</pdfrwt>
<pdfrwt beam="2">  1       -1 0.14773101E-01 0.13401183E+03</pdfrwt>
<totfact> 0.66471103E+03</totfact>
</mgrwt>
</event>
<event>
 7    1  0.5928109E-006  0.1435087E+03  0.7546771E-02  0.1218698E+00
          1   -1    0    0  501    0  0.00000000000E+00  0.00000000000E+00  0.35012963349E+03  0.35012963349E+03  0.00000000000E+00 0. -1.
         -1   -1    0    0    0  501 -0.00000000000E+00 -0.00000000000E+00 -0.60975885708E+02  0.60975885708E+02  0.00000000000E+00 0.  1.
         23    2    1    2    0    0 -0.55496573546E+02  0.43460606048E+02  0.25069264013E+03  0.28886250832E+03  0.12500421971E+03 0.  0.
          5    1    3    3  502    0 -0.11850988559E+02  0.53410450239E+02  0.23478822951E+03  0.24112387862E+03  0.47000000000E+01 0. -1.
         -5    1    3    3    0  502 -0.43645584988E+02 -0.99498441905E+01  0.15904410618E+02  0.47738629698E+02  0.47000000000E+01 0. -1.
        -11    1    1    2    0    0 -0.44248971095E+01 -0.43171038642E+02 -0.10743716020E+02  0.44707334138E+02  0.00000000000E+00 0.  1.
         11    1    1    2    0    0  0.59921470656E+02 -0.28956740652E+00  0.49204823670E+02  0.77535676738E+02  0.00000000000E+00 0. -1.
<mgrwt>
<rscale>  0 0.13608362E+03</rscale>
<asrwt>0</asrwt>
<pdfrwt beam="1">  1        1 0.53866096E-01 0.14350871E+03</pdfrwt>
<pdfrwt beam="2">  1       -1 0.93809057E-02 0.14350871E+03</pdfrwt>
<totfact> 0.46709059E+03</totfact>
</mgrwt>
</event>
<event>
 7    1  0.5928109E-006  0.1459785E+03  0.7546771E-02  0.1214943E+00
          1   -1    0    0  501    0  0.00000000000E+00  0.00000000000E+00  0.10261772592E+03  0.10261772592E+03  0.00000000000E+00 0. -1.
         -1   -1    0    0    0  501 -0.00000000000E+00 -0.00000000000E+00 -0.17248194599E+03  0.17248194599E+03  0.00000000000E+00 0.  1.
         23    2    1    2    0    0 -0.75007117587E+02 -0.78226970159E+01 -0.28055534125E+02  0.14865006513E+03  0.12498986595E+03 0.  0.
          5    1    3    3  502    0 -0.55507307924E+02  0.46054837360E+02 -0.49155929490E+02  0.87409980444E+02  0.47000000000E+01 0.  1.
         -5    1    3    3    0  502 -0.19499809663E+02 -0.53877534376E+02  0.21100395364E+02  0.61240084682E+02  0.47000000000E+01 0.  1.
        -11    1    1    2    0    0  0.35763667023E+02 -0.59594265745E+01 -0.68165853910E+02  0.77208408112E+02  0.00000000000E+00 0.  1.
         11    1    1    2    0    0  0.39243450564E+02  0.13782123590E+02  0.26357167966E+02  0.49241198666E+02  0.00000000000E+00 0. -1.
<mgrwt>
<rscale>  0 0.13880699E+03</rscale>
<asrwt>0</asrwt>
<pdfrwt beam="1">  1        1 0.15787342E-01 0.14597852E+03</pdfrwt>
<pdfrwt beam="2">  1       -1 0.26535684E-01 0.14597852E+03</pdfrwt>
<totfact> 0.42192934E+03</totfact>
</mgrwt>
</event>
<event>
 7    1  0.9309037E-006  0.2985676E+03  0.7546771E-02  0.1087580E+00
         -1   -1    0    0    0  501 -0.00000000000E+00  0.00000000000E+00  0.71814350109E+02  0.71814350109E+02  0.00000000000E+00 0.  1.
          1   -1    0    0  501    0  0.00000000000E+00 -0.00000000000E+00 -0.18450282712E+04  0.18450282712E+04  0.00000000000E+00 0. -1.
         23    2    1    2    0    0  0.17086764081E+03  0.21052875697E+03 -0.14701321791E+04  0.15001437408E+04  0.12499804436E+03 0.  0.
          5    1    3    3  502    0  0.15622499004E+03  0.10981436000E+03 -0.10891835479E+04  0.11058066432E+04  0.47000000000E+01 0.  1.
         -5    1    3    3    0  502  0.14642650772E+02  0.10071439697E+03 -0.38094863120E+03  0.39433709766E+03  0.47000000000E+01 0.  1.
        -11    1    1    2    0    0 -0.85178553985E+02 -0.10084039878E+03 -0.21401972767E+03  0.25145300936E+03  0.00000000000E+00 0.  1.
         11    1    1    2    0    0 -0.85689086827E+02 -0.10968835819E+03 -0.89062014413E+02  0.16524587116E+03  0.00000000000E+00 0. -1.
<mgrwt>
<rscale>  0 0.29536737E+03</rscale>
<asrwt>0</asrwt>
<pdfrwt beam="2">  1        1 0.28385051E+00 0.29856761E+03</pdfrwt>
<pdfrwt beam="1">  1       -1 0.11048361E-01 0.29856761E+03</pdfrwt>
<totfact> 0.22130275E+02</totfact>
</mgrwt>
</event>
<event>
 7    1  0.5928109E-006  0.2876294E+03  0.7546771E-02  0.1093377E+00
          2   -1    0    0  501    0  0.00000000000E+00  0.00000000000E+00  0.10765030279E+04  0.10765030279E+04  0.00000000000E+00 0. -1.
         -2   -1    0    0    0  501 -0.00000000000E+00 -0.00000000000E+00 -0.73678763813E+02  0.73678763813E+02  0.00000000000E+00 0.  1.
         23    2    1    2    0    0  0.51509323891E+02  0.25387541077E+03  0.47578378346E+03  0.55596841125E+03  0.12499892425E+03 0.  0.
          5    1    3    3  502    0 -0.10784994359E+02  0.11706603136E+03  0.11250964836E+03  0.16279214592E+03  0.47000000000E+01 0. -1.
         -5    1    3    3    0  502  0.62294318250E+02  0.13680937941E+03  0.36327413511E+03  0.39317626533E+03  0.47000000000E+01 0. -1.
        -11    1    1    2    0    0 -0.37861298688E+02 -0.23489514686E+03  0.40303846381E+03  0.46802693434E+03  0.00000000000E+00 0.  1.
         11    1    1    2    0    0 -0.13648025203E+02 -0.18980263911E+02  0.12400201686E+03  0.12618644616E+03  0.00000000000E+00 0. -1.
<mgrwt>
<rscale>  0 0.28427404E+03</rscale>
<asrwt>0</asrwt>
<pdfrwt beam="1">  1        2 0.16561584E+00 0.28762939E+03</pdfrwt>
<pdfrwt beam="2">  1       -2 0.11335195E-01 0.28762939E+03</pdfrwt>
<totfact> 0.12800406E+03</totfact>
</mgrwt>
</event>
<event>
 7    1  0.5928109E-006  0.1256432E+03  0.7546771E-02  0.1249484E+00
          2   -1    0    0  501    0  0.00000000000E+00  0.00000000000E+00  0.64226261794E+03  0.64226261794E+03  0.00000000000E+00 0.  1.
         -2   -1    0    0    0  501 -0.00000000000E+00 -0.00000000000E+00 -0.20084553117E+02  0.20084553117E+02  0.00000000000E+00 0. -1.
         23    2    1    2    0    0 -0.55802152372E+01 -0.11343010652E+02  0.44930231609E+03  0.46653914653E+03  0.12500560511E+03 0.  0.
          5    1    3    3  502    0  0.17998411415E+02 -0.64507790655E+02  0.25202621382E+03  0.26081506920E+03  0.47000000000E+01 0. -1.
         -5    1    3    3    0  502 -0.23578626653E+02  0.53164780003E+02  0.19727610226E+03  0.20572407733E+03  0.47000000000E+01 0. -1.
        -11    1    1    2    0    0  0.13153965289E+02 -0.34391471319E+02  0.36822613031E+02  0.52074033191E+02  0.00000000000E+00 0. -1.
         11    1    1    2    0    0 -0.75737500522E+01  0.45734481971E+02  0.13605313570E+03  0.14373399134E+03  0.00000000000E+00 0.  1.
<mgrwt>
<rscale>  0 0.11620954E+03</rscale>
<asrwt>0</asrwt>
<pdfrwt beam="1">  1        2 0.98809618E-01 0.12564316E+03</pdfrwt>
<pdfrwt beam="2">  1       -2 0.30899317E-02 0.12564316E+03</pdfrwt>
<totfact> 0.17743737E+04</totfact>
</mgrwt>
</event>
<event>
 7    1  0.5928109E-006  0.1687733E+03  0.7546771E-02  0.1185761E+00
          2   -1    0    0  501    0  0.00000000000E+00  0.00000000000E+00  0.22221210582E+02  0.22221210582E+02  0.00000000000E+00 0.  1.
         -2   -1    0    0    0  501 -0.00000000000E+00 -0.00000000000E+00 -0.11205974235E+04  0.11205974235E+04  0.00000000000E+00 0. -1.
         23    2    1    2    0    0 -0.10174244640E+03 -0.50057830939E+02 -0.64165376294E+03  0.66347868637E+03  0.12500841545E+03 0.  0.
          5    1    3    3  502    0 -0.70351071185E+02 -0.42123392185E+02 -0.61717758579E+03  0.62261859577E+03  0.47000000000E+01 0.  1.
         -5    1    3    3    0  502 -0.31391375220E+02 -0.79344387534E+01 -0.24476177144E+02  0.40860090603E+02  0.47000000000E+01 0.  1.
        -11    1    1    2    0    0  0.34541841015E+02  0.54319486476E+02 -0.12230654238E+03  0.13821228491E+03  0.00000000000E+00 0.  1.
         11    1    1    2    0    0  0.67200605390E+02 -0.42616555375E+01 -0.33441590761E+03  0.34112766281E+03  0.00000000000E+00 0. -1.
<mgrwt>
<rscale>  0 0.16262841E+03</rscale>
<asrwt>0</asrwt>
<pdfrwt beam="1">  1        2 0.34186487E-02 0.16877327E+03</pdfrwt>
<pdfrwt beam="2">  1       -2 0.17239956E+00 0.16877327E+03</pdfrwt>
<totfact> 0.56584901E+02</totfact>
</mgrwt>
</event>
<event>
 7    1  0.5928109E-006  0.1279920E+03  0.7546771E-02  0.1238742E+00
         -2   -1    0    0    0  501 -0.00000000000E+00  0.00000000000E+00  0.74708441126E+02  0.74708441126E+02  0.00000000000E+00 0.  1.
          2   -1    0    0  501    0  0.00000000000E+00 -0.00000000000E+00 -0.21733689108E+03  0.21733689108E+03  0.00000000000E+00 0. -1.
         23    2    1    2    0    0 -0.18492682871E+02  0.20436250096E+02 -0.13140318180E+03  0.18343596557E+03  0.12498935010E+03 0.  0.
          5    1    3    3  502    0 -0.47805283408E+02 -0.32206343319E+02 -0.99523106568E+02  0.11510661324E+03  0.47000000000E+01 0. -1.
         -5    1    3    3    0  502  0.29312600537E+02  0.52642593415E+02 -0.31880075235E+02  0.68329352321E+02  0.47000000000E+01 0. -1.
        -11    1    1    2    0    0 -0.17778727161E+02  0.33952097601E+02  0.10470206083E+02  0.39729753163E+02  0.00000000000E+00 0.  1.
         11    1    1    2    0    0  0.36271410032E+02 -0.54388347696E+02 -0.21695474236E+02  0.68879613480E+02  0.00000000000E+00 0. -1.
<mgrwt>
<rscale>  0 0.12267921E+03</rscale>
<asrwt>0</asrwt>
<pdfrwt beam="2">  1        2 0.33436445E-01 0.12799202E+03</pdfrwt>
<pdfrwt beam="1">  1       -2 0.11493606E-01 0.12799202E+03</pdfrwt>
<totfact> 0.77867698E+03</totfact>
</mgrwt>
</event>
<event>
 7    1  0.5928109E-006  0.1418083E+03  0.7546771E-02  0.1221088E+00
         -2   -1    0    0    0  501 -0.00000000000E+00  0.00000000000E+00  0.38604630256E+02  0.38604630256E+02  0.00000000000E+00 0.  1.
          2   -1    0    0  501    0  0.00000000000E+00 -0.00000000000E+00 -0.47770829040E+03  0.47770829040E+03  0.00000000000E+00 0. -1.
         23    2    1    2    0    0 -0.65371709344E+02  0.14261426121E+02 -0.32578131567E+03  0.35530699261E+03  0.12503097495E+03 0.  0.
          5    1    3    3  502    0 -0.28447642708E+02  0.47203440305E+02 -0.48374012432E+02  0.73481754409E+02  0.47000000000E+01 0.  1.
         -5    1    3    3    0  502 -0.36924066636E+02 -0.32942014184E+02 -0.27740730324E+03  0.28182523820E+03  0.47000000000E+01 0.  1.
        -11    1    1    2    0    0  0.43029284801E+02 -0.53838533867E+02 -0.68847296085E+02  0.97416924903E+02  0.00000000000E+00 0.  1.
         11    1    1    2    0    0  0.22342424543E+02  0.39577107746E+02 -0.44475048389E+02  0.63589003147E+02  0.00000000000E+00 0. -1.
<mgrwt>
<rscale>  0 0.13438666E+03</rscale>
<asrwt>0</asrwt>
<pdfrwt beam="2">  1        2 0.73493575E-01 0.14180830E+03</pdfrwt>
<pdfrwt beam="1">  1       -2 0.59391745E-02 0.14180830E+03</pdfrwt>
<totfact> 0.94144278E+03</totfact>
</mgrwt>
</event>
<event>
 7    1  0.5928109E-006  0.1371327E+03  0.7546771E-02  0.1228731E+00
          1   -1    0    0  501    0  0.00000000000E+00  0.00000000000E+00  0.21619254614E+03  0.21619254614E+03  0.00000000000E+00 0. -1.
         -1   -1    0    0    0  501 -0.00000000000E+00 -0.00000000000E+00 -0.78140444001E+02  0.78140444001E+02  0.00000000000E+00 0.  1.
         23    2    1    2    0    0  0.52794490044E+02  0.19810819251E+02  0.12523160535E+03  0.18571034563E+03  0.12500260301E+03 0.  0.
          5    1    3    3  502    0  0.80149422223E+02  0.48545170323E+02  0.10539711185E+03  0.14110706797E+03  0.47000000000E+01 0.  1.
         -5    1    3    3    0  502 -0.27354932179E+02 -0.28734351072E+02  0.19834493502E+02  0.44603277666E+02  0.47000000000E+01 0.  1.
        -11    1    1    2    0    0 -0.15433209435E+02 -0.13987453549E+02  0.50876688573E+02  0.54975178493E+02  0.00000000000E+00 0. -1.
         11    1    1    2    0    0 -0.37361280610E+02 -0.58233657023E+01 -0.38056191783E+02  0.53647466016E+02  0.00000000000E+00 0.  1.
<mgrwt>
<rscale>  0 0.12914402E+03</rscale>
<asrwt>0</asrwt>
<pdfrwt beam="1">  1        1 0.33260391E-01 0.13713270E+03</pdfrwt>
<pdfrwt beam="2">  1       -1 0.12021607E-01 0.13713270E+03</pdfrwt>
<totfact> 0.57910388E+03</totfact>
</mgrwt>
</event>
<event>
 7    1  0.5928109E-006  0.1400422E+03  0.7546771E-02  0.1225279E+00
          1   -1    0    0  501    0  0.00000000000E+00  0.00000000000E+00  0.28018860153E+02  0.28018860153E+02  0.00000000000E+00 0. -1.
         -1   -1    0    0    0  501 -0.00000000000E+00 -0.00000000000E+00 -0.56305745448E+03  0.56305745448E+03  0.00000000000E+00 0.  1.
         23    2    1    2    0    0  0.79769392405E+01  0.62633702295E+02 -0.26034591969E+03  0.29562108905E+03  0.12500087268E+03 0.  0.
          5    1    3    3  502    0  0.18758492480E+02  0.91000118895E+02 -0.11937990642E+03  0.15134911541E+03  0.47000000000E+01 0. -1.
         -5    1    3    3    0  502 -0.10781553239E+02 -0.28366416600E+02 -0.14096601327E+03  0.14427197364E+03  0.47000000000E+01 0. -1.
        -11    1    1    2    0    0  0.17456869777E+02  0.17288090071E+02 -0.52646551480E+02  0.58097157792E+02  0.00000000000E+00 0. -1.
         11    1    1    2    0    0 -0.25433809018E+02 -0.79921792366E+02 -0.22204612316E+03  0.23735806779E+03  0.00000000000E+00 0.  1.
<mgrwt>
<rscale>  0 0.13147792E+03</rscale>
<asrwt>0</asrwt>
<pdfrwt beam="1">  1        1 0.43105938E-02 0.14004225E+03</pdfrwt>
<pdfrwt beam="2">  1       -1 0.86624224E-01 0.14004225E+03</pdfrwt>
<totfact> 0.27313516E+03</totfact>
</mgrwt>
</event>
<event>
 7    1  0.5928109E-006  0.1335935E+03  0.7546771E-02  0.1234562E+00
         -2   -1    0    0    0  501 -0.00000000000E+00  0.00000000000E+00  0.31638886620E+02  0.31638886620E+02  0.00000000000E+00 0.  1.
          2   -1    0    0  501    0  0.00000000000E+00 -0.00000000000E+00 -0.57105528778E+03  0.57105528778E+03  0.00000000000E+00 0. -1.
         23    2    1    2    0    0 -0.37868316495E+02  0.28084770202E+02 -0.43758175636E+03  0.45752051247E+03  0.12499784846E+03 0.  0.
          5    1    3    3  502    0 -0.25527026930E+02  0.55836745544E+02 -0.41459191646E+03  0.41913949761E+03  0.47000000000E+01 0. -1.
         -5    1    3    3    0  502 -0.12341289566E+02 -0.27751975342E+02 -0.22989839897E+02  0.38381014864E+02  0.47000000000E+01 0. -1.
        -11    1    1    2    0    0 -0.21447933604E+02 -0.36311492898E+02 -0.30558980549E+02  0.52080607375E+02  0.00000000000E+00 0.  1.
         11    1    1    2    0    0  0.59316250099E+02  0.82267226964E+01 -0.71275664255E+02  0.93093054559E+02  0.00000000000E+00 0. -1.
<mgrwt>
<rscale>  0 0.12532504E+03</rscale>
<asrwt>0</asrwt>
<pdfrwt beam="2">  1        2 0.87854654E-01 0.13359351E+03</pdfrwt>
<pdfrwt beam="1">  1       -2 0.48675213E-02 0.13359351E+03</pdfrwt>
<totfact> 0.10388029E+04</totfact>
</mgrwt>
</event>
<event>
 7    1  0.5928109E-006  0.1302429E+03  0.7546771E-02  0.1263866E+00
         -4   -1    0    0    0  501 -0.00000000000E+00  0.00000000000E+00  0.71001741563E+02  0.71001741563E+02  0.00000000000E+00 0.  1.
          4   -1    0    0  501    0  0.00000000000E+00 -0.00000000000E+00 -0.14584348489E+03  0.14584348489E+03  0.00000000000E+00 0. -1.
         23    2    1    2    0    0  0.55321483402E+02 -0.22774087710E+02 -0.82614687346E+02  0.15423486060E+03  0.11568958494E+03 0.  0.
          5    1    3    3  502    0  0.36294693981E+02  0.86998481085E+01 -0.10457992489E+03  0.11113974473E+03  0.47000000000E+01 0. -1.
         -5    1    3    3    0  502  0.19026789421E+02 -0.31473935819E+02  0.21965237547E+02  0.43095115873E+02  0.47000000000E+01 0.  1.
        -11    1    1    2    0    0 -0.10838357667E+02  0.72289666574E+01  0.83708724404E+01  0.15485459673E+02  0.00000000000E+00 0.  1.
         11    1    1    2    0    0 -0.44483125735E+02  0.15545121053E+02 -0.59792842098E+00  0.47124906176E+02  0.00000000000E+00 0. -1.
<mgrwt>
<rscale>  0 0.10823901E+03</rscale>
<asrwt>0</asrwt>
<pdfrwt beam="2">  1        4 0.22437459E-01 0.13024287E+03</pdfrwt>
<pdfrwt beam="1">  1       -4 0.10923345E-01 0.13024287E+03</pdfrwt>
<totfact> 0.19447092E+03</totfact>
</mgrwt>
</event>
<event>
 7    1  0.5928109E-006  0.1455001E+03  0.7546771E-02  0.1215999E+00
          2   -1    0    0  501    0  0.00000000000E+00  0.00000000000E+00  0.32512888518E+02  0.32512888518E+02  0.00000000000E+00 0. -1.
         -2   -1    0    0    0  501 -0.00000000000E+00 -0.00000000000E+00 -0.54682169773E+03  0.54682169773E+03  0.00000000000E+00 0.  1.
         23    2    1    2    0    0  0.40748050671E+02 -0.62317849117E+02 -0.23818139238E+03  0.27910689253E+03  0.12500545519E+03 0.  0.
          5    1    3    3  502    0  0.42168364600E+02 -0.89412740822E+02 -0.22998662624E+03  0.25037721031E+03  0.47000000000E+01 0. -1.
         -5    1    3    3    0  502 -0.14203139290E+01  0.27094891705E+02 -0.81947661429E+01  0.28729682217E+02  0.47000000000E+01 0. -1.
        -11    1    1    2    0    0 -0.30112398796E+02 -0.11031196706E+02 -0.32839528058E+02  0.45900745801E+02  0.00000000000E+00 0. -1.
         11    1    1    2    0    0 -0.10635651875E+02  0.73349045823E+02 -0.24328788877E+03  0.25432694792E+03  0.00000000000E+00 0.  1.
<mgrwt>
<rscale>  0 0.13803414E+03</rscale>
<asrwt>0</asrwt>
<pdfrwt beam="1">  1        2 0.50019830E-02 0.14550011E+03</pdfrwt>
<pdfrwt beam="2">  1       -2 0.84126413E-01 0.14550011E+03</pdfrwt>
<totfact> 0.19320479E+03</totfact>
</mgrwt>
</event>
<event>
 7    1  0.5928109E-006  0.1326571E+03  0.7546771E-02  0.1237897E+00
          2   -1    0    0  501    0  0.00000000000E+00  0.00000000000E+00  0.80888412718E+03  0.80888412718E+03  0.00000000000E+00 0. -1.
         -2   -1    0    0    0  501 -0.00000000000E+00 -0.00000000000E+00 -0.17193452197E+02  0.17193452197E+02  0.00000000000E+00 0.  1.
         23    2    1    2    0    0 -0.19024361992E+02  0.40153765462E+02  0.53114072356E+03  0.54745628073E+03  0.12499463932E+03 0.  0.
          5    1    3    3  502    0  0.59381548516E+01  0.23154074738E-01 -0.50910810689E+01  0.91253123564E+01  0.47000000000E+01 0.  1.
         -5    1    3    3    0  502 -0.24962516844E+02  0.40130611387E+02  0.53623180463E+03  0.53833096837E+03  0.47000000000E+01 0.  1.
        -11    1    1    2    0    0  0.25962021808E+02  0.19960867927E+02  0.13944945749E+03  0.14324319886E+03  0.00000000000E+00 0. -1.
         11    1    1    2    0    0 -0.69376598159E+01 -0.60114633388E+02  0.12110049394E+03  0.13537809979E+03  0.00000000000E+00 0.  1.
<mgrwt>
<rscale>  0 0.12320762E+03</rscale>
<asrwt>0</asrwt>
<pdfrwt beam="1">  1        2 0.12444368E+00 0.13265712E+03</pdfrwt>
<pdfrwt beam="2">  1       -2 0.26451471E-02 0.13265712E+03</pdfrwt>
<totfact> 0.16977057E+04</totfact>
</mgrwt>
</event>
<event>
 6    1  0.5928109E-006  0.1864679E+03  0.7546771E-02  0.1188187E+00
          1   -1    0    0  501    0  0.00000000000E+00  0.00000000000E+00  0.36744079930E+03  0.36744079930E+03  0.00000000000E+00 0. -1.
         -1   -1    0    0    0  501 -0.00000000000E+00 -0.00000000000E+00 -0.57162897318E+02  0.57162897318E+02  0.00000000000E+00 0.  1.
          5    1    1    2  502    0 -0.61272362979E+02  0.14841358904E+02  0.22131612699E+03  0.23016838720E+03  0.47000000000E+01 0. -1.
         -5    1    1    2    0  502  0.42223339761E+02  0.37637260463E+02 -0.31283594770E+01  0.56844088776E+02  0.47000000000E+01 0.  1.
        -11    1    1    2    0    0 -0.18271375186E+02 -0.37681880890E+02  0.87724605722E+02  0.97207889328E+02  0.00000000000E+00 0. -1.
         11    1    1    2    0    0  0.37320398404E+02 -0.14796738478E+02  0.43655287417E+01  0.40383331311E+02  0.00000000000E+00 0.  1.
<mgrwt>
<rscale>  0 0.16045247E+03</rscale>
<asrwt>0</asrwt>
<pdfrwt beam="1">  1        1 0.56529352E-01 0.18646785E+03</pdfrwt>
<pdfrwt beam="2">  1       -1 0.87942921E-02 0.18646785E+03</pdfrwt>
<totfact> 0.49159374E+03</totfact>
</mgrwt>
</event>
<event>
 7    1  0.5928109E-006  0.2004797E+03  0.7546771E-02  0.1153637E+00
          1   -1    0    0  501    0  0.00000000000E+00  0.00000000000E+00  0.64328944589E+03  0.64328944589E+03  0.00000000000E+00 0. -1.
         -1   -1    0    0    0  501 -0.00000000000E+00 -0.00000000000E+00 -0.56610079639E+02  0.56610079639E+02  0.00000000000E+00 0.  1.
         23    2    1    2    0    0 -0.76297737948E+02 -0.13691530619E+03  0.31563897301E+03  0.37392524252E+03  0.12499991931E+03 0.  0.
          5    1    3    3  502    0 -0.56160541902E+02  0.11991643373E+00  0.55080975577E+02  0.78803710047E+02  0.47000000000E+01 0. -1.
         -5    1    3    3    0  502 -0.20137196046E+02 -0.13703522262E+03  0.26055799743E+03  0.29512153247E+03  0.47000000000E+01 0. -1.
        -11    1    1    2    0    0  0.14952954227E+02 -0.10380214264E+02  0.51151666832E+02  0.54293947250E+02  0.00000000000E+00 0. -1.
         11    1    1    2    0    0  0.61344783721E+02  0.14729552045E+03  0.21988872641E+03  0.27168033575E+03  0.00000000000E+00 0.  1.
<mgrwt>
<rscale>  0 0.19544791E+03</rscale>
<asrwt>0</asrwt>
<pdfrwt beam="1">  1        1 0.98967602E-01 0.20047974E+03</pdfrwt>
<pdfrwt beam="2">  1       -1 0.87092435E-02 0.20047974E+03</pdfrwt>
<totfact> 0.23873706E+03</totfact>
</mgrwt>
</event>
<event>
 7    1  0.5928109E-006  0.1413283E+03  0.7546771E-02  0.1222098E+00
         -1   -1    0    0    0  501 -0.00000000000E+00  0.00000000000E+00  0.19081191730E+03  0.19081191730E+03  0.00000000000E+00 0.  1.
          1   -1    0    0  501    0  0.00000000000E+00 -0.00000000000E+00 -0.85901867804E+02  0.85901867804E+02  0.00000000000E+00 0. -1.
         23    2    1    2    0    0 -0.22390324298E+02 -0.61987363145E+02  0.42825211733E+02  0.14767428299E+03  0.12501973958E+03 0.  0.
          5    1    3    3  502    0 -0.34202983466E+02 -0.34371741967E+02  0.83632603573E+02  0.96787205271E+02  0.47000000000E+01 0. -1.
         -5    1    3    3    0  502  0.11812659168E+02 -0.27615621178E+02 -0.40807391840E+02  0.50887077716E+02  0.47000000000E+01 0. -1.
        -11    1    1    2    0    0  0.46296896836E+02  0.21291186310E+02  0.63991594488E+02  0.81802453730E+02  0.00000000000E+00 0.  1.
         11    1    1    2    0    0 -0.23906572538E+02  0.40696176834E+02 -0.19067567223E+01  0.47237048391E+02  0.00000000000E+00 0. -1.
<mgrwt>
<rscale>  0 0.13367771E+03</rscale>
<asrwt>0</asrwt>
<pdfrwt beam="2">  1        1 0.13215672E-01 0.14132832E+03</pdfrwt>
<pdfrwt beam="1">  1       -1 0.29355680E-01 0.14132832E+03</pdfrwt>
<totfact> 0.44837659E+03</totfact>
</mgrwt>
</event>
<event>
 7    1  0.5928109E-006  0.1315093E+03  0.7546771E-02  0.1239206E+00
          1   -1    0    0  501    0  0.00000000000E+00  0.00000000000E+00  0.48652692849E+03  0.48652692849E+03  0.00000000000E+00 0. -1.
         -1   -1    0    0    0  501 -0.00000000000E+00 -0.00000000000E+00 -0.38248437334E+02  0.38248437334E+02  0.00000000000E+00 0.  1.
         23    2    1    2    0    0 -0.34574606452E+02 -0.21781456223E+02  0.38677449831E+03  0.40852076131E+03  0.12499945854E+03 0.  0.
          5    1    3    3  502    0 -0.33786066071E+02 -0.68207959895E+02  0.30476126978E+03  0.31415815382E+03  0.47000000000E+01 0.  1.
         -5    1    3    3    0  502 -0.78854038168E+00  0.46426503671E+02  0.82013228536E+02  0.94362607498E+02  0.47000000000E+01 0.  1.
        -11    1    1    2    0    0  0.56919283580E+02  0.34041170490E+02  0.61962963247E+02  0.90763511093E+02  0.00000000000E+00 0. -1.
         11    1    1    2    0    0 -0.22344677127E+02 -0.12259714267E+02 -0.45897040062E+00  0.25491093418E+02  0.00000000000E+00 0.  1.
<mgrwt>
<rscale>  0 0.12238969E+03</rscale>
<asrwt>0</asrwt>
<pdfrwt beam="1">  1        1 0.74850293E-01 0.13150931E+03</pdfrwt>
<pdfrwt beam="2">  1       -1 0.58843753E-02 0.13150931E+03</pdfrwt>
<totfact> 0.61770166E+03</totfact>
</mgrwt>
</event>
<event>
 7    1  0.5928109E-006  0.1281682E+03  0.7546771E-02  0.1244379E+00
         -2   -1    0    0    0  501 -0.00000000000E+00  0.00000000000E+00  0.11877499896E+03  0.11877499896E+03  0.00000000000E+00 0.  1.
          2   -1    0    0  501    0  0.00000000000E+00 -0.00000000000E+00 -0.11145351285E+03  0.11145351285E+03  0.00000000000E+00 0. -1.
         23    2    1    2    0    0  0.25702757600E+02 -0.12287579018E+02 -0.21640247140E+02  0.12998226970E+03  0.12496188936E+03 0.  0.
          5    1    3    3  502    0  0.25904637546E+02 -0.10480528171E+02  0.50371145618E+02  0.57794757790E+02  0.47000000000E+01 0.  1.
         -5    1    3    3    0  502 -0.20187994687E+00 -0.18070508476E+01 -0.72011392758E+02  0.72187511907E+02  0.47000000000E+01 0.  1.
        -11    1    1    2    0    0 -0.56423693549E+02 -0.85672576460E+01  0.26807534270E+02  0.63052953864E+02  0.00000000000E+00 0.  1.
         11    1    1    2    0    0  0.30720935950E+02  0.20854836664E+02  0.21541989822E+01  0.37193288254E+02  0.00000000000E+00 0. -1.
<mgrwt>
<rscale>  0 0.11922595E+03</rscale>
<asrwt>0</asrwt>
<pdfrwt beam="2">  1        2 0.17146694E-01 0.12816821E+03</pdfrwt>
<pdfrwt beam="1">  1       -2 0.18273077E-01 0.12816821E+03</pdfrwt>
<totfact> 0.76758396E+03</totfact>
</mgrwt>
</event>
<event>
 7    1  0.5928109E-006  0.1439244E+03  0.7546771E-02  0.1219087E+00
         -1   -1    0    0    0  501 -0.00000000000E+00  0.00000000000E+00  0.13132153403E+03  0.13132153403E+03  0.00000000000E+00 0.  1.
          1   -1    0    0  501    0  0.00000000000E+00 -0.00000000000E+00 -0.15093440188E+03  0.15093440188E+03  0.00000000000E+00 0. -1.
         23    2    1    2    0    0  0.55935032733E+02  0.44301394957E+02 -0.66945915745E+02  0.15873240618E+03  0.12499151833E+03 0.  0.
          5    1    3    3  502    0  0.13212932564E+02 -0.10498474023E+02 -0.84999863358E+02  0.86786325620E+02  0.47000000000E+01 0.  1.
         -5    1    3    3    0  502  0.42722100170E+02  0.54799868980E+02  0.18053947613E+02  0.71946080558E+02  0.47000000000E+01 0.  1.
        -11    1    1    2    0    0  0.20746434956E+02 -0.31539986942E+01  0.26928510705E+02  0.34139521964E+02  0.00000000000E+00 0. -1.
         11    1    1    2    0    0 -0.76681467690E+02 -0.41147396263E+02  0.20404537197E+02  0.89384007767E+02  0.00000000000E+00 0.  1.
<mgrwt>
<rscale>  0 0.13580548E+03</rscale>
<asrwt>0</asrwt>
<pdfrwt beam="2">  1        1 0.23220677E-01 0.14392436E+03</pdfrwt>
<pdfrwt beam="1">  1       -1 0.20203313E-01 0.14392436E+03</pdfrwt>
<totfact> 0.40192829E+03</totfact>
</mgrwt>
</event>
<event>
 7    1  0.5928109E-006  0.1250313E+03  0.7546771E-02  0.1250490E+00
         -2   -1    0    0    0  501 -0.00000000000E+00  0.00000000000E+00  0.78418871597E+02  0.78418871597E+02  0.00000000000E+00 0.  1.
          2   -1    0    0  501    0  0.00000000000E+00 -0.00000000000E+00 -0.15359648109E+03  0.15359648109E+03  0.00000000000E+00 0. -1.
         23    2    1    2    0    0 -0.21060442522E+01 -0.17836054951E+01 -0.62199500122E+02  0.13964817553E+03  0.12500087377E+03 0.  0.
          5    1    3    3  502    0  0.94013108973E+00 -0.62509985436E+02 -0.21274201750E+02  0.66204711206E+02  0.47000000000E+01 0. -1.
         -5    1    3    3    0  502 -0.30461753420E+01  0.60726379941E+02 -0.40925298372E+02  0.73443464323E+02  0.47000000000E+01 0. -1.
        -11    1    1    2    0    0  0.37186505970E+02 -0.77163395079E+01  0.20322362988E+02  0.43074082220E+02  0.00000000000E+00 0.  1.
         11    1    1    2    0    0 -0.35080461718E+02  0.94999450030E+01 -0.33300472361E+02  0.49293094941E+02  0.00000000000E+00 0. -1.
<mgrwt>
<rscale>  0 0.11562750E+03</rscale>
<asrwt>0</asrwt>
<pdfrwt beam="2">  1        2 0.23630228E-01 0.12503134E+03</pdfrwt>
<pdfrwt beam="1">  1       -2 0.12064442E-01 0.12503134E+03</pdfrwt>
<totfact> 0.10497790E+04</totfact>
</mgrwt>
</event>
<event>
 7    1  0.5928109E-006  0.1259389E+03  0.7546771E-02  0.1248474E+00
         -2   -1    0    0    0  501 -0.00000000000E+00  0.00000000000E+00  0.10957689259E+03  0.10957689259E+03  0.00000000000E+00 0.  1.
          2   -1    0    0  501    0  0.00000000000E+00 -0.00000000000E+00 -0.11208608379E+03  0.11208608379E+03  0.00000000000E+00 0. -1.
         23    2    1    2    0    0  0.52262840668E+01  0.14397519395E+02  0.15115041558E+02  0.12684272170E+03  0.12500403577E+03 0.  0.
          5    1    3    3  502    0 -0.25220222256E+02 -0.47040333518E+02 -0.83299948261E+01  0.54224822747E+02  0.47000000000E+01 0.  1.
         -5    1    3    3    0  502  0.30446506323E+02  0.61437852913E+02  0.23445036384E+02  0.72617898956E+02  0.47000000000E+01 0.  1.
        -11    1    1    2    0    0  0.16181018381E+02  0.31976968645E+02 -0.24313515403E+02  0.43307030732E+02  0.00000000000E+00 0. -1.
         11    1    1    2    0    0 -0.21407302448E+02 -0.46374488040E+02  0.66892826473E+01  0.51513223947E+02  0.00000000000E+00 0.  1.
<mgrwt>
<rscale>  0 0.11679832E+03</rscale>
<asrwt>0</asrwt>
<pdfrwt beam="2">  1        2 0.17244013E-01 0.12593892E+03</pdfrwt>
<pdfrwt beam="1">  1       -2 0.16857983E-01 0.12593892E+03</pdfrwt>
<totfact> 0.87064778E+03</totfact>
</mgrwt>
</event>
<event>
 7    1  0.5928109E-006  0.1256756E+03  0.7546771E-02  0.1249772E+00
          1   -1    0    0  501    0  0.00000000000E+00  0.00000000000E+00  0.49197761361E+03  0.49197761361E+03  0.00000000000E+00 0.  1.
         -1   -1    0    0    0  501 -0.00000000000E+00 -0.00000000000E+00 -0.41967666765E+02  0.41967666765E+02  0.00000000000E+00 0. -1.
         23    2    1    2    0    0  0.12859311991E+02  0.18802153490E+01  0.41905023348E+03  0.43748996079E+03  0.12500188198E+03 0.  0.
          5    1    3    3  502    0 -0.22389573136E+02 -0.53903595440E+02  0.16996846131E+03  0.17977279668E+03  0.47000000000E+01 0.  1.
         -5    1    3    3    0  502  0.35248885127E+02  0.55783810789E+02  0.24908177218E+03  0.25771716412E+03  0.47000000000E+01 0.  1.
        -11    1    1    2    0    0  0.11711191178E+02  0.95573449225E+01  0.56939807517E+02  0.58912108440E+02  0.00000000000E+00 0.  1.
         11    1    1    2    0    0 -0.24570503169E+02 -0.11437560271E+02 -0.25980094152E+02  0.37543211145E+02  0.00000000000E+00 0. -1.
<mgrwt>
<rscale>  0 0.11604260E+03</rscale>
<asrwt>0</asrwt>
<pdfrwt beam="1">  1        1 0.75688860E-01 0.12567564E+03</pdfrwt>
<pdfrwt beam="2">  1       -1 0.64565645E-02 0.12567564E+03</pdfrwt>
<totfact> 0.52887395E+03</totfact>
</mgrwt>
</event>
<event>
 7    1  0.5928109E-006  0.1436643E+03  0.7546771E-02  0.1218552E+00
         -2   -1    0    0    0  501 -0.00000000000E+00  0.00000000000E+00  0.28266576550E+02  0.28266576550E+02  0.00000000000E+00 0. -1.
          2   -1    0    0  501    0  0.00000000000E+00 -0.00000000000E+00 -0.71273692428E+03  0.71273692428E+03  0.00000000000E+00 0.  1.
         23    2    1    2    0    0  0.70154619280E+02 -0.10832101730E+02 -0.52169891646E+03  0.54111847141E+03  0.12490170387E+03 0.  0.
          5    1    3    3  502    0 -0.92713513986E+01 -0.50773440230E+02 -0.14318833225E+03  0.15227898306E+03  0.47000000000E+01 0. -1.
         -5    1    3    3    0  502  0.79425970679E+02  0.39941338500E+02 -0.37851058421E+03  0.38883948835E+03  0.47000000000E+01 0. -1.
        -11    1    1    2    0    0 -0.17094160168E+02 -0.30432251504E+02 -0.10698033069E+03  0.11253054428E+03  0.00000000000E+00 0.  1.
         11    1    1    2    0    0 -0.53060459112E+02  0.41264353234E+02 -0.55791100585E+02  0.87354485137E+02  0.00000000000E+00 0. -1.
<mgrwt>
<rscale>  0 0.13618845E+03</rscale>
<asrwt>0</asrwt>
<pdfrwt beam="2">  1        2 0.10965183E+00 0.14366433E+03</pdfrwt>
<pdfrwt beam="1">  1       -2 0.43487042E-02 0.14366433E+03</pdfrwt>
<totfact> 0.95570412E+03</totfact>
</mgrwt>
</event>
<event>
 7    1  0.5928109E-006  0.1300094E+03  0.7546771E-02  0.1240493E+00
         -1   -1    0    0    0  501 -0.00000000000E+00  0.00000000000E+00  0.13668518458E+03  0.13668518458E+03  0.00000000000E+00 0.  1.
          1   -1    0    0  501    0  0.00000000000E+00 -0.00000000000E+00 -0.10921246809E+03  0.10921246809E+03  0.00000000000E+00 0. -1.
         23    2    1    2    0    0 -0.16828232503E+02  0.31530932196E+02 -0.26565574253E+02  0.13269583015E+03  0.12500025803E+03 0.  0.
          5    1    3    3  502    0 -0.41592183239E+02  0.42017511416E+02  0.32497790840E+02  0.67628229177E+02  0.47000000000E+01 0. -1.
         -5    1    3    3    0  502  0.24763950736E+02 -0.10486579219E+02 -0.59063365093E+02  0.65067600969E+02  0.47000000000E+01 0. -1.
        -11    1    1    2    0    0 -0.17199147220E+02 -0.23594259963E+02 -0.17177876782E+02  0.33875938645E+02  0.00000000000E+00 0. -1.
         11    1    1    2    0    0  0.34027379723E+02 -0.79366722330E+01  0.71216167523E+02  0.79325883882E+02  0.00000000000E+00 0.  1.
<mgrwt>
<rscale>  0 0.12159213E+03</rscale>
<asrwt>0</asrwt>
<pdfrwt beam="2">  1        1 0.16801918E-01 0.13000944E+03</pdfrwt>
<pdfrwt beam="1">  1       -1 0.21028490E-01 0.13000944E+03</pdfrwt>
<totfact> 0.56531168E+03</totfact>
</mgrwt>
</event>
<event>
 6    1  0.5928109E-006  0.3008396E+03  0.7546771E-02  0.1102056E+00
         -2   -1    0    0    0  501 -0.00000000000E+00  0.00000000000E+00  0.10979159805E+03  0.10979159805E+03  0.00000000000E+00 0.  1.
          2   -1    0    0  501    0  0.00000000000E+00 -0.00000000000E+00 -0.57344789236E+03  0.57344789236E+03  0.00000000000E+00 0. -1.
          5    1    1    2  502    0  0.32300021447E+02 -0.57070986813E+02 -0.34008294787E+03  0.34637969103E+03  0.47000000000E+01 0. -1.
         -5    1    1    2    0  502  0.10484342331E+03 -0.40278900550E+02 -0.65603300231E+01  0.11260400157E+03  0.47000000000E+01 0.  1.
        -11    1    1    2    0    0 -0.12577202104E+03  0.11359213247E+03 -0.11388050151E+03  0.20418262036E+03  0.00000000000E+00 0.  1.
         11    1    1    2    0    0 -0.11371423714E+02 -0.16242245104E+02 -0.31325149030E+01  0.20073177449E+02  0.00000000000E+00 0. -1.
<mgrwt>
<rscale>  0 0.26864845E+03</rscale>
<asrwt>0</asrwt>
<pdfrwt beam="2">  1        2 0.88222753E-01 0.30083961E+03</pdfrwt>
<pdfrwt beam="1">  1       -2 0.16891015E-01 0.30083961E+03</pdfrwt>
<totfact> 0.14933928E+03</totfact>
</mgrwt>
</event>
<event>
 7    1  0.5928109E-006  0.1538514E+03  0.7546771E-02  0.1204388E+00
          2   -1    0    0  501    0  0.00000000000E+00  0.00000000000E+00  0.88227507476E+03  0.88227507476E+03  0.00000000000E+00 0. -1.
         -2   -1    0    0    0  501 -0.00000000000E+00 -0.00000000000E+00 -0.24061461771E+02  0.24061461771E+02  0.00000000000E+00 0.  1.
         23    2    1    2    0    0  0.84405550000E+02  0.30355831733E+02  0.58248641203E+03  0.60246217577E+03  0.12499791852E+03 0.  0.
          5    1    3    3  502    0  0.94680654308E+02  0.19468974660E+02  0.57813588514E+03  0.58617971558E+03  0.47000000000E+01 0.  1.
         -5    1    3    3    0  502 -0.10275104308E+02  0.10886857073E+02  0.43505268974E+01  0.16282460188E+02  0.47000000000E+01 0.  1.
        -11    1    1    2    0    0 -0.13334134898E+02 -0.20519226184E+02  0.65976260852E+01  0.25344949529E+02  0.00000000000E+00 0.  1.
         11    1    1    2    0    0 -0.71071415102E+02 -0.98366055482E+01  0.26912957487E+03  0.27852941123E+03  0.00000000000E+00 0. -1.
<mgrwt>
<rscale>  0 0.14685766E+03</rscale>
<asrwt>0</asrwt>
<pdfrwt beam="1">  1        2 0.13573460E+00 0.15385140E+03</pdfrwt>
<pdfrwt beam="2">  1       -2 0.37017640E-02 0.15385140E+03</pdfrwt>
<totfact> 0.93489136E+03</totfact>
</mgrwt>
</event>
<event>
 7    1  0.5928109E-006  0.1288276E+03  0.7546771E-02  0.1242627E+00
          3   -1    0    0  501    0  0.00000000000E+00  0.00000000000E+00  0.63865475983E+02  0.63865475983E+02  0.00000000000E+00 0. -1.
         -3   -1    0    0    0  501 -0.00000000000E+00 -0.00000000000E+00 -0.29870278923E+03  0.29870278923E+03  0.00000000000E+00 0.  1.
         23    2    1    2    0    0 -0.36193266986E+01 -0.30958321282E+02 -0.25305904898E+02  0.13128956086E+03  0.12500017114E+03 0.  0.
          5    1    3    3  502    0  0.87967722824E+01  0.25334969673E+02 -0.58555276661E+02  0.64575957723E+02  0.47000000000E+01 0. -1.
         -5    1    3    3    0  502 -0.12416098981E+02 -0.56293290956E+02  0.33249371764E+02  0.66713603135E+02  0.47000000000E+01 0. -1.
        -11    1    1    2    0    0  0.17644201083E+02  0.52968497721E+02 -0.19171439928E+03  0.19967821733E+03  0.00000000000E+00 0.  1.
         11    1    1    2    0    0 -0.14024874385E+02 -0.22010176438E+02 -0.17817009066E+02  0.31600487028E+02  0.00000000000E+00 0. -1.
<mgrwt>
<rscale>  0 0.12028567E+03</rscale>
<asrwt>0</asrwt>
<pdfrwt beam="1">  1        3 0.98254580E-02 0.12882764E+03</pdfrwt>
<pdfrwt beam="2">  1       -3 0.45954275E-01 0.12882764E+03</pdfrwt>
<totfact> 0.82313845E+02</totfact>
</mgrwt>
</event>
<event>
 7    1  0.5928109E-006  0.1565275E+03  0.7546771E-02  0.1201480E+00
         -2   -1    0    0    0  501 -0.00000000000E+00  0.00000000000E+00  0.34965543894E+02  0.34965543894E+02  0.00000000000E+00 0. -1.
          2   -1    0    0  501    0  0.00000000000E+00 -0.00000000000E+00 -0.71295494631E+03  0.71295494631E+03  0.00000000000E+00 0.  1.
         23    2    1    2    0    0  0.88174336804E+02  0.33158689681E+02 -0.52430520208E+03  0.54717165064E+03  0.12500663169E+03 0.  0.
          5    1    3    3  502    0 -0.10746621369E+02  0.50336267592E+02 -0.24336698957E+03  0.24879471723E+03  0.47000000000E+01 0.  1.
         -5    1    3    3    0  502  0.98920958173E+02 -0.17177577910E+02 -0.28093821250E+03  0.29837693341E+03  0.47000000000E+01 0.  1.
        -11    1    1    2    0    0 -0.69744065152E+02  0.15984932022E+02 -0.11540480412E+03  0.13578667640E+03  0.00000000000E+00 0.  1.
         11    1    1    2    0    0 -0.18430271652E+02 -0.49143621703E+02 -0.38279396224E+02  0.64962163161E+02  0.00000000000E+00 0. -1.
<mgrwt>
<rscale>  0 0.14918381E+03</rscale>
<asrwt>0</asrwt>
<pdfrwt beam="2">  1        2 0.10968537E+00 0.15652754E+03</pdfrwt>
<pdfrwt beam="1">  1       -2 0.53793148E-02 0.15652754E+03</pdfrwt>
<totfact> 0.69730704E+03</totfact>
</mgrwt>
</event>
<event>
 7    1  0.5928109E-006  0.1351098E+03  0.7546771E-02  0.1234983E+00
         -3   -1    0    0    0  501 -0.00000000000E+00  0.00000000000E+00  0.72677492299E+03  0.72677492299E+03  0.00000000000E+00 0.  1.
          3   -1    0    0  501    0  0.00000000000E+00 -0.00000000000E+00 -0.19962505808E+02  0.19962505808E+02  0.00000000000E+00 0. -1.
         23    2    1    2    0    0 -0.11059654859E+02  0.50082662559E+02  0.31868536753E+03  0.34614305122E+03  0.12499623744E+03 0.  0.
          5    1    3    3  502    0  0.10809418529E+02  0.89033383449E+02  0.19985750961E+03  0.21910933582E+03  0.47000000000E+01 0.  1.
         -5    1    3    3    0  502 -0.21869073388E+02 -0.38950720890E+02  0.11882785792E+03  0.12703371540E+03  0.47000000000E+01 0.  1.
        -11    1    1    2    0    0  0.43346698232E+02 -0.49533326867E+01  0.17679977773E+03  0.18210335845E+03  0.00000000000E+00 0.  1.
         11    1    1    2    0    0 -0.32287043373E+02 -0.45129329872E+02  0.21132727191E+03  0.21849101913E+03  0.00000000000E+00 0. -1.
<mgrwt>
<rscale>  0 0.12505532E+03</rscale>
<asrwt>0</asrwt>
<pdfrwt beam="2">  1        3 0.30711553E-02 0.13510976E+03</pdfrwt>
<pdfrwt beam="1">  1       -3 0.11181151E+00 0.13510976E+03</pdfrwt>
<totfact> 0.79343935E+02</totfact>
</mgrwt>
</event>
<event>
 6    1  0.5928109E-006  0.2071941E+03  0.7546771E-02  0.1158314E+00
          1   -1    0    0  501    0  0.00000000000E+00  0.00000000000E+00  0.39154959280E+03  0.39154959280E+03  0.00000000000E+00 0. -1.
         -1   -1    0    0    0  501 -0.00000000000E+00 -0.00000000000E+00 -0.12400013027E+03  0.12400013027E+03  0.00000000000E+00 0.  1.
          5    1    1    2  502    0 -0.12428064906E+03  0.68237160715E+02  0.15630483098E+03  0.21108121664E+03  0.47000000000E+01 0. -1.
         -5    1    1    2    0  502  0.51002444136E+02  0.16778216872E+02  0.14407658541E+03  0.15382753438E+03  0.47000000000E+01 0.  1.
        -11    1    1    2    0    0  0.90985648757E+02 -0.88776154923E+02 -0.36316579122E+02  0.13220623239E+03  0.00000000000E+00 0.  1.
         11    1    1    2    0    0 -0.17707443833E+02  0.37607773357E+01  0.34846252643E+01  0.18434739665E+02  0.00000000000E+00 0. -1.
<mgrwt>
<rscale>  0 0.19016338E+03</rscale>
<asrwt>0</asrwt>
<pdfrwt beam="1">  1        1 0.60238398E-01 0.20719411E+03</pdfrwt>
<pdfrwt beam="2">  1       -1 0.19076943E-01 0.20719411E+03</pdfrwt>
<totfact> 0.13520307E+03</totfact>
</mgrwt>
</event>
<event>
 7    1  0.5928109E-006  0.1589810E+03  0.7546771E-02  0.1197342E+00
          2   -1    0    0  501    0  0.00000000000E+00  0.00000000000E+00  0.13317152225E+03  0.13317152225E+03  0.00000000000E+00 0. -1.
         -2   -1    0    0    0  501 -0.00000000000E+00 -0.00000000000E+00 -0.16347713700E+03  0.16347713700E+03  0.00000000000E+00 0.  1.
         23    2    1    2    0    0  0.45859275339E+02  0.86876619809E+02 -0.28190412552E+01  0.15900603859E+03  0.12499741242E+03 0.  0.
          5    1    3    3  502    0 -0.26518842431E+01  0.93744543992E+01  0.51451514876E+02  0.52576242433E+02  0.47000000000E+01 0. -1.
         -5    1    3    3    0  502  0.48511159582E+02  0.77502165410E+02 -0.54270556131E+02  0.10642979616E+03  0.47000000000E+01 0. -1.
        -11    1    1    2    0    0 -0.35372826509E+02 -0.10612313867E+03 -0.16330404857E+02  0.11304883697E+03  0.00000000000E+00 0.  1.
         11    1    1    2    0    0 -0.10486448830E+02  0.19246518865E+02 -0.11156168641E+02  0.24593783691E+02  0.00000000000E+00 0. -1.
<mgrwt>
<rscale>  0 0.15257664E+03</rscale>
<asrwt>0</asrwt>
<pdfrwt beam="1">  1        2 0.20487927E-01 0.15898105E+03</pdfrwt>
<pdfrwt beam="2">  1       -2 0.25150329E-01 0.15898105E+03</pdfrwt>
<totfact> 0.36784288E+03</totfact>
</mgrwt>
</event>
<event>
 7    1  0.5928109E-006  0.1582348E+03  0.7546771E-02  0.1198668E+00
         -1   -1    0    0    0  501 -0.00000000000E+00  0.00000000000E+00  0.57595620517E+02  0.57595620517E+02  0.00000000000E+00 0.  1.
          1   -1    0    0  501    0  0.00000000000E+00 -0.00000000000E+00 -0.47041385007E+03  0.47041385007E+03  0.00000000000E+00 0. -1.
         23    2    1    2    0    0 -0.66899523435E+02  0.70275302603E+02 -0.34334903162E+03  0.37805663705E+03  0.12499639559E+03 0.  0.
          5    1    3    3  502    0  0.20934211996E+02 -0.23410333543E+01 -0.16464790031E+03  0.16605644445E+03  0.47000000000E+01 0.  1.
         -5    1    3    3    0  502 -0.87833735431E+02  0.72616335957E+02 -0.17870113131E+03  0.21200019259E+03  0.47000000000E+01 0.  1.
        -11    1    1    2    0    0  0.16744985727E+00 -0.29975180257E+02  0.16241255440E+02  0.34092782948E+02  0.00000000000E+00 0.  1.
         11    1    1    2    0    0  0.66732073577E+02 -0.40300122347E+02 -0.85710453372E+02  0.11586005059E+03  0.00000000000E+00 0. -1.
<mgrwt>
<rscale>  0 0.15147817E+03</rscale>
<asrwt>0</asrwt>
<pdfrwt beam="2">  1        1 0.72371360E-01 0.15823484E+03</pdfrwt>
<pdfrwt beam="1">  1       -1 0.88608649E-02 0.15823484E+03</pdfrwt>
<totfact> 0.35183485E+03</totfact>
</mgrwt>
</event>
<event>
 7    1  0.5928109E-006  0.1436685E+03  0.7546771E-02  0.1219564E+00
         -4   -1    0    0    0  501 -0.00000000000E+00  0.00000000000E+00  0.70835915563E+03  0.70835915563E+03  0.00000000000E+00 0.  1.
          4   -1    0    0  501    0  0.00000000000E+00 -0.00000000000E+00 -0.24367121031E+02  0.24367121031E+02  0.00000000000E+00 0. -1.
         23    2    1    2    0    0  0.18918546733E+01  0.70792402223E+02  0.45462392647E+03  0.47678459247E+03  0.12500195909E+03 0.  0.
          5    1    3    3  502    0 -0.28852716430E+01  0.29984280119E+02  0.12858873256E+02  0.33088101609E+02  0.47000000000E+01 0.  1.
         -5    1    3    3    0  502  0.47771263163E+01  0.40808122104E+02  0.44176505321E+03  0.44369649086E+03  0.47000000000E+01 0.  1.
        -11    1    1    2    0    0  0.11399223872E+02 -0.82487024901E+02  0.22137294596E+03  0.23651645352E+03  0.00000000000E+00 0.  1.
         11    1    1    2    0    0 -0.13291078545E+02  0.11694622678E+02  0.79951621731E+01  0.19425230672E+02  0.00000000000E+00 0. -1.
<mgrwt>
<rscale>  0 0.13546583E+03</rscale>
<asrwt>0</asrwt>
<pdfrwt beam="2">  1        4 0.37487884E-02 0.14366848E+03</pdfrwt>
<pdfrwt beam="1">  1       -4 0.10897832E+00 0.14366848E+03</pdfrwt>
<totfact> 0.44549354E+02</totfact>
</mgrwt>
</event>
<event>
 7    1  0.5928109E-006  0.1341285E+03  0.7546771E-02  0.1234059E+00
          2   -1    0    0  501    0  0.00000000000E+00  0.00000000000E+00  0.16152052137E+02  0.16152052137E+02  0.00000000000E+00 0.  1.
         -2   -1    0    0    0  501 -0.00000000000E+00 -0.00000000000E+00 -0.88186297920E+03  0.88186297920E+03  0.00000000000E+00 0. -1.
         23    2    1    2    0    0  0.18658075574E+02  0.44920445627E+02 -0.44252473713E+03  0.46240524201E+03  0.12499797857E+03 0.  0.
          5    1    3    3  502    0 -0.33588973305E+02 -0.11890822347E+02 -0.28140236233E+03  0.28368819205E+03  0.47000000000E+01 0. -1.
         -5    1    3    3    0  502  0.52247048879E+02  0.56811267974E+02 -0.16112237480E+03  0.17871704996E+03  0.47000000000E+01 0. -1.
        -11    1    1    2    0    0 -0.46509720665E+02 -0.22023244582E+01 -0.13151542437E+03  0.13951455550E+03  0.00000000000E+00 0.  1.
         11    1    1    2    0    0  0.27851645091E+02 -0.42718121169E+02 -0.29167076557E+03  0.29609523384E+03  0.00000000000E+00 0. -1.
<mgrwt>
<rscale>  0 0.12564872E+03</rscale>
<asrwt>0</asrwt>
<pdfrwt beam="1">  1        2 0.24849306E-02 0.13412854E+03</pdfrwt>
<pdfrwt beam="2">  1       -2 0.13567126E+00 0.13412854E+03</pdfrwt>
<totfact> 0.15963467E+03</totfact>
</mgrwt>
</event>
<event>
 7    1  0.5928109E-006  0.1500070E+03  0.7546771E-02  0.1209548E+00
         -2   -1    0    0    0  501 -0.00000000000E+00  0.00000000000E+00  0.48088236057E+03  0.48088236057E+03  0.00000000000E+00 0.  1.
          2   -1    0    0  501    0  0.00000000000E+00 -0.00000000000E+00 -0.39207589600E+02  0.39207589600E+02  0.00000000000E+00 0. -1.
         23    2    1    2    0    0  0.26678611167E+02  0.78523400922E+02  0.26692001971E+03  0.30618361958E+03  0.12499775674E+03 0.  0.
          5    1    3    3  502    0 -0.16762838142E+02  0.40663230587E+02  0.13493132216E+02  0.46245493633E+02  0.47000000000E+01 0. -1.
         -5    1    3    3    0  502  0.43441449309E+02  0.37860170335E+02  0.25342688750E+03  0.25993812595E+03  0.47000000000E+01 0. -1.
        -11    1    1    2    0    0  0.10522761775E+02 -0.31740968387E+02  0.14172477797E+03  0.14561638053E+03  0.00000000000E+00 0.  1.
         11    1    1    2    0    0 -0.37201372942E+02 -0.46782432535E+02  0.33029973285E+02  0.68289950050E+02  0.00000000000E+00 0. -1.
<mgrwt>
<rscale>  0 0.14284787E+03</rscale>
<asrwt>0</asrwt>
<pdfrwt beam="2">  1        2 0.60319372E-02 0.15000704E+03</pdfrwt>
<pdfrwt beam="1">  1       -2 0.73981898E-01 0.15000704E+03</pdfrwt>
<totfact> 0.20091669E+03</totfact>
</mgrwt>
</event>
<event>
 7    1  0.5928109E-006  0.1219865E+03  0.7546771E-02  0.1275725E+00
         -2   -1    0    0    0  501 -0.00000000000E+00  0.00000000000E+00  0.14951344263E+03  0.14951344263E+03  0.00000000000E+00 0.  1.
          2   -1    0    0  501    0  0.00000000000E+00 -0.00000000000E+00 -0.10505324417E+03  0.10505324417E+03  0.00000000000E+00 0. -1.
         23    2    1    2    0    0  0.52012713884E+01  0.12304224292E+01 -0.58541859942E+02  0.13530652668E+03  0.12186935477E+03 0.  0.
          5    1    3    3  502    0 -0.14138103473E+02 -0.27156981833E+02 -0.85790217166E+02  0.91210958736E+02  0.47000000000E+01 0. -1.
         -5    1    3    3    0  502  0.19339374861E+02  0.28387404262E+02  0.27248357223E+02  0.44095567942E+02  0.47000000000E+01 0.  1.
        -11    1    1    2    0    0 -0.24086470053E+02 -0.21149140385E+02  0.46952018637E+02  0.56850120781E+02  0.00000000000E+00 0. -1.
         11    1    1    2    0    0  0.18885198665E+02  0.19918717956E+02  0.56050039758E+02  0.62410039340E+02  0.00000000000E+00 0.  1.
<mgrwt>
<rscale>  0 0.10220585E+03</rscale>
<asrwt>0</asrwt>
<pdfrwt beam="2">  1        2 0.16162038E-01 0.12198650E+03</pdfrwt>
<pdfrwt beam="1">  1       -2 0.23002068E-01 0.12198650E+03</pdfrwt>
<totfact> 0.55428197E+03</totfact>
</mgrwt>
</event>
<event>
 7    1  0.5928109E-006  0.1206208E+03  0.7546771E-02  0.1249728E+00
          2   -1    0    0  501    0  0.00000000000E+00  0.00000000000E+00  0.65322631480E+03  0.65322631480E+03  0.00000000000E+00 0. -1.
         -2   -1    0    0    0  501 -0.00000000000E+00 -0.00000000000E+00 -0.21979678677E+02  0.21979678677E+02  0.00000000000E+00 0.  1.
         23    2    1    2    0    0 -0.40166369222E+02 -0.20234301781E+02  0.45634971922E+03  0.47202165312E+03  0.11192234182E+03 0.  0.
          5    1    3    3  502    0  0.21292961698E+02  0.10914126469E+01  0.32135706858E+03  0.32209786855E+03  0.47000000000E+01 0. -1.
         -5    1    3    3    0  502 -0.61459330921E+02 -0.21325714428E+02  0.13499265064E+03  0.14992378457E+03  0.47000000000E+01 0.  1.
        -11    1    1    2    0    0  0.28160192779E+02  0.55194740560E+02  0.78942887475E+02  0.10035654102E+03  0.00000000000E+00 0. -1.
         11    1    1    2    0    0  0.12006176443E+02 -0.34960438780E+02  0.95954029431E+02  0.10282779934E+03  0.00000000000E+00 0.  1.
<mgrwt>
<rscale>  0 0.11606839E+03</rscale>
<asrwt>0</asrwt>
<pdfrwt beam="1">  1        2 0.10049634E+00 0.12062079E+03</pdfrwt>
<pdfrwt beam="2">  1       -2 0.33814895E-02 0.12062079E+03</pdfrwt>
<totfact> 0.15190146E+04</totfact>
</mgrwt>
</event>
<event>
 7    1  0.5928109E-006  0.1272426E+03  0.7546771E-02  0.1246236E+00
          1   -1    0    0  501    0  0.00000000000E+00  0.00000000000E+00  0.27345432086E+03  0.27345432086E+03  0.00000000000E+00 0. -1.
         -1   -1    0    0    0  501 -0.00000000000E+00 -0.00000000000E+00 -0.47786344033E+02  0.47786344033E+02  0.00000000000E+00 0.  1.
         23    2    1    2    0    0 -0.82151475799E+01 -0.22295473479E+02  0.16727260253E+03  0.21016850228E+03  0.12500439595E+03 0.  0.
          5    1    3    3  502    0  0.13478145723E+02  0.26682132508E+02  0.15097883628E+03  0.15398147815E+03  0.47000000000E+01 0. -1.
         -5    1    3    3    0  502 -0.21693293303E+02 -0.48977605987E+02  0.16293766244E+02  0.56187024133E+02  0.47000000000E+01 0. -1.
        -11    1    1    2    0    0  0.28615017877E+02 -0.21573271627E+02  0.78860551974E+00  0.35844765245E+02  0.00000000000E+00 0. -1.
         11    1    1    2    0    0 -0.20399870298E+02  0.43868745106E+02  0.57606768783E+02  0.75227397369E+02  0.00000000000E+00 0.  1.
<mgrwt>
<rscale>  0 0.11811705E+03</rscale>
<asrwt>0</asrwt>
<pdfrwt beam="1">  1        1 0.42069895E-01 0.12724259E+03</pdfrwt>
<pdfrwt beam="2">  1       -1 0.73517454E-02 0.12724259E+03</pdfrwt>
<totfact> 0.91014096E+03</totfact>
</mgrwt>
</event>
<event>
 7    1  0.5928109E-006  0.1398491E+03  0.7546771E-02  0.1224415E+00
         -2   -1    0    0    0  501 -0.00000000000E+00  0.00000000000E+00  0.22979363507E+02  0.22979363507E+02  0.00000000000E+00 0.  1.
          2   -1    0    0  501    0  0.00000000000E+00 -0.00000000000E+00 -0.71604431328E+03  0.71604431328E+03  0.00000000000E+00 0. -1.
         23    2    1    2    0    0  0.30370837926E+01  0.62640609753E+02 -0.45973697400E+03  0.48053705337E+03  0.12499881811E+03 0.  0.
          5    1    3    3  502    0  0.45122974624E+02  0.80431858661E+02 -0.33918344118E+03  0.35152932096E+03  0.47000000000E+01 0. -1.
         -5    1    3    3    0  502 -0.42085890832E+02 -0.17791248908E+02 -0.12055353283E+03  0.12900773241E+03  0.47000000000E+01 0. -1.
        -11    1    1    2    0    0 -0.31403839923E+02 -0.11636890912E+02 -0.24070918176E+02  0.41243514567E+02  0.00000000000E+00 0.  1.
         11    1    1    2    0    0  0.28366756131E+02 -0.51003718840E+02 -0.20925705760E+03  0.21724310885E+03  0.00000000000E+00 0. -1.
<mgrwt>
<rscale>  0 0.13207052E+03</rscale>
<asrwt>0</asrwt>
<pdfrwt beam="2">  1        2 0.11016068E+00 0.13984911E+03</pdfrwt>
<pdfrwt beam="1">  1       -2 0.35352862E-02 0.13984911E+03</pdfrwt>
<totfact> 0.12907831E+04</totfact>
</mgrwt>
</event>
<event>
 7    1  0.5928109E-006  0.1446002E+03  0.7546771E-02  0.1217215E+00
         -2   -1    0    0    0  501 -0.00000000000E+00  0.00000000000E+00  0.24745330847E+03  0.24745330847E+03  0.00000000000E+00 0.  1.
          2   -1    0    0  501    0  0.00000000000E+00 -0.00000000000E+00 -0.69244792562E+02  0.69244792562E+02  0.00000000000E+00 0. -1.
         23    2    1    2    0    0  0.71961207650E+02  0.10315892336E+02  0.10421394603E+03  0.17824076022E+03  0.12499755604E+03 0.  0.
          5    1    3    3  502    0  0.51105355269E+02 -0.84819603115E+00 -0.17447000136E+02  0.54212218064E+02  0.47000000000E+01 0.  1.
         -5    1    3    3    0  502  0.20855852381E+02  0.11164088368E+02  0.12166094616E+03  0.12402854215E+03  0.47000000000E+01 0.  1.
        -11    1    1    2    0    0  0.16965266057E+02 -0.20897115272E+02  0.22983412123E+02  0.35394164941E+02  0.00000000000E+00 0.  1.
         11    1    1    2    0    0 -0.88926473707E+02  0.10581222936E+02  0.51011157757E+02  0.10306317587E+03  0.00000000000E+00 0. -1.
<mgrwt>
<rscale>  0 0.13715066E+03</rscale>
<asrwt>0</asrwt>
<pdfrwt beam="2">  1        2 0.10653045E-01 0.14460021E+03</pdfrwt>
<pdfrwt beam="1">  1       -2 0.38069739E-01 0.14460021E+03</pdfrwt>
<totfact> 0.37243035E+03</totfact>
</mgrwt>
</event>
<event>
 7    1  0.5928109E-006  0.1253407E+03  0.7546771E-02  0.1258294E+00
         -1   -1    0    0    0  501 -0.00000000000E+00  0.00000000000E+00  0.35049561029E+02  0.35049561029E+02  0.00000000000E+00 0.  1.
          1   -1    0    0  501    0  0.00000000000E+00 -0.00000000000E+00 -0.33180733597E+03  0.33180733597E+03  0.00000000000E+00 0. -1.
         23    2    1    2    0    0  0.18860468293E+01  0.11110145995E+02 -0.23942239065E+03  0.27024687830E+03  0.12483309485E+03 0.  0.
          5    1    3    3  502    0  0.21507343380E+02  0.62952940572E+02 -0.15938310962E+03  0.17277356331E+03  0.47000000000E+01 0. -1.
         -5    1    3    3    0  502 -0.19621296550E+02 -0.51842794577E+02 -0.80039281021E+02  0.97473314985E+02  0.47000000000E+01 0. -1.
        -11    1    1    2    0    0 -0.19005422115E+02 -0.13135926875E+02 -0.70966925167E+02  0.74632855447E+02  0.00000000000E+00 0. -1.
         11    1    1    2    0    0  0.17119375286E+02  0.20257808805E+01  0.13631540869E+02  0.21977163257E+02  0.00000000000E+00 0.  1.
<mgrwt>
<rscale>  0 0.11123821E+03</rscale>
<asrwt>0</asrwt>
<pdfrwt beam="2">  1        1 0.51047280E-01 0.12534071E+03</pdfrwt>
<pdfrwt beam="1">  1       -1 0.53922404E-02 0.12534071E+03</pdfrwt>
<totfact> 0.11359950E+04</totfact>
</mgrwt>
</event>
<event>
 7    1  0.5928109E-006  0.1277493E+03  0.7546771E-02  0.1243655E+00
         -3   -1    0    0    0  501 -0.00000000000E+00  0.00000000000E+00  0.12615036359E+03  0.12615036359E+03  0.00000000000E+00 0.  1.
          3   -1    0    0  501    0  0.00000000000E+00 -0.00000000000E+00 -0.14827941809E+03  0.14827941809E+03  0.00000000000E+00 0. -1.
         23    2    1    2    0    0 -0.26347235354E+02  0.11160179641E+01 -0.88829994066E+02  0.15559775584E+03  0.12499788586E+03 0.  0.
          5    1    3    3  502    0  0.23808916817E+02 -0.28092873141E+02 -0.89998729889E+02  0.97354688756E+02  0.47000000000E+01 0.  1.
         -5    1    3    3    0  502 -0.50156152171E+02  0.29208891105E+02  0.11687358226E+01  0.58243067086E+02  0.47000000000E+01 0.  1.
        -11    1    1    2    0    0  0.26931897544E+02 -0.19492988802E+02 -0.13992299227E+02  0.36070599599E+02  0.00000000000E+00 0. -1.
         11    1    1    2    0    0 -0.58466218945E+00  0.18376970838E+02  0.80693238786E+02  0.82761426237E+02  0.00000000000E+00 0.  1.
<mgrwt>
<rscale>  0 0.11966268E+03</rscale>
<asrwt>0</asrwt>
<pdfrwt beam="2">  1        3 0.22812218E-01 0.12774934E+03</pdfrwt>
<pdfrwt beam="1">  1       -3 0.19407748E-01 0.12774934E+03</pdfrwt>
<totfact> 0.95898857E+02</totfact>
</mgrwt>
</event>
<event>
 7    1  0.5928109E-006  0.1395768E+03  0.7546771E-02  0.1224978E+00
          1   -1    0    0  501    0  0.00000000000E+00  0.00000000000E+00  0.35569653928E+03  0.35569653928E+03  0.00000000000E+00 0. -1.
         -1   -1    0    0    0  501 -0.00000000000E+00 -0.00000000000E+00 -0.46682369821E+02  0.46682369821E+02  0.00000000000E+00 0.  1.
         23    2    1    2    0    0  0.12787061779E+02 -0.60776054518E+02  0.21943319776E+03  0.26006268217E+03  0.12499773049E+03 0.  0.
          5    1    3    3  502    0  0.11222059422E+01 -0.82652808270E+02  0.21974710440E+03  0.23482679991E+03  0.47000000000E+01 0.  1.
         -5    1    3    3    0  502  0.11664855837E+02  0.21876753752E+02 -0.31390664118E+00  0.25235882267E+02  0.47000000000E+01 0.  1.
        -11    1    1    2    0    0 -0.34092564249E+02  0.24892335563E+02 -0.13836713938E+01  0.42235599361E+02  0.00000000000E+00 0.  1.
         11    1    1    2    0    0  0.21305502470E+02  0.35883718955E+02  0.90964643090E+02  0.10008062757E+03  0.00000000000E+00 0. -1.
<mgrwt>
<rscale>  0 0.13168442E+03</rscale>
<asrwt>0</asrwt>
<pdfrwt beam="1">  1        1 0.54722543E-01 0.13957675E+03</pdfrwt>
<pdfrwt beam="2">  1       -1 0.71819033E-02 0.13957675E+03</pdfrwt>
<totfact> 0.68480011E+03</totfact>
</mgrwt>
</event>
<event>
 7    1  0.5928109E-006  0.1366477E+03  0.7546771E-02  0.1229755E+00
          1   -1    0    0  501    0  0.00000000000E+00  0.00000000000E+00  0.13811692134E+04  0.13811692134E+04  0.00000000000E+00 0. -1.
         -1   -1    0    0    0  501 -0.00000000000E+00 -0.00000000000E+00 -0.13733489443E+02  0.13733489443E+02  0.00000000000E+00 0.  1.
         23    2    1    2    0    0 -0.46978602156E+02  0.28991798202E+02  0.10740041091E+04  0.10826621958E+04  0.12500036129E+03 0.  0.
          5    1    3    3  502    0  0.12205509658E+02  0.61489399065E+02  0.67874963507E+03  0.68165466166E+03  0.47000000000E+01 0. -1.
         -5    1    3    3    0  502 -0.59184111814E+02 -0.32497600863E+02  0.39525447408E+03  0.40100753414E+03  0.47000000000E+01 0. -1.
        -11    1    1    2    0    0  0.12148821159E+02 -0.52696472138E+02  0.22869215511E+03  0.23499917838E+03  0.00000000000E+00 0. -1.
         11    1    1    2    0    0  0.34829780997E+02  0.23704673935E+02  0.64739459670E+02  0.77241328633E+02  0.00000000000E+00 0.  1.
<mgrwt>
<rscale>  0 0.12846267E+03</rscale>
<asrwt>0</asrwt>
<pdfrwt beam="1">  1        1 0.21248746E+00 0.13664774E+03</pdfrwt>
<pdfrwt beam="2">  1       -1 0.21128456E-02 0.13664774E+03</pdfrwt>
<totfact> 0.53339634E+03</totfact>
</mgrwt>
</event>
<event>
 7    1  0.5928109E-006  0.1334732E+03  0.7546771E-02  0.1233388E+00
          3   -1    0    0  501    0  0.00000000000E+00  0.00000000000E+00  0.12739874508E+03  0.12739874508E+03  0.00000000000E+00 0. -1.
         -3   -1    0    0    0  501 -0.00000000000E+00 -0.00000000000E+00 -0.11417155338E+03  0.11417155338E+03  0.00000000000E+00 0.  1.
         23    2    1    2    0    0  0.24259951141E+02  0.40209276060E+02  0.20541088108E+02  0.13504456823E+03  0.12493905713E+03 0.  0.
          5    1    3    3  502    0  0.21722114295E+02 -0.54656065393E+01  0.66319172378E+02  0.70157292772E+02  0.47000000000E+01 0. -1.
         -5    1    3    3    0  502  0.25378368467E+01  0.45674882599E+02 -0.45778084270E+02  0.64887275453E+02  0.47000000000E+01 0. -1.
        -11    1    1    2    0    0 -0.86608871123E+01 -0.57136342323E+02 -0.37256592166E+02  0.68757735852E+02  0.00000000000E+00 0.  1.
         11    1    1    2    0    0 -0.15599064029E+02  0.16927066264E+02  0.29942695752E+02  0.37767994383E+02  0.00000000000E+00 0. -1.
<mgrwt>
<rscale>  0 0.12608189E+03</rscale>
<asrwt>0</asrwt>
<pdfrwt beam="1">  1        3 0.19599807E-01 0.13347321E+03</pdfrwt>
<pdfrwt beam="2">  1       -3 0.17564854E-01 0.13347321E+03</pdfrwt>
<totfact> 0.15039796E+03</totfact>
</mgrwt>
</event>
<event>
 7    1  0.5928109E-006  0.1305585E+03  0.7546771E-02  0.1239858E+00
         -1   -1    0    0    0  501 -0.00000000000E+00  0.00000000000E+00  0.64710217175E+02  0.64710217175E+02  0.00000000000E+00 0.  1.
          1   -1    0    0  501    0  0.00000000000E+00 -0.00000000000E+00 -0.21375610895E+03  0.21375610895E+03  0.00000000000E+00 0. -1.
         23    2    1    2    0    0  0.40268286307E+02  0.71663678702E+01 -0.11291140080E+03  0.17261086493E+03  0.12398642890E+03 0.  0.
          5    1    3    3  502    0 -0.35089377521E+02  0.18256092118E+02 -0.80268441512E+02  0.89608381399E+02  0.47000000000E+01 0. -1.
         -5    1    3    3    0  502  0.75357663827E+02 -0.11089724248E+02 -0.32642959283E+02  0.83002483530E+02  0.47000000000E+01 0.  1.
        -11    1    1    2    0    0 -0.30285416850E+02 -0.48030559437E+02 -0.26694183053E+02  0.62743290657E+02  0.00000000000E+00 0. -1.
         11    1    1    2    0    0 -0.99828694566E+01  0.40864191566E+02 -0.94403079287E+01  0.43112170541E+02  0.00000000000E+00 0.  1.
<mgrwt>
<rscale>  0 0.12198503E+03</rscale>
<asrwt>0</asrwt>
<pdfrwt beam="2">  1        1 0.32885556E-01 0.13055852E+03</pdfrwt>
<pdfrwt beam="1">  1       -1 0.99554179E-02 0.13055852E+03</pdfrwt>
<totfact> 0.78168403E+03</totfact>
</mgrwt>
</event>
<event>
 7    1  0.5928109E-006  0.1688396E+03  0.7546771E-02  0.1185701E+00
         -2   -1    0    0    0  501 -0.00000000000E+00  0.00000000000E+00  0.48895195868E+02  0.48895195868E+02  0.00000000000E+00 0.  1.
          2   -1    0    0  501    0  0.00000000000E+00 -0.00000000000E+00 -0.72713981904E+03  0.72713981904E+03  0.00000000000E+00 0. -1.
         23    2    1    2    0    0  0.42191157982E+02  0.10536241759E+03 -0.57051032750E+03  0.59496960397E+03  0.12500185203E+03 0.  0.
          5    1    3    3  502    0  0.77840926110E+02  0.35688293819E+02 -0.36677415757E+03  0.37666727593E+03  0.47000000000E+01 0. -1.
         -5    1    3    3    0  502 -0.35649768128E+02  0.69674123768E+02 -0.20373616993E+03  0.21830232804E+03  0.47000000000E+01 0. -1.
        -11    1    1    2    0    0 -0.79931637816E+01 -0.89862440189E+02 -0.30578030900E+02  0.95258410640E+02  0.00000000000E+00 0.  1.
         11    1    1    2    0    0 -0.34197994201E+02 -0.15499977398E+02 -0.77156264769E+02  0.85807000296E+02  0.00000000000E+00 0. -1.
<mgrwt>
<rscale>  0 0.16268267E+03</rscale>
<asrwt>0</asrwt>
<pdfrwt beam="2">  1        2 0.11186766E+00 0.16883956E+03</pdfrwt>
<pdfrwt beam="1">  1       -2 0.75223381E-02 0.16883956E+03</pdfrwt>
<totfact> 0.40917554E+03</totfact>
</mgrwt>
</event>
<event>
 7    1  0.5928109E-006  0.1503408E+03  0.7546771E-02  0.1205805E+00
         -1   -1    0    0    0  501 -0.00000000000E+00  0.00000000000E+00  0.28706376841E+02  0.28706376841E+02  0.00000000000E+00 0.  1.
          1   -1    0    0  501    0  0.00000000000E+00 -0.00000000000E+00 -0.10713789203E+04  0.10713789203E+04  0.00000000000E+00 0. -1.
         23    2    1    2    0    0  0.88450653093E+02  0.37025199318E+02 -0.86669862103E+03  0.87964132895E+03  0.11579285165E+03 0.  0.
          5    1    3    3  502    0  0.63118776185E+02 -0.90527951839E+01 -0.73470653524E+03  0.73748336655E+03  0.47000000000E+01 0. -1.
         -5    1    3    3    0  502  0.25331876908E+02  0.46077994502E+02 -0.13199208578E+03  0.14215796240E+03  0.47000000000E+01 0.  1.
        -11    1    1    2    0    0 -0.78826583491E+02  0.14634043670E+02 -0.10929368459E+03  0.13554665245E+03  0.00000000000E+00 0.  1.
         11    1    1    2    0    0 -0.96240696020E+01 -0.51659242988E+02 -0.66680237862E+02  0.84897315759E+02  0.00000000000E+00 0. -1.
<mgrwt>
<rscale>  0 0.14574220E+03</rscale>
<asrwt>0</asrwt>
<pdfrwt beam="2">  1        1 0.16482756E+00 0.15034084E+03</pdfrwt>
<pdfrwt beam="1">  1       -1 0.44163648E-02 0.15034084E+03</pdfrwt>
<totfact> 0.29675806E+03</totfact>
</mgrwt>
</event>
<event>
 7    1  0.5928109E-006  0.1361020E+03  0.7546771E-02  0.1230411E+00
          3   -1    0    0  501    0  0.00000000000E+00  0.00000000000E+00  0.36490813452E+02  0.36490813452E+02  0.00000000000E+00 0. -1.
         -3   -1    0    0    0  501 -0.00000000000E+00 -0.00000000000E+00 -0.40495512570E+03  0.40495512570E+03  0.00000000000E+00 0.  1.
         23    2    1    2    0    0  0.19557800020E+02 -0.50181899187E+02 -0.19323287042E+03  0.23635293255E+03  0.12499214361E+03 0.  0.
          5    1    3    3  502    0  0.13494434424E+02 -0.74541320053E+02 -0.19645963771E+03  0.21061098596E+03  0.47000000000E+01 0. -1.
         -5    1    3    3    0  502  0.60633655962E+01  0.24359420866E+02  0.32267672893E+01  0.25741946593E+02  0.47000000000E+01 0. -1.
        -11    1    1    2    0    0  0.26372547241E+02  0.40582680648E+02 -0.13455140600E+03  0.14299141958E+03  0.00000000000E+00 0.  1.
         11    1    1    2    0    0 -0.45930347261E+02  0.95992185392E+01 -0.40680035822E+02  0.62101587021E+02  0.00000000000E+00 0. -1.
<mgrwt>
<rscale>  0 0.12802855E+03</rscale>
<asrwt>0</asrwt>
<pdfrwt beam="1">  1        3 0.56139713E-02 0.13610204E+03</pdfrwt>
<pdfrwt beam="2">  1       -3 0.62300788E-01 0.13610204E+03</pdfrwt>
<totfact> 0.11116369E+03</totfact>
</mgrwt>
</event>
<event>
 7    1  0.5928109E-006  0.1421587E+03  0.7546771E-02  0.1221741E+00
         -2   -1    0    0    0  501 -0.00000000000E+00  0.00000000000E+00  0.46877557804E+02  0.46877557804E+02  0.00000000000E+00 0.  1.
          2   -1    0    0  501    0  0.00000000000E+00 -0.00000000000E+00 -0.43178297465E+03  0.43178297465E+03  0.00000000000E+00 0. -1.
         23    2    1    2    0    0 -0.34951523506E+02  0.57988328501E+02 -0.31770036058E+03  0.34805549165E+03  0.12499940367E+03 0.  0.
          5    1    3    3  502    0 -0.49166274636E+02 -0.21305349886E+02 -0.75022542756E+02  0.92313121586E+02  0.47000000000E+01 0. -1.
         -5    1    3    3    0  502  0.14214751130E+02  0.79293678386E+02 -0.24267781782E+03  0.25574237006E+03  0.47000000000E+01 0. -1.
        -11    1    1    2    0    0  0.33929342326E+02  0.16123211811E+02 -0.27204284888E+02  0.46381368523E+02  0.00000000000E+00 0.  1.
         11    1    1    2    0    0  0.10221811801E+01 -0.74111540311E+02 -0.40000771375E+02  0.84223672279E+02  0.00000000000E+00 0. -1.
<mgrwt>
<rscale>  0 0.13392830E+03</rscale>
<asrwt>0</asrwt>
<pdfrwt beam="2">  1        2 0.66428150E-01 0.14215874E+03</pdfrwt>
<pdfrwt beam="1">  1       -2 0.72119320E-02 0.14215874E+03</pdfrwt>
<totfact> 0.78129100E+03</totfact>
</mgrwt>
</event>
<event>
 7    1  0.5928109E-006  0.1649568E+03  0.7546771E-02  0.1190450E+00
          1   -1    0    0  501    0  0.00000000000E+00  0.00000000000E+00  0.34374082286E+03  0.34374082286E+03  0.00000000000E+00 0. -1.
         -1   -1    0    0    0  501 -0.00000000000E+00 -0.00000000000E+00 -0.76865672369E+02  0.76865672369E+02  0.00000000000E+00 0.  1.
         23    2    1    2    0    0 -0.38207403941E+00  0.10765594274E+03  0.21475270128E+03  0.27079413446E+03  0.12498316912E+03 0.  0.
          5    1    3    3  502    0 -0.15851504552E+01  0.43098989023E+02 -0.31306957110E+01  0.43496285041E+02  0.47000000000E+01 0. -1.
         -5    1    3    3    0  502  0.12030764158E+01  0.64556953718E+02  0.21788339699E+03  0.22729784942E+03  0.47000000000E+01 0. -1.
        -11    1    1    2    0    0 -0.40880994339E+02 -0.62720141147E+02  0.96716288658E+01  0.75489152920E+02  0.00000000000E+00 0.  1.
         11    1    1    2    0    0  0.41263068378E+02 -0.44935801593E+02  0.42450820341E+02  0.74323207846E+02  0.00000000000E+00 0. -1.
<mgrwt>
<rscale>  0 0.15845657E+03</rscale>
<asrwt>0</asrwt>
<pdfrwt beam="1">  1        1 0.52883203E-01 0.16495678E+03</pdfrwt>
<pdfrwt beam="2">  1       -1 0.11825488E-01 0.16495678E+03</pdfrwt>
<totfact> 0.33717016E+03</totfact>
</mgrwt>
</event>
<event>
 7    1  0.5928109E-006  0.2247954E+03  0.7546771E-02  0.1133650E+00
          2   -1    0    0  501    0  0.00000000000E+00  0.00000000000E+00  0.10326049922E+04  0.10326049922E+04  0.00000000000E+00 0. -1.
         -2   -1    0    0    0  501 -0.00000000000E+00 -0.00000000000E+00 -0.47442540734E+02  0.47442540734E+02  0.00000000000E+00 0.  1.
         23    2    1    2    0    0 -0.16962753690E+03 -0.78325229120E+02  0.62819614191E+03  0.66720564378E+03  0.12499854232E+03 0.  0.
          5    1    3    3  502    0 -0.14553394651E+03 -0.11035459438E+03  0.54350444207E+03  0.57339117070E+03  0.47000000000E+01 0. -1.
         -5    1    3    3    0  502 -0.24093590389E+02  0.32029365256E+02  0.84691699846E+02  0.93814473080E+02  0.47000000000E+01 0. -1.
        -11    1    1    2    0    0  0.81685947252E+02 -0.77703659379E+01  0.11370137078E+03  0.14021759620E+03  0.00000000000E+00 0.  1.
         11    1    1    2    0    0  0.87941589645E+02  0.86095595058E+02  0.24326493877E+03  0.27262429296E+03  0.00000000000E+00 0. -1.
<mgrwt>
<rscale>  0 0.22031352E+03</rscale>
<asrwt>0</asrwt>
<pdfrwt beam="1">  1        2 0.15886229E+00 0.22479541E+03</pdfrwt>
<pdfrwt beam="2">  1       -2 0.72988532E-02 0.22479541E+03</pdfrwt>
<totfact> 0.27274546E+03</totfact>
</mgrwt>
</event>
<event>
 7    1  0.5928109E-006  0.1402288E+03  0.7546771E-02  0.1223593E+00
         -2   -1    0    0    0  501 -0.00000000000E+00  0.00000000000E+00  0.44412224302E+02  0.44412224302E+02  0.00000000000E+00 0.  1.
          2   -1    0    0  501    0  0.00000000000E+00 -0.00000000000E+00 -0.36545403621E+03  0.36545403621E+03  0.00000000000E+00 0. -1.
         23    2    1    2    0    0  0.43458437295E+02 -0.46364856171E+02 -0.15052056841E+03  0.20571959472E+03  0.12500309787E+03 0.  0.
          5    1    3    3  502    0 -0.39889401223E+02  0.38856624369E+00 -0.22972060378E+02  0.46272247316E+02  0.47000000000E+01 0.  1.
         -5    1    3    3    0  502  0.83347838518E+02 -0.46753422414E+02 -0.12754850803E+03  0.15944734740E+03  0.47000000000E+01 0.  1.
        -11    1    1    2    0    0 -0.44839430258E+02 -0.15597157229E+02 -0.96946906910E+02  0.10794697114E+03  0.00000000000E+00 0. -1.
         11    1    1    2    0    0  0.13809929629E+01  0.61962013400E+02 -0.73574336590E+02  0.96199694650E+02  0.00000000000E+00 0.  1.
<mgrwt>
<rscale>  0 0.13263775E+03</rscale>
<asrwt>0</asrwt>
<pdfrwt beam="2">  1        2 0.56223695E-01 0.14022878E+03</pdfrwt>
<pdfrwt beam="1">  1       -2 0.68326502E-02 0.14022878E+03</pdfrwt>
<totfact> 0.10136629E+04</totfact>
</mgrwt>
</event>
<event>
 7    1  0.5928109E-006  0.1382233E+03  0.7546771E-02  0.1226345E+00
          2   -1    0    0  501    0  0.00000000000E+00  0.00000000000E+00  0.77707345433E+02  0.77707345433E+02  0.00000000000E+00 0.  1.
         -2   -1    0    0    0  501 -0.00000000000E+00 -0.00000000000E+00 -0.23990060508E+03  0.23990060508E+03  0.00000000000E+00 0. -1.
         23    2    1    2    0    0  0.58979108968E+02 -0.12488617336E+01 -0.23560720089E+02  0.14021689107E+03  0.12500229622E+03 0.  0.
          5    1    3    3  502    0  0.96311972879E+02  0.77174892481E+01 -0.29385408093E+02  0.10109969322E+03  0.47000000000E+01 0.  1.
         -5    1    3    3    0  502 -0.37332863911E+02 -0.89663509817E+01  0.58246880047E+01  0.39117197855E+02  0.47000000000E+01 0.  1.
        -11    1    1    2    0    0 -0.75538623199E+02 -0.17564968032E+02 -0.12904505125E+03  0.15055642447E+03  0.00000000000E+00 0. -1.
         11    1    1    2    0    0  0.16559514231E+02  0.18813829766E+02 -0.95874883110E+01  0.26834634973E+02  0.00000000000E+00 0.  1.
<mgrwt>
<rscale>  0 0.13075150E+03</rscale>
<asrwt>0</asrwt>
<pdfrwt beam="1">  1        2 0.11954976E-01 0.13822326E+03</pdfrwt>
<pdfrwt beam="2">  1       -2 0.36907785E-01 0.13822326E+03</pdfrwt>
<totfact> 0.34226152E+03</totfact>
</mgrwt>
</event>
<event>
 7    1  0.5928109E-006  0.1279133E+03  0.7546771E-02  0.1249896E+00
         -2   -1    0    0    0  501 -0.00000000000E+00  0.00000000000E+00  0.21910852533E+02  0.21910852533E+02  0.00000000000E+00 0.  1.
          2   -1    0    0  501    0  0.00000000000E+00 -0.00000000000E+00 -0.73524680250E+03  0.73524680250E+03  0.00000000000E+00 0. -1.
         23    2    1    2    0    0 -0.25697440588E+02 -0.87589067091E+01 -0.60599340855E+03  0.61934627760E+03  0.12499889392E+03 0.  0.
          5    1    3    3  502    0  0.11128584875E+02 -0.55711708047E+02 -0.42270685561E+03  0.42653348708E+03  0.47000000000E+01 0.  1.
         -5    1    3    3    0  502 -0.36826025462E+02  0.46952801338E+02 -0.18328655293E+03  0.19281279053E+03  0.47000000000E+01 0.  1.
        -11    1    1    2    0    0  0.53119238309E+02 -0.50761999827E+01 -0.82757548242E+02  0.98469452500E+02  0.00000000000E+00 0. -1.
         11    1    1    2    0    0 -0.27421797721E+02  0.13835106692E+02 -0.24584993178E+02  0.39341924927E+02  0.00000000000E+00 0.  1.
<mgrwt>
<rscale>  0 0.11597076E+03</rscale>
<asrwt>0</asrwt>
<pdfrwt beam="2">  1        2 0.11311489E+00 0.12791325E+03</pdfrwt>
<pdfrwt beam="1">  1       -2 0.33709005E-02 0.12791325E+03</pdfrwt>
<totfact> 0.13331985E+04</totfact>
</mgrwt>
</event>
<event>
 7    1  0.5928109E-006  0.1408437E+03  0.7546771E-02  0.1227626E+00
          2   -1    0    0  501    0  0.00000000000E+00  0.00000000000E+00  0.62078512395E+03  0.62078512395E+03  0.00000000000E+00 0. -1.
         -2   -1    0    0    0  501 -0.00000000000E+00 -0.00000000000E+00 -0.23897108214E+02  0.23897108214E+02  0.00000000000E+00 0.  1.
         23    2    1    2    0    0 -0.38388156083E+02  0.52354366309E+02  0.37317783361E+03  0.39887171539E+03  0.12498927810E+03 0.  0.
          5    1    3    3  502    0  0.25032761474E+02  0.64697229331E+02  0.13259163360E+03  0.14971640502E+03  0.47000000000E+01 0.  1.
         -5    1    3    3    0  502 -0.63420917557E+02 -0.12342863022E+02  0.24058620001E+03  0.24915531037E+03  0.47000000000E+01 0.  1.
        -11    1    1    2    0    0 -0.97905583346E-01 -0.52986645095E+02  0.72628501059E+02  0.89902688002E+02  0.00000000000E+00 0.  1.
         11    1    1    2    0    0  0.38486061666E+02  0.63227878630E+00  0.15108168106E+03  0.15590782877E+03  0.00000000000E+00 0. -1.
<mgrwt>
<rscale>  0 0.12988524E+03</rscale>
<asrwt>0</asrwt>
<pdfrwt beam="1">  1        2 0.95505391E-01 0.14084371E+03</pdfrwt>
<pdfrwt beam="2">  1       -2 0.36764787E-02 0.14084371E+03</pdfrwt>
<totfact> 0.14406348E+04</totfact>
</mgrwt>
</event>
<event>
 7    1  0.5928109E-006  0.1252211E+03  0.7546771E-02  0.1248467E+00
          2   -1    0    0  501    0  0.00000000000E+00  0.00000000000E+00  0.15298332619E+04  0.15298332619E+04  0.00000000000E+00 0. -1.
         -2   -1    0    0    0  501 -0.00000000000E+00 -0.00000000000E+00 -0.87373740224E+01  0.87373740224E+01  0.00000000000E+00 0.  1.
         23    2    1    2    0    0 -0.59513918865E+01  0.51569962134E+01  0.10903849898E+04  0.10975517100E+04  0.12497326338E+03 0.  0.
          5    1    3    3  502    0 -0.39402607581E+02 -0.46931261589E+01  0.11899918032E+03  0.12552882471E+03  0.47000000000E+01 0. -1.
         -5    1    3    3    0  502  0.33451215694E+02  0.98501223723E+01  0.97138580948E+03  0.97202288532E+03  0.47000000000E+01 0. -1.
        -11    1    1    2    0    0  0.44869633227E+02  0.16938896411E+02  0.26839240297E+03  0.27264389259E+03  0.00000000000E+00 0. -1.
         11    1    1    2    0    0 -0.38918241340E+02 -0.22095892624E+02  0.16231849513E+03  0.16837503330E+03  0.00000000000E+00 0.  1.
<mgrwt>
<rscale>  0 0.11680270E+03</rscale>
<asrwt>0</asrwt>
<pdfrwt beam="1">  1        2 0.23535875E+00 0.12522113E+03</pdfrwt>
<pdfrwt beam="2">  1       -2 0.13442126E-02 0.12522113E+03</pdfrwt>
<totfact> 0.17531384E+04</totfact>
</mgrwt>
</event>
<event>
 7    1  0.5928109E-006  0.1522739E+03  0.7546771E-02  0.1207056E+00
         -2   -1    0    0    0  501 -0.00000000000E+00  0.00000000000E+00  0.29534880830E+03  0.29534880830E+03  0.00000000000E+00 0.  1.
          2   -1    0    0  501    0  0.00000000000E+00 -0.00000000000E+00 -0.72913063798E+02  0.72913063798E+02  0.00000000000E+00 0. -1.
         23    2    1    2    0    0 -0.35869472296E+02 -0.79217477090E+02  0.60000316682E+02  0.16366849320E+03  0.12500123977E+03 0.  0.
          5    1    3    3  502    0 -0.13570068956E+02 -0.11075013344E+03  0.33495668253E+02  0.11659240379E+03  0.47000000000E+01 0. -1.
         -5    1    3    3    0  502 -0.22299403340E+02  0.31532656353E+02  0.26504648428E+02  0.47076089412E+02  0.47000000000E+01 0. -1.
        -11    1    1    2    0    0  0.28386980655E+02 -0.37349979614E+01  0.90057812948E+01  0.30014579410E+02  0.00000000000E+00 0. -1.
         11    1    1    2    0    0  0.74824916415E+01  0.82952475051E+02  0.15342964652E+03  0.17457879949E+03  0.00000000000E+00 0.  1.
<mgrwt>
<rscale>  0 0.14476599E+03</rscale>
<asrwt>0</asrwt>
<pdfrwt beam="2">  1        2 0.11217395E-01 0.15227389E+03</pdfrwt>
<pdfrwt beam="1">  1       -2 0.45438278E-01 0.15227389E+03</pdfrwt>
<totfact> 0.25017985E+03</totfact>
</mgrwt>
</event>
<event>
 7    1  0.5928109E-006  0.1441341E+03  0.7546771E-02  0.1217762E+00
          2   -1    0    0  501    0  0.00000000000E+00  0.00000000000E+00  0.27959233394E+03  0.27959233394E+03  0.00000000000E+00 0.  1.
         -2   -1    0    0    0  501 -0.00000000000E+00 -0.00000000000E+00 -0.64981129697E+02  0.64981129697E+02  0.00000000000E+00 0. -1.
         23    2    1    2    0    0  0.46830836484E+02  0.54393421606E+02  0.16086278148E+03  0.21598952998E+03  0.12499148385E+03 0.  0.
          5    1    3    3  502    0  0.62439828062E+02 -0.16420942212E+02  0.10878592844E+03  0.12658928746E+03  0.47000000000E+01 0. -1.
         -5    1    3    3    0  502 -0.15608991578E+02  0.70814363818E+02  0.52076853034E+02  0.89400242522E+02  0.47000000000E+01 0. -1.
        -11    1    1    2    0    0  0.14958182672E+02  0.37449175785E+01  0.39698055460E+02  0.42587641914E+02  0.00000000000E+00 0.  1.
         11    1    1    2    0    0 -0.61789019156E+02 -0.58138339185E+02  0.14050367299E+02  0.85996291738E+02  0.00000000000E+00 0. -1.
<mgrwt>
<rscale>  0 0.13675604E+03</rscale>
<asrwt>0</asrwt>
<pdfrwt beam="1">  1        2 0.43014205E-01 0.14413411E+03</pdfrwt>
<pdfrwt beam="2">  1       -2 0.99970970E-02 0.14413411E+03</pdfrwt>
<totfact> 0.74821774E+03</totfact>
</mgrwt>
</event>
<event>
 7    1  0.1921013E-005  0.2716495E+03  0.7546771E-02  0.1102246E+00
         -3   -1    0    0    0  501 -0.00000000000E+00  0.00000000000E+00  0.66932670818E+02  0.66932670818E+02  0.00000000000E+00 0.  1.
          3   -1    0    0  501    0  0.00000000000E+00 -0.00000000000E+00 -0.12175703024E+04  0.12175703024E+04  0.00000000000E+00 0. -1.
         23    2    1    2    0    0 -0.23614607568E+03 -0.49025691143E+02 -0.82573938480E+03  0.86927498689E+03  0.12499993507E+03 0.  0.
          5    1    3    3  502    0 -0.84339768229E+02  0.58406581501E+00 -0.12718711388E+03  0.15268329828E+03  0.47000000000E+01 0. -1.
         -5    1    3    3    0  502 -0.15180630745E+03 -0.49609756958E+02 -0.69855227093E+03  0.71659168861E+03  0.47000000000E+01 0. -1.
        -11    1    1    2    0    0  0.19326751944E+03  0.18032970130E+02 -0.19579636975E+03  0.27570589491E+03  0.00000000000E+00 0.  1.
         11    1    1    2    0    0  0.42878556240E+02  0.30992721014E+02 -0.12910187705E+03  0.13952209144E+03  0.00000000000E+00 0. -1.
<mgrwt>
<rscale>  0 0.26831738E+03</rscale>
<asrwt>0</asrwt>
<pdfrwt beam="2">  1        3 0.18731849E+00 0.27164954E+03</pdfrwt>
<pdfrwt beam="1">  1       -3 0.10297335E-01 0.27164954E+03</pdfrwt>
<totfact> 0.33634055E+01</totfact>
</mgrwt>
</event>
<event>
 7    1  0.5928109E-006  0.1376274E+03  0.7546771E-02  0.1228795E+00
         -3   -1    0    0    0  501 -0.00000000000E+00  0.00000000000E+00  0.60515988572E+02  0.60515988572E+02  0.00000000000E+00 0.  1.
          3   -1    0    0  501    0  0.00000000000E+00 -0.00000000000E+00 -0.31196055806E+03  0.31196055806E+03  0.00000000000E+00 0. -1.
         23    2    1    2    0    0 -0.57422008498E+02  0.42318293398E+01 -0.22321981754E+03  0.26223729330E+03  0.12500446238E+03 0.  0.
          5    1    3    3  502    0 -0.39492834957E+02 -0.40094761741E+02 -0.31658701913E+02  0.64742855505E+02  0.47000000000E+01 0.  1.
         -5    1    3    3    0  502 -0.17929173540E+02  0.44326591081E+02 -0.19156111562E+03  0.19749443779E+03  0.47000000000E+01 0.  1.
        -11    1    1    2    0    0  0.14441764550E+02 -0.16929186055E+02  0.29630805429E+02  0.37055991880E+02  0.00000000000E+00 0.  1.
         11    1    1    2    0    0  0.42980243947E+02  0.12697356716E+02 -0.57855557382E+02  0.73183261456E+02  0.00000000000E+00 0. -1.
<mgrwt>
<rscale>  0 0.12910177E+03</rscale>
<asrwt>0</asrwt>
<pdfrwt beam="2">  1        3 0.47993931E-01 0.13762744E+03</pdfrwt>
<pdfrwt beam="1">  1       -3 0.93101522E-02 0.13762744E+03</pdfrwt>
<totfact> 0.83447074E+02</totfact>
</mgrwt>
</event>
<event>
 7    1  0.5928109E-006  0.1292257E+03  0.7546771E-02  0.1243659E+00
          2   -1    0    0  501    0  0.00000000000E+00  0.00000000000E+00  0.35589551652E+03  0.35589551652E+03  0.00000000000E+00 0. -1.
         -2   -1    0    0    0  501 -0.00000000000E+00 -0.00000000000E+00 -0.35405101837E+02  0.35405101837E+02  0.00000000000E+00 0.  1.
         23    2    1    2    0    0  0.29618152025E+02  0.13578842320E+02  0.17510452070E+03  0.21762555545E+03  0.12505066704E+03 0.  0.
          5    1    3    3  502    0 -0.30432364617E+02 -0.38642595555E+02  0.71083648566E+02  0.86569937627E+02  0.47000000000E+01 0. -1.
         -5    1    3    3    0  502  0.60050516642E+02  0.52221437875E+02  0.10402087213E+03  0.13105561782E+03  0.47000000000E+01 0. -1.
        -11    1    1    2    0    0 -0.13156093238E+02 -0.33949440862E+02  0.14278658575E+03  0.14735554415E+03  0.00000000000E+00 0. -1.
         11    1    1    2    0    0 -0.16462058786E+02  0.20370598542E+02  0.25993082422E+01  0.26319518760E+02  0.00000000000E+00 0.  1.
<mgrwt>
<rscale>  0 0.11965986E+03</rscale>
<asrwt>0</asrwt>
<pdfrwt beam="1">  1        2 0.54753154E-01 0.12922573E+03</pdfrwt>
<pdfrwt beam="2">  1       -2 0.54469390E-02 0.12922573E+03</pdfrwt>
<totfact> 0.14613676E+04</totfact>
</mgrwt>
</event>
<event>
 7    1  0.5928109E-006  0.2136947E+03  0.7546771E-02  0.1142661E+00
         -2   -1    0    0    0  501 -0.00000000000E+00  0.00000000000E+00  0.42383988415E+02  0.42383988415E+02  0.00000000000E+00 0.  1.
          2   -1    0    0  501    0  0.00000000000E+00 -0.00000000000E+00 -0.10060465374E+04  0.10060465374E+04  0.00000000000E+00 0. -1.
         23    2    1    2    0    0  0.11583664355E+03 -0.12892538846E+03 -0.58702995776E+03  0.62471562157E+03  0.12500221100E+03 0.  0.
          5    1    3    3  502    0  0.13361371979E+03 -0.13882211420E+03 -0.52442433490E+03  0.55871923051E+03  0.47000000000E+01 0.  1.
         -5    1    3    3    0  502 -0.17777076241E+02  0.98967257361E+01 -0.62605622851E+02  0.65996391056E+02  0.47000000000E+01 0.  1.
        -11    1    1    2    0    0 -0.10158469389E+03  0.63409865905E+02 -0.18204892773E+03  0.21790381643E+03  0.00000000000E+00 0.  1.
         11    1    1    2    0    0 -0.14251949653E+02  0.65515522558E+02 -0.19458366347E+03  0.20581108779E+03  0.00000000000E+00 0. -1.
<mgrwt>
<rscale>  0 0.20862310E+03</rscale>
<asrwt>0</asrwt>
<pdfrwt beam="2">  1        2 0.15477640E+00 0.21369473E+03</pdfrwt>
<pdfrwt beam="1">  1       -2 0.65206133E-02 0.21369473E+03</pdfrwt>
<totfact> 0.33664486E+03</totfact>
</mgrwt>
</event>
<event>
 7    1  0.5928109E-006  0.1358197E+03  0.7546771E-02  0.1229698E+00
         -2   -1    0    0    0  501 -0.00000000000E+00  0.00000000000E+00  0.99910926811E+02  0.99910926811E+02  0.00000000000E+00 0.  1.
          2   -1    0    0  501    0  0.00000000000E+00 -0.00000000000E+00 -0.29564296317E+03  0.29564296317E+03  0.00000000000E+00 0. -1.
         23    2    1    2    0    0 -0.44681223530E+02 -0.28763461521E+02 -0.24183614257E+03  0.27736567972E+03  0.12499300772E+03 0.  0.
          5    1    3    3  502    0  0.11836302869E+02  0.38772277265E+02 -0.40187491294E+02  0.57275754089E+02  0.47000000000E+01 0. -1.
         -5    1    3    3    0  502 -0.56517526399E+02 -0.67535738786E+02 -0.20164865128E+03  0.22008992563E+03  0.47000000000E+01 0. -1.
        -11    1    1    2    0    0  0.46430495830E+02  0.23627085210E+01 -0.17205451404E+02  0.49572178614E+02  0.00000000000E+00 0. -1.
         11    1    1    2    0    0 -0.17492722999E+01  0.26400753000E+02  0.63309557618E+02  0.68616031642E+02  0.00000000000E+00 0.  1.
<mgrwt>
<rscale>  0 0.12850033E+03</rscale>
<asrwt>0</asrwt>
<pdfrwt beam="2">  1        2 0.45483532E-01 0.13581974E+03</pdfrwt>
<pdfrwt beam="1">  1       -2 0.15370912E-01 0.13581974E+03</pdfrwt>
<totfact> 0.35251529E+03</totfact>
</mgrwt>
</event>
<event>
 6    1  0.5928109E-006  0.1960979E+03  0.7546771E-02  0.1162063E+00
          2   -1    0    0  501    0  0.00000000000E+00  0.00000000000E+00  0.35264548071E+02  0.35264548071E+02  0.00000000000E+00 0. -1.
         -2   -1    0    0    0  501 -0.00000000000E+00 -0.00000000000E+00 -0.11049545291E+04  0.11049545291E+04  0.00000000000E+00 0.  1.
          5    1    1    2  502    0  0.31536753376E+02  0.14294730619E+03 -0.22272401871E+03  0.26656439685E+03  0.47000000000E+01 0. -1.
         -5    1    1    2    0  502  0.35692684887E+02 -0.30514696904E+02 -0.10914749439E+03  0.11891332984E+03  0.47000000000E+01 0.  1.
        -11    1    1    2    0    0 -0.44715054191E+02 -0.63831039060E+01 -0.13799311869E+03  0.14519738597E+03  0.00000000000E+00 0. -1.
         11    1    1    2    0    0 -0.22514384071E+02 -0.10604950537E+03 -0.59982534919E+03  0.60954396446E+03  0.00000000000E+00 0.  1.
<mgrwt>
<rscale>  0 0.18606103E+03</rscale>
<asrwt>0</asrwt>
<pdfrwt beam="1">  1        2 0.54253158E-02 0.19609787E+03</pdfrwt>
<pdfrwt beam="2">  1       -2 0.16999298E+00 0.19609787E+03</pdfrwt>
<totfact> 0.31938582E+02</totfact>
</mgrwt>
</event>
<event>
 6    1  0.5928109E-006  0.1464772E+03  0.7546771E-02  0.1224498E+00
          2   -1    0    0  501    0  0.00000000000E+00  0.00000000000E+00  0.79795888222E+03  0.79795888222E+03  0.00000000000E+00 0. -1.
         -2   -1    0    0    0  501 -0.00000000000E+00 -0.00000000000E+00 -0.23403960897E+02  0.23403960897E+02  0.00000000000E+00 0.  1.
          5    1    1    2  502    0  0.57251516978E+02 -0.44021270470E+02  0.45140439057E+03  0.45716913968E+03  0.47000000000E+01 0. -1.
         -5    1    1    2    0  502 -0.31323420226E+02  0.55830697714E+02  0.18317953710E+03  0.19410063440E+03  0.47000000000E+01 0.  1.
        -11    1    1    2    0    0 -0.46338632742E+02 -0.73705887352E+01  0.24855566012E+02  0.53097962526E+02  0.00000000000E+00 0.  1.
         11    1    1    2    0    0  0.20410535989E+02 -0.44388385092E+01  0.11511542764E+03  0.11699510652E+03  0.00000000000E+00 0. -1.
<mgrwt>
<rscale>  0 0.13201384E+03</rscale>
<asrwt>0</asrwt>
<pdfrwt beam="1">  1        2 0.12276288E+00 0.14647716E+03</pdfrwt>
<pdfrwt beam="2">  1       -2 0.36006100E-02 0.14647716E+03</pdfrwt>
<totfact> 0.11039269E+04</totfact>
</mgrwt>
</event>
<event>
 7    1  0.5928109E-006  0.1502263E+03  0.7546771E-02  0.1209484E+00
          1   -1    0    0  501    0  0.00000000000E+00  0.00000000000E+00  0.30449921683E+03  0.30449921683E+03  0.00000000000E+00 0. -1.
         -1   -1    0    0    0  501 -0.00000000000E+00 -0.00000000000E+00 -0.72864114158E+02  0.72864114158E+02  0.00000000000E+00 0.  1.
         23    2    1    2    0    0  0.17399693384E+02 -0.81492659349E+02  0.20043571103E+03  0.25048434604E+03  0.12499652193E+03 0.  0.
          5    1    3    3  502    0  0.63325209258E+02 -0.45721069189E+02  0.16383360127E+03  0.18156000991E+03  0.47000000000E+01 0. -1.
         -5    1    3    3    0  502 -0.45925515874E+02 -0.35771590160E+02  0.36602109761E+02  0.68924336122E+02  0.47000000000E+01 0. -1.
        -11    1    1    2    0    0  0.17433323093E+02 -0.78407160701E+01  0.24060199660E+02  0.30729314835E+02  0.00000000000E+00 0. -1.
         11    1    1    2    0    0 -0.34833016477E+02  0.89333375419E+02  0.71391919765E+01  0.96149670112E+02  0.00000000000E+00 0.  1.
<mgrwt>
<rscale>  0 0.14289627E+03</rscale>
<asrwt>0</asrwt>
<pdfrwt beam="1">  1        1 0.46846032E-01 0.15022627E+03</pdfrwt>
<pdfrwt beam="2">  1       -1 0.11209864E-01 0.15022627E+03</pdfrwt>
<totfact> 0.42413167E+03</totfact>
</mgrwt>
</event>
<event>
 7    1  0.5928109E-006  0.1284494E+03  0.7546771E-02  0.1244540E+00
         -1   -1    0    0    0  501 -0.00000000000E+00  0.00000000000E+00  0.27953874843E+02  0.27953874843E+02  0.00000000000E+00 0.  1.
          1   -1    0    0  501    0  0.00000000000E+00 -0.00000000000E+00 -0.52293208484E+03  0.52293208484E+03  0.00000000000E+00 0. -1.
         23    2    1    2    0    0 -0.10009680618E+01 -0.23909884495E+02 -0.38327324060E+03  0.40422470854E+03  0.12620044978E+03 0.  0.
          5    1    3    3  502    0  0.69979333659E+01 -0.34953841378E+02 -0.38752341294E+03  0.38918790793E+03  0.47000000000E+01 0. -1.
         -5    1    3    3    0  502 -0.79989014277E+01  0.11043956883E+02  0.42501723467E+01  0.15036800612E+02  0.47000000000E+01 0.  1.
        -11    1    1    2    0    0  0.38940511334E+02 -0.80100350106E+01 -0.75298773085E+02  0.85149452799E+02  0.00000000000E+00 0. -1.
         11    1    1    2    0    0 -0.37939543272E+02  0.31919919506E+02 -0.36406196310E+02  0.61511798338E+02  0.00000000000E+00 0.  1.
<mgrwt>
<rscale>  0 0.11912943E+03</rscale>
<asrwt>0</asrwt>
<pdfrwt beam="2">  1        1 0.80451091E-01 0.12844936E+03</pdfrwt>
<pdfrwt beam="1">  1       -1 0.43005961E-02 0.12844936E+03</pdfrwt>
<totfact> 0.89231694E+03</totfact>
</mgrwt>
</event>
<event>
 7    1  0.5928109E-006  0.1407710E+03  0.7546771E-02  0.1223065E+00
          2   -1    0    0  501    0  0.00000000000E+00  0.00000000000E+00  0.14759580331E+03  0.14759580331E+03  0.00000000000E+00 0. -1.
         -2   -1    0    0    0  501 -0.00000000000E+00 -0.00000000000E+00 -0.11727397190E+03  0.11727397190E+03  0.00000000000E+00 0.  1.
         23    2    1    2    0    0 -0.91033836133E+01 -0.64099043616E+02  0.53004460862E+02  0.15041923193E+03  0.12499965391E+03 0.  0.
          5    1    3    3  502    0 -0.56726466462E+02 -0.45677549904E+02 -0.48105230586E+01  0.73140697936E+02  0.47000000000E+01 0.  1.
         -5    1    3    3    0  502  0.47623082849E+02 -0.18421493712E+02  0.57814983920E+02  0.77278533994E+02  0.47000000000E+01 0.  1.
        -11    1    1    2    0    0 -0.31745290793E+02  0.36555595895E+02  0.16870348324E+02  0.51270690763E+02  0.00000000000E+00 0. -1.
         11    1    1    2    0    0  0.40848674406E+02  0.27543447721E+02 -0.39552977771E+02  0.63179852513E+02  0.00000000000E+00 0.  1.
<mgrwt>
<rscale>  0 0.13300380E+03</rscale>
<asrwt>0</asrwt>
<pdfrwt beam="1">  1        2 0.22707047E-01 0.14077099E+03</pdfrwt>
<pdfrwt beam="2">  1       -2 0.18042149E-01 0.14077099E+03</pdfrwt>
<totfact> 0.57426400E+03</totfact>
</mgrwt>
</event>
<event>
 7    1  0.5928109E-006  0.1276722E+03  0.7546771E-02  0.1246735E+00
         -1   -1    0    0    0  501 -0.00000000000E+00  0.00000000000E+00  0.18957696127E+03  0.18957696127E+03  0.00000000000E+00 0.  1.
          1   -1    0    0  501    0  0.00000000000E+00 -0.00000000000E+00 -0.68789353514E+02  0.68789353514E+02  0.00000000000E+00 0. -1.
         23    2    1    2    0    0 -0.28378249605E+01  0.25800491561E+02  0.35599696754E+02  0.13254253170E+03  0.12500586261E+03 0.  0.
          5    1    3    3  502    0 -0.11050295758E+02  0.19954841883E+02 -0.45271150171E+02  0.50910429076E+02  0.47000000000E+01 0. -1.
         -5    1    3    3    0  502  0.82124707978E+01  0.58456496771E+01  0.80870846925E+02  0.81632102626E+02  0.47000000000E+01 0. -1.
        -11    1    1    2    0    0 -0.19848776837E+02 -0.14731557721E+02  0.95432164091E+02  0.98581391134E+02  0.00000000000E+00 0.  1.
         11    1    1    2    0    0  0.22686601797E+02 -0.11068933839E+02 -0.10244253092E+02  0.27242391945E+02  0.00000000000E+00 0. -1.
<mgrwt>
<rscale>  0 0.11782141E+03</rscale>
<asrwt>0</asrwt>
<pdfrwt beam="2">  1        1 0.10582978E-01 0.12767218E+03</pdfrwt>
<pdfrwt beam="1">  1       -1 0.29165686E-01 0.12767218E+03</pdfrwt>
<totfact> 0.60271140E+03</totfact>
</mgrwt>
</event>
<event>
 7    1  0.5928109E-006  0.5114465E+03  0.7546771E-02  0.1010834E+00
         -2   -1    0    0    0  501 -0.00000000000E+00  0.00000000000E+00  0.16593678847E+03  0.16593678847E+03  0.00000000000E+00 0.  1.
          2   -1    0    0  501    0  0.00000000000E+00 -0.00000000000E+00 -0.39409216701E+03  0.39409216701E+03  0.00000000000E+00 0. -1.
         23    2    1    2    0    0  0.94483523304E+02 -0.51627522457E+02 -0.26060716197E+03  0.30843622529E+03  0.12499709976E+03 0.  0.
          5    1    3    3  502    0  0.11831268681E+03 -0.14001842623E+02 -0.20358854211E+03  0.23593288863E+03  0.47000000000E+01 0. -1.
         -5    1    3    3    0  502 -0.23829163506E+02 -0.37625679834E+02 -0.57018619858E+02  0.72503336660E+02  0.47000000000E+01 0. -1.
        -11    1    1    2    0    0 -0.84060302477E+02  0.10606773719E+03  0.97001136912E+02  0.16651041976E+03  0.00000000000E+00 0.  1.
         11    1    1    2    0    0 -0.10423220827E+02 -0.54440214734E+02 -0.64549353482E+02  0.85082310427E+02  0.00000000000E+00 0. -1.
<mgrwt>
<rscale>  0 0.51144653E+03</rscale>
<asrwt>0</asrwt>
<pdfrwt beam="2">  1        2 0.60629563E-01 0.51144653E+03</pdfrwt>
<pdfrwt beam="1">  1       -2 0.25528737E-01 0.51144653E+03</pdfrwt>
<totfact> 0.11169855E+03</totfact>
</mgrwt>
</event>
<event>
 7    1  0.5928109E-006  0.1292821E+03  0.7546771E-02  0.1240755E+00
          1   -1    0    0  501    0  0.00000000000E+00  0.00000000000E+00  0.42564387017E+03  0.42564387017E+03  0.00000000000E+00 0. -1.
         -1   -1    0    0    0  501 -0.00000000000E+00 -0.00000000000E+00 -0.31868089741E+02  0.31868089741E+02  0.00000000000E+00 0.  1.
         23    2    1    2    0    0 -0.31441391653E+02 -0.99630496421E+01  0.25727892286E+03  0.28793453003E+03  0.12500410380E+03 0.  0.
          5    1    3    3  502    0  0.99195208130E+00 -0.53702051951E+02  0.49864559320E+02  0.73440170403E+02  0.47000000000E+01 0.  1.
         -5    1    3    3    0  502 -0.32433343735E+02  0.43739002309E+02  0.20741436354E+03  0.21449435963E+03  0.47000000000E+01 0.  1.
        -11    1    1    2    0    0  0.47398459646E+02 -0.79895402982E+01  0.22490889108E+02  0.53068699097E+02  0.00000000000E+00 0.  1.
         11    1    1    2    0    0 -0.15957067992E+02  0.17952589940E+02  0.11400596846E+03  0.11650873079E+03  0.00000000000E+00 0. -1.
<mgrwt>
<rscale>  0 0.12143075E+03</rscale>
<asrwt>0</asrwt>
<pdfrwt beam="1">  1        1 0.65483668E-01 0.12928205E+03</pdfrwt>
<pdfrwt beam="2">  1       -1 0.49027833E-02 0.12928205E+03</pdfrwt>
<totfact> 0.95962726E+03</totfact>
</mgrwt>
</event>
<event>
 7    1  0.5928109E-006  0.1278252E+03  0.7546771E-02  0.1244895E+00
          3   -1    0    0  501    0  0.00000000000E+00  0.00000000000E+00  0.17881357301E+03  0.17881357301E+03  0.00000000000E+00 0. -1.
         -3   -1    0    0    0  501 -0.00000000000E+00 -0.00000000000E+00 -0.22017979609E+03  0.22017979609E+03  0.00000000000E+00 0.  1.
         23    2    1    2    0    0 -0.18620562260E+02  0.18902690969E+02  0.14266002657E+03  0.19154934731E+03  0.12504092213E+03 0.  0.
          5    1    3    3  502    0 -0.29891355029E+02  0.69484831771E+02  0.85169335697E+02  0.11400675723E+03  0.47000000000E+01 0.  1.
         -5    1    3    3    0  502  0.11270792769E+02 -0.50582140802E+02  0.57490690877E+02  0.77542590073E+02  0.47000000000E+01 0.  1.
        -11    1    1    2    0    0 -0.21507876758E+02  0.15146827471E+02 -0.12760449637E+03  0.13028784532E+03  0.00000000000E+00 0.  1.
         11    1    1    2    0    0  0.40128439018E+02 -0.34049518440E+02 -0.56421753288E+02  0.77156176475E+02  0.00000000000E+00 0. -1.
<mgrwt>
<rscale>  0 0.11891668E+03</rscale>
<asrwt>0</asrwt>
<pdfrwt beam="1">  1        3 0.27509780E-01 0.12782515E+03</pdfrwt>
<pdfrwt beam="2">  1       -3 0.33873815E-01 0.12782515E+03</pdfrwt>
<totfact> 0.24939559E+02</totfact>
</mgrwt>
</event>
<event>
 7    1  0.5928109E-006  0.1484691E+03  0.7546771E-02  0.1212953E+00
          1   -1    0    0  501    0  0.00000000000E+00  0.00000000000E+00  0.14369271087E+03  0.14369271087E+03  0.00000000000E+00 0. -1.
         -1   -1    0    0    0  501 -0.00000000000E+00 -0.00000000000E+00 -0.14681005205E+03  0.14681005205E+03  0.00000000000E+00 0.  1.
         23    2    1    2    0    0  0.32577928761E+02 -0.73191916937E+02  0.55440019125E+02  0.15848241559E+03  0.12499880873E+03 0.  0.
          5    1    3    3  502    0  0.91418396400E+01 -0.10349413544E+03  0.59255723878E+02  0.11969937391E+03  0.47000000000E+01 0.  1.
         -5    1    3    3    0  502  0.23436089121E+02  0.30302218502E+02 -0.38157047526E+01  0.38783041683E+02  0.47000000000E+01 0.  1.
        -11    1    1    2    0    0  0.17107075495E+02  0.39167448678E+02 -0.57687665867E+02  0.71795597784E+02  0.00000000000E+00 0.  1.
         11    1    1    2    0    0 -0.49685004257E+02  0.34024468259E+02 -0.86969443607E+00  0.60224749536E+02  0.00000000000E+00 0. -1.
<mgrwt>
<rscale>  0 0.14027966E+03</rscale>
<asrwt>0</asrwt>
<pdfrwt beam="1">  1        1 0.22106571E-01 0.14846912E+03</pdfrwt>
<pdfrwt beam="2">  1       -1 0.22586162E-01 0.14846912E+03</pdfrwt>
<totfact> 0.35766972E+03</totfact>
</mgrwt>
</event>
<event>
 7    1  0.5928109E-006  0.1705294E+03  0.7546771E-02  0.1183598E+00
         -1   -1    0    0    0  501 -0.00000000000E+00  0.00000000000E+00  0.64794403998E+03  0.64794403998E+03  0.00000000000E+00 0.  1.
          1   -1    0    0  501    0  0.00000000000E+00 -0.00000000000E+00 -0.54739564197E+02  0.54739564197E+02  0.00000000000E+00 0. -1.
         23    2    1    2    0    0 -0.75681056628E+02  0.87956673773E+02  0.12444609359E+03  0.21110922643E+03  0.12496510105E+03 0.  0.
          5    1    3    3  502    0 -0.61598600157E+02  0.12012495278E+03  0.99923614240E+02  0.16802145847E+03  0.47000000000E+01 0.  1.
         -5    1    3    3    0  502 -0.14082456471E+02 -0.32168279008E+02  0.24522479346E+02  0.43087767961E+02  0.47000000000E+01 0.  1.
        -11    1    1    2    0    0  0.16505895475E+02 -0.84295930108E+02  0.22858071092E+03  0.24418720242E+03  0.00000000000E+00 0.  1.
         11    1    1    2    0    0  0.59175161154E+02 -0.36607436652E+01  0.24017767128E+03  0.24738717534E+03  0.00000000000E+00 0. -1.
<mgrwt>
<rscale>  0 0.16460086E+03</rscale>
<asrwt>0</asrwt>
<pdfrwt beam="2">  1        1 0.84214719E-02 0.17052940E+03</pdfrwt>
<pdfrwt beam="1">  1       -1 0.99683693E-01 0.17052940E+03</pdfrwt>
<totfact> 0.81693628E+02</totfact>
</mgrwt>
</event>
<event>
 7    1  0.5928109E-006  0.1405199E+03  0.7546771E-02  0.1223691E+00
          1   -1    0    0  501    0  0.00000000000E+00  0.00000000000E+00  0.70910593210E+03  0.70910593210E+03  0.00000000000E+00 0. -1.
         -1   -1    0    0    0  501 -0.00000000000E+00 -0.00000000000E+00 -0.24884833130E+02  0.24884833130E+02  0.00000000000E+00 0.  1.
         23    2    1    2    0    0  0.42875311629E+02  0.47782720875E+02  0.49394383853E+03  0.51354295623E+03  0.12499748600E+03 0.  0.
          5    1    3    3  502    0 -0.17498720439E+02 -0.21980747290E+02  0.33732141468E+02  0.44150943778E+02  0.47000000000E+01 0. -1.
         -5    1    3    3    0  502  0.60374032068E+02  0.69763468165E+02  0.46021169706E+03  0.46939201245E+03  0.47000000000E+01 0. -1.
        -11    1    1    2    0    0  0.15494497960E+02 -0.49521807122E+02  0.74669828143E+02  0.90928939742E+02  0.00000000000E+00 0.  1.
         11    1    1    2    0    0 -0.58369809589E+02  0.17390862475E+01  0.11560743230E+03  0.12951886926E+03  0.00000000000E+00 0. -1.
<mgrwt>
<rscale>  0 0.13257000E+03</rscale>
<asrwt>0</asrwt>
<pdfrwt beam="1">  1        1 0.10909320E+00 0.14051994E+03</pdfrwt>
<pdfrwt beam="2">  1       -1 0.38284364E-02 0.14051994E+03</pdfrwt>
<totfact> 0.70135025E+03</totfact>
</mgrwt>
</event>
<event>
 7    1  0.5928109E-006  0.1297399E+03  0.7546771E-02  0.1241810E+00
          2   -1    0    0  501    0  0.00000000000E+00  0.00000000000E+00  0.21101050265E+03  0.21101050265E+03  0.00000000000E+00 0. -1.
         -2   -1    0    0    0  501 -0.00000000000E+00 -0.00000000000E+00 -0.61247725667E+02  0.61247725667E+02  0.00000000000E+00 0.  1.
         23    2    1    2    0    0 -0.33046268168E+02 -0.10765931586E+02  0.80297356763E+02  0.15257818163E+03  0.12499789952E+03 0.  0.
          5    1    3    3  502    0 -0.24365188113E+02  0.44430719051E+02 -0.43145253454E+01  0.51073048824E+02  0.47000000000E+01 0. -1.
         -5    1    3    3    0  502 -0.86810800555E+01 -0.55196650637E+02  0.84611882108E+02  0.10150513281E+03  0.47000000000E+01 0. -1.
        -11    1    1    2    0    0  0.38790745441E+02  0.28179167702E+02  0.11427588365E+00  0.47945807775E+02  0.00000000000E+00 0.  1.
         11    1    1    2    0    0 -0.57444772730E+01 -0.17413236116E+02  0.69351144340E+02  0.71734238913E+02  0.00000000000E+00 0. -1.
<mgrwt>
<rscale>  0 0.12078372E+03</rscale>
<asrwt>0</asrwt>
<pdfrwt beam="1">  1        2 0.32463154E-01 0.12973988E+03</pdfrwt>
<pdfrwt beam="2">  1       -2 0.94227271E-02 0.12973988E+03</pdfrwt>
<totfact> 0.11001476E+04</totfact>
</mgrwt>
</event>
<event>
 7    1  0.5928109E-006  0.1595631E+03  0.7546771E-02  0.1197219E+00
         -2   -1    0    0    0  501 -0.00000000000E+00  0.00000000000E+00  0.43327940754E+02  0.43327940754E+02  0.00000000000E+00 0.  1.
          2   -1    0    0  501    0  0.00000000000E+00 -0.00000000000E+00 -0.52338412689E+03  0.52338412689E+03  0.00000000000E+00 0. -1.
         23    2    1    2    0    0  0.26606853239E+02 -0.95581375337E+02 -0.32411552143E+03  0.36126342185E+03  0.12496665469E+03 0.  0.
          5    1    3    3  502    0  0.49630969195E+02  0.16858852235E+01 -0.55536178557E+02  0.74648726988E+02  0.47000000000E+01 0. -1.
         -5    1    3    3    0  502 -0.23024115956E+02 -0.97267260560E+02 -0.26857934287E+03  0.28661469486E+03  0.47000000000E+01 0. -1.
        -11    1    1    2    0    0 -0.48796583331E+02  0.52955546981E+02 -0.45958021642E+02  0.85425618254E+02  0.00000000000E+00 0.  1.
         11    1    1    2    0    0  0.22189730092E+02  0.42625828356E+02 -0.10998264307E+03  0.12002302754E+03  0.00000000000E+00 0. -1.
<mgrwt>
<rscale>  0 0.15267949E+03</rscale>
<asrwt>0</asrwt>
<pdfrwt beam="2">  1        2 0.80520637E-01 0.15956312E+03</pdfrwt>
<pdfrwt beam="1">  1       -2 0.66658369E-02 0.15956312E+03</pdfrwt>
<totfact> 0.71916487E+03</totfact>
</mgrwt>
</event>
<event>
 7    1  0.5928109E-006  0.1467518E+03  0.7546771E-02  0.1213797E+00
         -2   -1    0    0    0  501 -0.00000000000E+00  0.00000000000E+00  0.39936325404E+02  0.39936325404E+02  0.00000000000E+00 0.  1.
          2   -1    0    0  501    0  0.00000000000E+00 -0.00000000000E+00 -0.45241396074E+03  0.45241396074E+03  0.00000000000E+00 0. -1.
         23    2    1    2    0    0 -0.52934135690E+02  0.55739770206E+02 -0.25411654138E+03  0.29344728890E+03  0.12500859993E+03 0.  0.
          5    1    3    3  502    0 -0.41720922306E+02 -0.31231452013E+02 -0.13995401521E+03  0.14941638239E+03  0.47000000000E+01 0.  1.
         -5    1    3    3    0  502 -0.11213213383E+02  0.86971222220E+02 -0.11416252617E+03  0.14403090651E+03  0.47000000000E+01 0.  1.
        -11    1    1    2    0    0  0.35089220808E+01 -0.44811638223E+02 -0.15837506440E+02  0.47657340092E+02  0.00000000000E+00 0.  1.
         11    1    1    2    0    0  0.49425213609E+02 -0.10928131984E+02 -0.14252358752E+03  0.15124565716E+03  0.00000000000E+00 0. -1.
<mgrwt>
<rscale>  0 0.13965269E+03</rscale>
<asrwt>0</asrwt>
<pdfrwt beam="2">  1        2 0.69602142E-01 0.14675181E+03</pdfrwt>
<pdfrwt beam="1">  1       -2 0.61440506E-02 0.14675181E+03</pdfrwt>
<totfact> 0.95090897E+03</totfact>
</mgrwt>
</event>
<event>
 7    1  0.5928109E-006  0.1805988E+03  0.7546771E-02  0.1173007E+00
         -2   -1    0    0    0  501 -0.00000000000E+00  0.00000000000E+00  0.98208423465E+02  0.98208423465E+02  0.00000000000E+00 0.  1.
          2   -1    0    0  501    0  0.00000000000E+00 -0.00000000000E+00 -0.29973876317E+03  0.29973876317E+03  0.00000000000E+00 0. -1.
         23    2    1    2    0    0 -0.12616127941E+03 -0.32792774382E+02 -0.13864143116E+03  0.22767820647E+03  0.12499553909E+03 0.  0.
          5    1    3    3  502    0  0.14181650502E+01 -0.49451854531E+02 -0.55105721502E+02  0.74203959806E+02  0.47000000000E+01 0.  1.
         -5    1    3    3    0  502 -0.12757944446E+03  0.16659080149E+02 -0.83535709659E+02  0.15347424666E+03  0.47000000000E+01 0.  1.
        -11    1    1    2    0    0  0.83290706794E+01  0.27018230543E+02  0.11803921673E+02  0.30638060757E+02  0.00000000000E+00 0.  1.
         11    1    1    2    0    0  0.11783220873E+03  0.57745438387E+01 -0.74692830220E+02  0.13963091942E+03  0.00000000000E+00 0. -1.
<mgrwt>
<rscale>  0 0.17472612E+03</rscale>
<asrwt>0</asrwt>
<pdfrwt beam="2">  1        2 0.46113656E-01 0.18059878E+03</pdfrwt>
<pdfrwt beam="1">  1       -2 0.15108988E-01 0.18059878E+03</pdfrwt>
<totfact> 0.36210537E+03</totfact>
</mgrwt>
</event>
<event>
 7    1  0.5928109E-006  0.1319013E+03  0.7546771E-02  0.1236049E+00
         -3   -1    0    0    0  501 -0.00000000000E+00  0.00000000000E+00  0.26715206262E+02  0.26715206262E+02  0.00000000000E+00 0.  1.
          3   -1    0    0  501    0  0.00000000000E+00 -0.00000000000E+00 -0.73888255588E+03  0.73888255588E+03  0.00000000000E+00 0. -1.
         23    2    1    2    0    0 -0.37500074345E+00  0.42063560733E+02 -0.59190129893E+03  0.60641991500E+03  0.12501392670E+03 0.  0.
          5    1    3    3  502    0 -0.54607265899E+02  0.89482069614E+01 -0.40867214219E+03  0.41242821642E+03  0.47000000000E+01 0.  1.
         -5    1    3    3    0  502  0.54232265155E+02  0.33115353772E+02 -0.18322915674E+03  0.19399169858E+03  0.47000000000E+01 0.  1.
        -11    1    1    2    0    0  0.20135520275E+02 -0.45426294281E+02 -0.12829790762E+03  0.13758393979E+03  0.00000000000E+00 0. -1.
         11    1    1    2    0    0 -0.19760519532E+02  0.33627335472E+01  0.80318569271E+01  0.21593907353E+02  0.00000000000E+00 0.  1.
<mgrwt>
<rscale>  0 0.12437524E+03</rscale>
<asrwt>0</asrwt>
<pdfrwt beam="2">  1        3 0.11367423E+00 0.13190135E+03</pdfrwt>
<pdfrwt beam="1">  1       -3 0.41100319E-02 0.13190135E+03</pdfrwt>
<totfact> 0.48476455E+02</totfact>
</mgrwt>
</event>
<event>
 7    1  0.5928109E-006  0.1631039E+03  0.7546771E-02  0.1192276E+00
          1   -1    0    0  501    0  0.00000000000E+00  0.00000000000E+00  0.23252055011E+03  0.23252055011E+03  0.00000000000E+00 0. -1.
         -1   -1    0    0    0  501 -0.00000000000E+00 -0.00000000000E+00 -0.10525158310E+03  0.10525158310E+03  0.00000000000E+00 0.  1.
         23    2    1    2    0    0  0.57759229173E+02  0.87413304184E+02  0.11093909823E+03  0.19725713728E+03  0.12500272152E+03 0.  0.
          5    1    3    3  502    0  0.86822699419E+02  0.88153943666E+02  0.11313804838E+03  0.16772479515E+03  0.47000000000E+01 0.  1.
         -5    1    3    3    0  502 -0.29063470247E+02 -0.74063948152E+00 -0.21989501492E+01  0.29532342125E+02  0.47000000000E+01 0.  1.
        -11    1    1    2    0    0 -0.70809885876E+02 -0.94097613874E+02 -0.10593079312E+01  0.11776893906E+03  0.00000000000E+00 0.  1.
         11    1    1    2    0    0  0.13050656703E+02  0.66843096896E+01  0.17389176709E+02  0.22746056868E+02  0.00000000000E+00 0. -1.
<mgrwt>
<rscale>  0 0.15687033E+03</rscale>
<asrwt>0</asrwt>
<pdfrwt beam="1">  1        1 0.35772392E-01 0.16310394E+03</pdfrwt>
<pdfrwt beam="2">  1       -1 0.16192551E-01 0.16310394E+03</pdfrwt>
<totfact> 0.33526981E+03</totfact>
</mgrwt>
</event>
<event>
 7    1  0.5928109E-006  0.1422720E+03  0.7546771E-02  0.1222011E+00
         -1   -1    0    0    0  501 -0.00000000000E+00  0.00000000000E+00  0.13095597344E+03  0.13095597344E+03  0.00000000000E+00 0.  1.
          1   -1    0    0  501    0  0.00000000000E+00 -0.00000000000E+00 -0.12313969521E+03  0.12313969521E+03  0.00000000000E+00 0. -1.
         23    2    1    2    0    0  0.23479117446E+02 -0.63757756328E+02 -0.43667343647E+01  0.14233895171E+03  0.12499995343E+03 0.  0.
          5    1    3    3  502    0  0.11654969364E+02  0.20938773952E+02 -0.42161741038E+02  0.48723433508E+02  0.47000000000E+01 0. -1.
         -5    1    3    3    0  502  0.11824148083E+02 -0.84696530280E+02  0.37795006673E+02  0.93615518205E+02  0.47000000000E+01 0. -1.
        -11    1    1    2    0    0 -0.11602491018E+02  0.13178225284E+02  0.46356433310E+02  0.49570175799E+02  0.00000000000E+00 0.  1.
         11    1    1    2    0    0 -0.11876626428E+02  0.50579531044E+02 -0.34173420709E+02  0.62186541140E+02  0.00000000000E+00 0. -1.
<mgrwt>
<rscale>  0 0.13373925E+03</rscale>
<asrwt>0</asrwt>
<pdfrwt beam="2">  1        1 0.18944568E-01 0.14227195E+03</pdfrwt>
<pdfrwt beam="1">  1       -1 0.20147073E-01 0.14227195E+03</pdfrwt>
<totfact> 0.52240764E+03</totfact>
</mgrwt>
</event>
<event>
 7    1  0.5928109E-006  0.2279986E+03  0.7546771E-02  0.1131656E+00
          1   -1    0    0  501    0  0.00000000000E+00  0.00000000000E+00  0.12342575028E+03  0.12342575028E+03  0.00000000000E+00 0. -1.
         -1   -1    0    0    0  501 -0.00000000000E+00 -0.00000000000E+00 -0.38837201462E+03  0.38837201462E+03  0.00000000000E+00 0.  1.
         23    2    1    2    0    0 -0.12987631977E+03 -0.13960955714E+03 -0.11953947985E+03  0.25743549236E+03  0.12499863442E+03 0.  0.
          5    1    3    3  502    0 -0.93726749161E+02 -0.11212467538E+02 -0.48107492528E+02  0.10605113754E+03  0.47000000000E+01 0.  1.
         -5    1    3    3    0  502 -0.36149570604E+02 -0.12839708960E+03 -0.71431987319E+02  0.15138435482E+03  0.47000000000E+01 0.  1.
        -11    1    1    2    0    0  0.62162450023E+02  0.19069791729E+02 -0.74830370362E+02  0.99133301558E+02  0.00000000000E+00 0.  1.
         11    1    1    2    0    0  0.67713869743E+02  0.12053976541E+03 -0.70576414134E+02  0.15522897098E+03  0.00000000000E+00 0. -1.
<mgrwt>
<rscale>  0 0.22301361E+03</rscale>
<asrwt>0</asrwt>
<pdfrwt beam="1">  1        1 0.18988577E-01 0.22799856E+03</pdfrwt>
<pdfrwt beam="2">  1       -1 0.59749541E-01 0.22799856E+03</pdfrwt>
<totfact> 0.80023970E+02</totfact>
</mgrwt>
</event>
<event>
 7    1  0.5928109E-006  0.1258324E+03  0.7546771E-02  0.1249258E+00
         -2   -1    0    0    0  501 -0.00000000000E+00  0.00000000000E+00  0.11744411602E+03  0.11744411602E+03  0.00000000000E+00 0.  1.
          2   -1    0    0  501    0  0.00000000000E+00 -0.00000000000E+00 -0.10982887411E+03  0.10982887411E+03  0.00000000000E+00 0. -1.
         23    2    1    2    0    0  0.12535934088E+02 -0.71716443252E+01 -0.27573891296E+02  0.12881813812E+03  0.12500084440E+03 0.  0.
          5    1    3    3  502    0  0.26412263931E+02 -0.56168267996E+02  0.12937572729E+02  0.63576354125E+02  0.47000000000E+01 0.  1.
         -5    1    3    3    0  502 -0.13876329843E+02  0.48996623671E+02 -0.40511464025E+02  0.65241783993E+02  0.47000000000E+01 0.  1.
        -11    1    1    2    0    0  0.15398823707E+02 -0.11896334681E+02  0.55630389343E+02  0.58935445777E+02  0.00000000000E+00 0.  1.
         11    1    1    2    0    0 -0.27934757795E+02  0.19067979006E+02 -0.20441256134E+02  0.39519406230E+02  0.00000000000E+00 0. -1.
<mgrwt>
<rscale>  0 0.11634135E+03</rscale>
<asrwt>0</asrwt>
<pdfrwt beam="2">  1        2 0.16896750E-01 0.12583240E+03</pdfrwt>
<pdfrwt beam="1">  1       -2 0.18068326E-01 0.12583240E+03</pdfrwt>
<totfact> 0.79432853E+03</totfact>
</mgrwt>
</event>
<event>
 7    1  0.5928109E-006  0.1290097E+03  0.7546771E-02  0.1243341E+00
         -2   -1    0    0    0  501 -0.00000000000E+00  0.00000000000E+00  0.16774830447E+02  0.16774830447E+02  0.00000000000E+00 0.  1.
          2   -1    0    0  501    0  0.00000000000E+00 -0.00000000000E+00 -0.79697669718E+03  0.79697669718E+03  0.00000000000E+00 0. -1.
         23    2    1    2    0    0 -0.10197870663E+02  0.30249690651E+02 -0.53635189746E+03  0.55164922707E+03  0.12499788586E+03 0.  0.
          5    1    3    3  502    0 -0.62326249864E+02  0.32942330650E+02 -0.22239975604E+03  0.23335273741E+03  0.47000000000E+01 0.  1.
         -5    1    3    3    0  502  0.52128379201E+02 -0.26926399987E+01 -0.31395214142E+03  0.31829648966E+03  0.47000000000E+01 0.  1.
        -11    1    1    2    0    0  0.36676033837E+02 -0.50573682642E+02 -0.14980673106E+03  0.16231107635E+03  0.00000000000E+00 0.  1.
         11    1    1    2    0    0 -0.26478163174E+02  0.20323991990E+02 -0.94043238215E+02  0.99791224211E+02  0.00000000000E+00 0. -1.
<mgrwt>
<rscale>  0 0.11985202E+03</rscale>
<asrwt>0</asrwt>
<pdfrwt beam="2">  1        2 0.12261175E+00 0.12900974E+03</pdfrwt>
<pdfrwt beam="1">  1       -2 0.25807441E-02 0.12900974E+03</pdfrwt>
<totfact> 0.17889200E+04</totfact>
</mgrwt>
</event>
<event>
 7    1  0.5928109E-006  0.1309997E+03  0.7546771E-02  0.1238329E+00
          1   -1    0    0  501    0  0.00000000000E+00  0.00000000000E+00  0.68271459685E+02  0.68271459685E+02  0.00000000000E+00 0. -1.
         -1   -1    0    0    0  501 -0.00000000000E+00 -0.00000000000E+00 -0.29354062545E+03  0.29354062545E+03  0.00000000000E+00 0.  1.
         23    2    1    2    0    0  0.39056849707E+02 -0.30683558867E+01 -0.19658650583E+02  0.13246651069E+03  0.12500424631E+03 0.  0.
          5    1    3    3  502    0  0.47429084437E+02  0.53231372710E+02  0.17533587277E+01  0.71472101956E+02  0.47000000000E+01 0. -1.
         -5    1    3    3    0  502 -0.83722347304E+01 -0.56299728597E+02 -0.21412009311E+02  0.60994408737E+02  0.47000000000E+01 0. -1.
        -11    1    1    2    0    0 -0.63384047092E+02  0.41603774027E+00 -0.19006087060E+03  0.20035180321E+03  0.00000000000E+00 0.  1.
         11    1    1    2    0    0  0.24327197385E+02  0.26523181464E+01 -0.15549644582E+02  0.28993771241E+02  0.00000000000E+00 0. -1.
<mgrwt>
<rscale>  0 0.12293686E+03</rscale>
<asrwt>0</asrwt>
<pdfrwt beam="1">  1        1 0.10503302E-01 0.13099967E+03</pdfrwt>
<pdfrwt beam="2">  1       -1 0.45160096E-01 0.13099967E+03</pdfrwt>
<totfact> 0.28674168E+03</totfact>
</mgrwt>
</event>
<event>
 7    1  0.5928109E-006  0.1339132E+03  0.7546771E-02  0.1235079E+00
         -2   -1    0    0    0  501 -0.00000000000E+00  0.00000000000E+00  0.11814205450E+03  0.11814205450E+03  0.00000000000E+00 0.  1.
          2   -1    0    0  501    0  0.00000000000E+00 -0.00000000000E+00 -0.11759349531E+03  0.11759349531E+03  0.00000000000E+00 0. -1.
         23    2    1    2    0    0 -0.47857993855E+02 -0.33856726043E+01 -0.42150064003E+01  0.13397948636E+03  0.12502354231E+03 0.  0.
          5    1    3    3  502    0  0.34441741413E+02 -0.29342978406E+02 -0.12453071149E+02  0.47163682154E+02  0.47000000000E+01 0. -1.
         -5    1    3    3    0  502 -0.82299735268E+02  0.25957305802E+02  0.82380647491E+01  0.86815804209E+02  0.47000000000E+01 0. -1.
        -11    1    1    2    0    0  0.44770974383E+02 -0.36511968109E+02  0.16449333086E+02  0.60067832668E+02  0.00000000000E+00 0.  1.
         11    1    1    2    0    0  0.30870194715E+01  0.39897640713E+02 -0.11685767501E+02  0.41688230783E+02  0.00000000000E+00 0. -1.
<mgrwt>
<rscale>  0 0.12499379E+03</rscale>
<asrwt>0</asrwt>
<pdfrwt beam="2">  1        2 0.18091307E-01 0.13391317E+03</pdfrwt>
<pdfrwt beam="1">  1       -2 0.18175701E-01 0.13391317E+03</pdfrwt>
<totfact> 0.73069540E+03</totfact>
</mgrwt>
</event>
<event>
 7    1  0.5928109E-006  0.1267089E+03  0.7546771E-02  0.1247839E+00
         -1   -1    0    0    0  501 -0.00000000000E+00  0.00000000000E+00  0.82054656122E+02  0.82054656122E+02  0.00000000000E+00 0.  1.
          1   -1    0    0  501    0  0.00000000000E+00 -0.00000000000E+00 -0.14882451431E+03  0.14882451431E+03  0.00000000000E+00 0. -1.
         23    2    1    2    0    0  0.14059337743E+02  0.15239572316E+02 -0.52415570610E+02  0.13712230430E+03  0.12500089900E+03 0.  0.
          5    1    3    3  502    0  0.62243477732E+02  0.28154019033E+02 -0.53667257507E+02  0.87000941582E+02  0.47000000000E+01 0. -1.
         -5    1    3    3    0  502 -0.48184139989E+02 -0.12914446717E+02  0.12516868963E+01  0.50121362717E+02  0.47000000000E+01 0. -1.
        -11    1    1    2    0    0  0.25845450396E+02 -0.38483730968E+02 -0.95093726186E+01  0.47322436782E+02  0.00000000000E+00 0. -1.
         11    1    1    2    0    0 -0.39904788138E+02  0.23244158653E+02 -0.48449149552E+01  0.46434429347E+02  0.00000000000E+00 0.  1.
<mgrwt>
<rscale>  0 0.11717052E+03</rscale>
<asrwt>0</asrwt>
<pdfrwt beam="2">  1        1 0.22896079E-01 0.12670886E+03</pdfrwt>
<pdfrwt beam="1">  1       -1 0.12623793E-01 0.12670886E+03</pdfrwt>
<totfact> 0.85104001E+03</totfact>
</mgrwt>
</event>
<event>
 7    1  0.5928109E-006  0.1834927E+03  0.7546771E-02  0.1169779E+00
          1   -1    0    0  501    0  0.00000000000E+00  0.00000000000E+00  0.22076437397E+03  0.22076437397E+03  0.00000000000E+00 0. -1.
         -1   -1    0    0    0  501 -0.00000000000E+00 -0.00000000000E+00 -0.13555469822E+03  0.13555469822E+03  0.00000000000E+00 0.  1.
         23    2    1    2    0    0  0.27183142926E+02  0.13155489555E+03  0.49417134538E+02  0.19003061593E+03  0.12499587193E+03 0.  0.
          5    1    3    3  502    0  0.10603461515E+02  0.62527260600E+02 -0.40481529066E+02  0.75385249948E+02  0.47000000000E+01 0.  1.
         -5    1    3    3    0  502  0.16579681412E+02  0.69027634950E+02  0.89898663604E+02  0.11464536598E+03  0.47000000000E+01 0.  1.
        -11    1    1    2    0    0  0.21239783506E+02 -0.59182875526E+02 -0.16118322805E+02  0.64911797764E+02  0.00000000000E+00 0.  1.
         11    1    1    2    0    0 -0.48422926432E+02 -0.72372020025E+02  0.51910864015E+02  0.10137665850E+03  0.00000000000E+00 0. -1.
<mgrwt>
<rscale>  0 0.17797313E+03</rscale>
<asrwt>0</asrwt>
<pdfrwt beam="1">  1        1 0.33963750E-01 0.18349273E+03</pdfrwt>
<pdfrwt beam="2">  1       -1 0.20854569E-01 0.18349273E+03</pdfrwt>
<totfact> 0.23954322E+03</totfact>
</mgrwt>
</event>
<event>
 7    1  0.5928109E-006  0.1613310E+03  0.7546771E-02  0.1194825E+00
          1   -1    0    0  501    0  0.00000000000E+00  0.00000000000E+00  0.66008160410E+02  0.66008160410E+02  0.00000000000E+00 0. -1.
         -1   -1    0    0    0  501 -0.00000000000E+00 -0.00000000000E+00 -0.41254529001E+03  0.41254529001E+03  0.00000000000E+00 0.  1.
         23    2    1    2    0    0  0.90774982099E+02 -0.46513249301E+02 -0.82085406120E+02  0.18101297759E+03  0.12499641764E+03 0.  0.
          5    1    3    3  502    0  0.11162718001E+03 -0.50310664877E+02 -0.95623633596E+02  0.15542766684E+03  0.47000000000E+01 0. -1.
         -5    1    3    3    0  502 -0.20852197915E+02  0.37974155756E+01  0.13538227476E+02  0.25585310749E+02  0.47000000000E+01 0. -1.
        -11    1    1    2    0    0 -0.38531937151E+02  0.24638647891E+00 -0.19612785475E+03  0.19987722806E+03  0.00000000000E+00 0.  1.
         11    1    1    2    0    0 -0.52243044948E+02  0.46266862823E+02 -0.68323868730E+02  0.97663244770E+02  0.00000000000E+00 0. -1.
<mgrwt>
<rscale>  0 0.15469086E+03</rscale>
<asrwt>0</asrwt>
<pdfrwt beam="1">  1        1 0.10155102E-01 0.16133098E+03</pdfrwt>
<pdfrwt beam="2">  1       -1 0.63468505E-01 0.16133098E+03</pdfrwt>
<totfact> 0.16083407E+03</totfact>
</mgrwt>
</event>
<event>
 7    1  0.5928109E-006  0.1444137E+03  0.7546771E-02  0.1217464E+00
          3   -1    0    0  501    0  0.00000000000E+00  0.00000000000E+00  0.51350768906E+02  0.51350768906E+02  0.00000000000E+00 0. -1.
         -3   -1    0    0    0  501 -0.00000000000E+00 -0.00000000000E+00 -0.33257703680E+03  0.33257703680E+03  0.00000000000E+00 0.  1.
         23    2    1    2    0    0  0.67726048246E+02 -0.25372401371E+02 -0.16031645272E+03  0.21576996087E+03  0.12499893855E+03 0.  0.
          5    1    3    3  502    0  0.12580909145E+02  0.29599003169E+02 -0.12674548134E+03  0.13084680853E+03  0.47000000000E+01 0. -1.
         -5    1    3    3    0  502  0.55145139101E+02 -0.54971404540E+02 -0.33570971388E+02  0.84923152341E+02  0.47000000000E+01 0. -1.
        -11    1    1    2    0    0  0.20351915455E+02 -0.90858729932E+01 -0.23234804568E+02  0.32196423622E+02  0.00000000000E+00 0. -1.
         11    1    1    2    0    0 -0.88077963702E+02  0.34458274364E+02 -0.97675010605E+02  0.13596142121E+03  0.00000000000E+00 0.  1.
<mgrwt>
<rscale>  0 0.13697117E+03</rscale>
<asrwt>0</asrwt>
<pdfrwt beam="1">  1        3 0.79001185E-02 0.14441368E+03</pdfrwt>
<pdfrwt beam="2">  1       -3 0.51165696E-01 0.14441368E+03</pdfrwt>
<totfact> 0.96740159E+02</totfact>
</mgrwt>
</event>
<event>
 7    1  0.5928109E-006  0.1649663E+03  0.7546771E-02  0.1189712E+00
          1   -1    0    0  501    0  0.00000000000E+00  0.00000000000E+00  0.10780908250E+03  0.10780908250E+03  0.00000000000E+00 0. -1.
         -1   -1    0    0    0  501 -0.00000000000E+00 -0.00000000000E+00 -0.23056443683E+03  0.23056443683E+03  0.00000000000E+00 0.  1.
         23    2    1    2    0    0 -0.55471226726E+02  0.92212354211E+02 -0.28727513088E+02  0.16744891526E+03  0.12503477097E+03 0.  0.
          5    1    3    3  502    0 -0.27370440264E+02 -0.25684950414E+02  0.11703090129E+02  0.39596843265E+02  0.47000000000E+01 0.  1.
         -5    1    3    3    0  502 -0.28100786462E+02  0.11789730462E+03 -0.40430603217E+02  0.12785207200E+03  0.47000000000E+01 0.  1.
        -11    1    1    2    0    0 -0.18767238725E+02 -0.91227409668E+01 -0.44177609110E+02  0.48857904158E+02  0.00000000000E+00 0.  1.
         11    1    1    2    0    0  0.74238465451E+02 -0.83089613244E+02 -0.49850232132E+02  0.12206669990E+03  0.00000000000E+00 0. -1.
<mgrwt>
<rscale>  0 0.15910391E+03</rscale>
<asrwt>0</asrwt>
<pdfrwt beam="1">  1        1 0.16586013E-01 0.16496627E+03</pdfrwt>
<pdfrwt beam="2">  1       -1 0.35471451E-01 0.16496627E+03</pdfrwt>
<totfact> 0.24378074E+03</totfact>
</mgrwt>
</event>
<event>
 7    1  0.5928109E-006  0.1765648E+03  0.7546771E-02  0.1176464E+00
          1   -1    0    0  501    0  0.00000000000E+00  0.00000000000E+00  0.10346764243E+04  0.10346764243E+04  0.00000000000E+00 0. -1.
         -1   -1    0    0    0  501 -0.00000000000E+00 -0.00000000000E+00 -0.32413253552E+02  0.32413253552E+02  0.00000000000E+00 0.  1.
         23    2    1    2    0    0 -0.38294808263E+02 -0.11868726022E+03  0.74749561523E+03  0.76806564259E+03  0.12498791329E+03 0.  0.
          5    1    3    3  502    0 -0.21003479644E+01  0.78351692104E+01  0.32575895995E+00  0.93806959777E+01  0.47000000000E+01 0. -1.
         -5    1    3    3    0  502 -0.36194460298E+02 -0.12652242943E+03  0.74716985627E+03  0.75868494661E+03  0.47000000000E+01 0. -1.
        -11    1    1    2    0    0  0.30285234283E+02  0.19502889624E+02  0.14255133636E+02  0.38739733533E+02  0.00000000000E+00 0.  1.
         11    1    1    2    0    0  0.80095739802E+01  0.99184370596E+02  0.24051242192E+03  0.26028430176E+03  0.00000000000E+00 0. -1.
<mgrwt>
<rscale>  0 0.17133399E+03</rscale>
<asrwt>0</asrwt>
<pdfrwt beam="1">  1        1 0.15918096E+00 0.17656482E+03</pdfrwt>
<pdfrwt beam="2">  1       -1 0.49866552E-02 0.17656482E+03</pdfrwt>
<totfact> 0.26429733E+03</totfact>
</mgrwt>
</event>
<event>
 7    1  0.5928109E-006  0.1302806E+03  0.7546771E-02  0.1239705E+00
          1   -1    0    0  501    0  0.00000000000E+00  0.00000000000E+00  0.29529732418E+03  0.29529732418E+03  0.00000000000E+00 0. -1.
         -1   -1    0    0    0  501 -0.00000000000E+00 -0.00000000000E+00 -0.45150527970E+02  0.45150527970E+02  0.00000000000E+00 0.  1.
         23    2    1    2    0    0 -0.28279871513E+02  0.23368459701E+02  0.14837577800E+03  0.19745478955E+03  0.12500874521E+03 0.  0.
          5    1    3    3  502    0  0.38196604548E+02  0.41598182388E+02  0.41698107163E+02  0.70357739574E+02  0.47000000000E+01 0.  1.
         -5    1    3    3    0  502 -0.66476476061E+02 -0.18229722687E+02  0.10667767083E+03  0.12709704998E+03  0.47000000000E+01 0.  1.
        -11    1    1    2    0    0  0.25765101789E+02  0.23839566206E+02  0.52183267479E+01  0.35487974317E+02  0.00000000000E+00 0.  1.
         11    1    1    2    0    0  0.25147697244E+01 -0.47208025907E+02  0.96552691466E+02  0.10750508828E+03  0.00000000000E+00 0. -1.
<mgrwt>
<rscale>  0 0.12207995E+03</rscale>
<asrwt>0</asrwt>
<pdfrwt beam="1">  1        1 0.45430356E-01 0.13028055E+03</pdfrwt>
<pdfrwt beam="2">  1       -1 0.69462353E-02 0.13028055E+03</pdfrwt>
<totfact> 0.90287128E+03</totfact>
</mgrwt>
</event>
<event>
 6    1  0.5928109E-006  0.1497265E+03  0.7546771E-02  0.1222153E+00
          2   -1    0    0  501    0  0.00000000000E+00  0.00000000000E+00  0.42728771923E+03  0.42728771923E+03  0.00000000000E+00 0. -1.
         -2   -1    0    0    0  501 -0.00000000000E+00 -0.00000000000E+00 -0.37032848391E+02  0.37032848391E+02  0.00000000000E+00 0.  1.
          5    1    1    2  502    0  0.18666479576E+02 -0.44081509093E+02  0.27236863554E+03  0.27658340610E+03  0.47000000000E+01 0. -1.
         -5    1    1    2    0  502  0.10253838843E+02  0.44487475954E+02  0.16478809469E+02  0.48763899447E+02  0.47000000000E+01 0.  1.
        -11    1    1    2    0    0  0.94015213824E+01  0.26249617679E+02  0.85059410303E+02  0.89512760620E+02  0.00000000000E+00 0. -1.
         11    1    1    2    0    0 -0.38321839801E+02 -0.26655584540E+02  0.16348015533E+02  0.49460501461E+02  0.00000000000E+00 0.  1.
<mgrwt>
<rscale>  0 0.13363972E+03</rscale>
<asrwt>0</asrwt>
<pdfrwt beam="1">  1        2 0.65736569E-01 0.14972649E+03</pdfrwt>
<pdfrwt beam="2">  1       -2 0.56973616E-02 0.14972649E+03</pdfrwt>
<totfact> 0.11359792E+04</totfact>
</mgrwt>
</event>
<event>
 7    1  0.5928109E-006  0.1287877E+03  0.7546771E-02  0.1244057E+00
          1   -1    0    0  501    0  0.00000000000E+00  0.00000000000E+00  0.87794960262E+02  0.87794960262E+02  0.00000000000E+00 0. -1.
         -1   -1    0    0    0  501 -0.00000000000E+00 -0.00000000000E+00 -0.16059344263E+03  0.16059344263E+03  0.00000000000E+00 0.  1.
         23    2    1    2    0    0  0.25955751910E+02 -0.16957040603E+02 -0.41735000006E+00  0.12878835332E+03  0.12500009394E+03 0.  0.
          5    1    3    3  502    0  0.11205740969E+02 -0.37760868845E+02  0.54878444035E+02  0.67713997566E+02  0.47000000000E+01 0. -1.
         -5    1    3    3    0  502  0.14750010941E+02  0.20803828242E+02 -0.55295794035E+02  0.61074355750E+02  0.47000000000E+01 0. -1.
        -11    1    1    2    0    0 -0.54388707887E+02  0.11989678521E+02 -0.18876492531E+02  0.58806512454E+02  0.00000000000E+00 0. -1.
         11    1    1    2    0    0  0.28432955978E+02  0.49673620817E+01 -0.53504639838E+02  0.60793537123E+02  0.00000000000E+00 0.  1.
<mgrwt>
<rscale>  0 0.11942014E+03</rscale>
<asrwt>0</asrwt>
<pdfrwt beam="1">  1        1 0.13506917E-01 0.12878768E+03</pdfrwt>
<pdfrwt beam="2">  1       -1 0.24706683E-01 0.12878768E+03</pdfrwt>
<totfact> 0.57646229E+03</totfact>
</mgrwt>
</event>
<event>
 7    1  0.5928109E-006  0.1281634E+03  0.7546771E-02  0.1255636E+00
          2   -1    0    0  501    0  0.00000000000E+00  0.00000000000E+00  0.13906464025E+04  0.13906464025E+04  0.00000000000E+00 0. -1.
         -2   -1    0    0    0  501 -0.00000000000E+00 -0.00000000000E+00 -0.11211346381E+02  0.11211346381E+02  0.00000000000E+00 0.  1.
         23    2    1    2    0    0 -0.59515202684E+01 -0.27667554987E+02  0.11988052181E+04  0.12056366847E+04  0.12499980147E+03 0.  0.
          5    1    3    3  502    0 -0.63040847564E+02 -0.26383242739E+01  0.71853242128E+03  0.72131271973E+03  0.47000000000E+01 0.  1.
         -5    1    3    3    0  502  0.57089327296E+02 -0.25029230713E+02  0.48027279682E+03  0.48432396498E+03  0.47000000000E+01 0.  1.
        -11    1    1    2    0    0 -0.20484646796E+02 -0.13186587642E+02  0.91331067376E+02  0.94524445071E+02  0.00000000000E+00 0. -1.
         11    1    1    2    0    0  0.26436167064E+02  0.40854142629E+02  0.89298770632E+02  0.10169661910E+03  0.00000000000E+00 0.  1.
<mgrwt>
<rscale>  0 0.11270789E+03</rscale>
<asrwt>0</asrwt>
<pdfrwt beam="1">  1        2 0.21394546E+00 0.12816343E+03</pdfrwt>
<pdfrwt beam="2">  1       -2 0.17248236E-02 0.12816343E+03</pdfrwt>
<totfact> 0.14492968E+04</totfact>
</mgrwt>
</event>
<event>
 7    1  0.5928109E-006  0.1307914E+03  0.7546771E-02  0.1252944E+00
         -2   -1    0    0    0  501 -0.00000000000E+00  0.00000000000E+00  0.25886485240E+02  0.25886485240E+02  0.00000000000E+00 0.  1.
          2   -1    0    0  501    0  0.00000000000E+00 -0.00000000000E+00 -0.47992736368E+03  0.47992736368E+03  0.00000000000E+00 0. -1.
         23    2    1    2    0    0  0.21520143024E+02 -0.31901188504E+02 -0.37007483267E+03  0.39250704084E+03  0.12500237178E+03 0.  0.
          5    1    3    3  502    0 -0.39417761753E+02  0.18604561895E+02 -0.74110541524E+02  0.86106631742E+02  0.47000000000E+01 0. -1.
         -5    1    3    3    0  502  0.60937904777E+02 -0.50505750399E+02 -0.29596429114E+03  0.30640040909E+03  0.47000000000E+01 0. -1.
        -11    1    1    2    0    0 -0.33896063237E+02 -0.60477035346E+01 -0.27035181240E+02  0.43776921382E+02  0.00000000000E+00 0. -1.
         11    1    1    2    0    0  0.12375920213E+02  0.37948892038E+02 -0.56930864532E+02  0.69529886700E+02  0.00000000000E+00 0.  1.
<mgrwt>
<rscale>  0 0.11422253E+03</rscale>
<asrwt>0</asrwt>
<pdfrwt beam="2">  1        2 0.73834983E-01 0.13079142E+03</pdfrwt>
<pdfrwt beam="1">  1       -2 0.39825360E-02 0.13079142E+03</pdfrwt>
<totfact> 0.16955319E+04</totfact>
</mgrwt>
</event>
<event>
 7    1  0.5928109E-006  0.2142849E+03  0.7546771E-02  0.1141902E+00
          1   -1    0    0  501    0  0.00000000000E+00  0.00000000000E+00  0.94483742354E+03  0.94483742354E+03  0.00000000000E+00 0. -1.
         -1   -1    0    0    0  501 -0.00000000000E+00 -0.00000000000E+00 -0.44727270188E+02  0.44727270188E+02  0.00000000000E+00 0.  1.
         23    2    1    2    0    0 -0.17186001461E+03 -0.27458347651E+02  0.50074202411E+03  0.54466557172E+03  0.12501273871E+03 0.  0.
          5    1    3    3  502    0 -0.13871275426E+03  0.27691774331E+02  0.40669038235E+03  0.43061260973E+03  0.47000000000E+01 0. -1.
         -5    1    3    3    0  502 -0.33147260345E+02 -0.55150121983E+02  0.94051641755E+02  0.11405296200E+03  0.47000000000E+01 0. -1.
        -11    1    1    2    0    0  0.87239785312E+02 -0.31329720008E+02  0.20205618117E+03  0.22230391775E+03  0.00000000000E+00 0. -1.
         11    1    1    2    0    0  0.84620229294E+02  0.58788067659E+02  0.19731194807E+03  0.22259520426E+03  0.00000000000E+00 0.  1.
<mgrwt>
<rscale>  0 0.20957623E+03</rscale>
<asrwt>0</asrwt>
<pdfrwt beam="1">  1        1 0.14535959E+00 0.21428488E+03</pdfrwt>
<pdfrwt beam="2">  1       -1 0.68811192E-02 0.21428488E+03</pdfrwt>
<totfact> 0.19063527E+03</totfact>
</mgrwt>
</event>
<event>
 7    1  0.5928109E-006  0.2480767E+03  0.7546771E-02  0.1116954E+00
          1   -1    0    0  501    0  0.00000000000E+00  0.00000000000E+00  0.10303380717E+04  0.10303380717E+04  0.00000000000E+00 0. -1.
         -1   -1    0    0    0  501 -0.00000000000E+00 -0.00000000000E+00 -0.56787918633E+02  0.56787918633E+02  0.00000000000E+00 0.  1.
         23    2    1    2    0    0 -0.16268520394E+03 -0.13942761030E+03  0.55501947489E+03  0.60793803055E+03  0.12504198250E+03 0.  0.
          5    1    3    3  502    0 -0.14569298111E+03 -0.97655599813E+02  0.52504391371E+03  0.55358491873E+03  0.47000000000E+01 0.  1.
         -5    1    3    3    0  502 -0.16992222830E+02 -0.41772010484E+02  0.29975561181E+02  0.54353111821E+02  0.47000000000E+01 0.  1.
        -11    1    1    2    0    0  0.90873994180E+02  0.19738461428E+02  0.18680592245E+03  0.20867233248E+03  0.00000000000E+00 0. -1.
         11    1    1    2    0    0  0.71811209763E+02  0.11968914887E+03  0.23172475576E+03  0.27051562734E+03  0.00000000000E+00 0.  1.
<mgrwt>
<rscale>  0 0.24431061E+03</rscale>
<asrwt>0</asrwt>
<pdfrwt beam="1">  1        1 0.15851354E+00 0.24807666E+03</pdfrwt>
<pdfrwt beam="2">  1       -1 0.87366036E-02 0.24807666E+03</pdfrwt>
<totfact> 0.11425839E+03</totfact>
</mgrwt>
</event>
<event>
 7    1  0.5928109E-006  0.1311265E+03  0.7546771E-02  0.1240177E+00
          1   -1    0    0  501    0  0.00000000000E+00  0.00000000000E+00  0.11380858287E+03  0.11380858287E+03  0.00000000000E+00 0. -1.
         -1   -1    0    0    0  501 -0.00000000000E+00 -0.00000000000E+00 -0.11500504056E+03  0.11500504056E+03  0.00000000000E+00 0.  1.
         23    2    1    2    0    0 -0.37436634373E+02  0.13064758917E+02  0.28089050277E+01  0.13115661607E+03  0.12498791331E+03 0.  0.
          5    1    3    3  502    0 -0.30897520838E+02 -0.51597216944E+02  0.20369199559E+02  0.63670431763E+02  0.47000000000E+01 0. -1.
         -5    1    3    3    0  502 -0.65391135357E+01  0.64661975861E+02 -0.17560294531E+02  0.67486184305E+02  0.47000000000E+01 0. -1.
        -11    1    1    2    0    0 -0.22192283691E+02 -0.15931005268E+02 -0.22250691799E+02  0.35233331801E+02  0.00000000000E+00 0.  1.
         11    1    1    2    0    0  0.59628918064E+02  0.28662463504E+01  0.18245329086E+02  0.62423675565E+02  0.00000000000E+00 0. -1.
<mgrwt>
<rscale>  0 0.12178741E+03</rscale>
<asrwt>0</asrwt>
<pdfrwt beam="1">  1        1 0.17509013E-01 0.13112653E+03</pdfrwt>
<pdfrwt beam="2">  1       -1 0.17693083E-01 0.13112653E+03</pdfrwt>
<totfact> 0.70714980E+03</totfact>
</mgrwt>
</event>
<event>
 7    1  0.5928109E-006  0.1972443E+03  0.7546771E-02  0.1156500E+00
          1   -1    0    0  501    0  0.00000000000E+00  0.00000000000E+00  0.20201195415E+03  0.20201195415E+03  0.00000000000E+00 0. -1.
         -1   -1    0    0    0  501 -0.00000000000E+00 -0.00000000000E+00 -0.17518634681E+03  0.17518634681E+03  0.00000000000E+00 0.  1.
         23    2    1    2    0    0  0.42631968442E+02 -0.14650073832E+03 -0.96210815627E+00  0.19724660122E+03  0.12500137991E+03 0.  0.
          5    1    3    3  502    0  0.20889375779E+02 -0.13429121535E+03 -0.47661875951E+02  0.14409802552E+03  0.47000000000E+01 0. -1.
         -5    1    3    3    0  502  0.21742592662E+02 -0.12209522973E+02  0.46699767795E+02  0.53148575701E+02  0.47000000000E+01 0. -1.
        -11    1    1    2    0    0 -0.25084248013E+02  0.14327166500E+03 -0.17290726750E+01  0.14546126351E+03  0.00000000000E+00 0.  1.
         11    1    1    2    0    0 -0.17547720429E+02  0.32290733168E+01  0.29516788174E+02  0.34490436223E+02  0.00000000000E+00 0. -1.
<mgrwt>
<rscale>  0 0.19219059E+03</rscale>
<asrwt>0</asrwt>
<pdfrwt beam="1">  1        1 0.31078762E-01 0.19724425E+03</pdfrwt>
<pdfrwt beam="2">  1       -1 0.26951746E-01 0.19724425E+03</pdfrwt>
<totfact> 0.17587191E+03</totfact>
</mgrwt>
</event>
<event>
 7    1  0.5928109E-006  0.1251628E+03  0.7546771E-02  0.1250349E+00
         -1   -1    0    0    0  501 -0.00000000000E+00  0.00000000000E+00  0.42575236016E+03  0.42575236016E+03  0.00000000000E+00 0.  1.
          1   -1    0    0  501    0  0.00000000000E+00 -0.00000000000E+00 -0.28187047712E+02  0.28187047712E+02  0.00000000000E+00 0. -1.
         23    2    1    2    0    0  0.37193367947E+01  0.51999836407E+01  0.19517227340E+03  0.23185757928E+03  0.12499938988E+03 0.  0.
          5    1    3    3  502    0 -0.50769578417E+02  0.31847837664E+01  0.33292664989E+02  0.60976917620E+02  0.47000000000E+01 0. -1.
         -5    1    3    3    0  502  0.54488915212E+02  0.20151998743E+01  0.16187960841E+03  0.17088066166E+03  0.47000000000E+01 0. -1.
        -11    1    1    2    0    0 -0.20813529558E+02  0.37107068892E+02  0.68606327225E+02  0.80727725781E+02  0.00000000000E+00 0. -1.
         11    1    1    2    0    0  0.17094192763E+02 -0.42307052533E+02  0.13378671182E+03  0.14135410281E+03  0.00000000000E+00 0.  1.
<mgrwt>
<rscale>  0 0.11570850E+03</rscale>
<asrwt>0</asrwt>
<pdfrwt beam="2">  1        1 0.43364692E-02 0.12516278E+03</pdfrwt>
<pdfrwt beam="1">  1       -1 0.65500358E-01 0.12516278E+03</pdfrwt>
<totfact> 0.47218439E+03</totfact>
</mgrwt>
</event>
<event>
 6    1  0.5928109E-006  0.1476247E+03  0.7546771E-02  0.1222083E+00
         -1   -1    0    0    0  501 -0.00000000000E+00  0.00000000000E+00  0.94047848326E+02  0.94047848326E+02  0.00000000000E+00 0.  1.
          1   -1    0    0  501    0  0.00000000000E+00 -0.00000000000E+00 -0.16366576933E+03  0.16366576933E+03  0.00000000000E+00 0. -1.
          5    1    1    2  502    0 -0.27291108900E+02 -0.82606290189E+02 -0.38879982495E+02  0.95406220146E+02  0.47000000000E+01 0. -1.
         -5    1    1    2    0  502 -0.37235213930E+01  0.59612013150E+02 -0.15184936215E+02  0.61807192229E+02  0.47000000000E+01 0.  1.
        -11    1    1    2    0    0  0.63269687671E+02  0.21913311910E+02 -0.12117564982E+02  0.68044705878E+02  0.00000000000E+00 0.  1.
         11    1    1    2    0    0 -0.32255057379E+02  0.10809651285E+01 -0.34354373135E+01  0.32455499405E+02  0.00000000000E+00 0. -1.
<mgrwt>
<rscale>  0 0.13368878E+03</rscale>
<asrwt>0</asrwt>
<pdfrwt beam="2">  1        1 0.25179349E-01 0.14762466E+03</pdfrwt>
<pdfrwt beam="1">  1       -1 0.14468900E-01 0.14762466E+03</pdfrwt>
<totfact> 0.61737120E+03</totfact>
</mgrwt>
</event>
<event>
 7    1  0.5928109E-006  0.1419287E+03  0.7546771E-02  0.1220566E+00
         -1   -1    0    0    0  501 -0.00000000000E+00  0.00000000000E+00  0.16386919876E+03  0.16386919876E+03  0.00000000000E+00 0.  1.
          1   -1    0    0  501    0  0.00000000000E+00 -0.00000000000E+00 -0.10768428109E+03  0.10768428109E+03  0.00000000000E+00 0. -1.
         23    2    1    2    0    0 -0.66808752978E+02 -0.75141748033E+01 -0.29124615135E+01  0.14195860194E+03  0.12499555966E+03 0.  0.
          5    1    3    3  502    0 -0.21242429054E+02  0.14628147869E+02 -0.60006673322E+02  0.65483695263E+02  0.47000000000E+01 0.  1.
         -5    1    3    3    0  502 -0.45566323924E+02 -0.22142322672E+02  0.57094211808E+02  0.76474906677E+02  0.47000000000E+01 0.  1.
        -11    1    1    2    0    0  0.40756786359E+02 -0.15907347991E+02  0.78263452734E+02  0.89662296358E+02  0.00000000000E+00 0.  1.
         11    1    1    2    0    0  0.26051966619E+02  0.23421522794E+02 -0.19166073549E+02  0.39932581559E+02  0.00000000000E+00 0. -1.
<mgrwt>
<rscale>  0 0.13475463E+03</rscale>
<asrwt>0</asrwt>
<pdfrwt beam="2">  1        1 0.16566812E-01 0.14192872E+03</pdfrwt>
<pdfrwt beam="1">  1       -1 0.25210646E-01 0.14192872E+03</pdfrwt>
<totfact> 0.43078594E+03</totfact>
</mgrwt>
</event>
<event>
 7    1  0.5928109E-006  0.1262168E+03  0.7546771E-02  0.1248179E+00
          2   -1    0    0  501    0  0.00000000000E+00  0.00000000000E+00  0.15881661420E+03  0.15881661420E+03  0.00000000000E+00 0. -1.
         -2   -1    0    0    0  501 -0.00000000000E+00 -0.00000000000E+00 -0.81195641863E+02  0.81195641863E+02  0.00000000000E+00 0.  1.
         23    2    1    2    0    0  0.15669892613E+02  0.78309348880E+01  0.75111936104E+02  0.14687574765E+03  0.12499525281E+03 0.  0.
          5    1    3    3  502    0  0.16779499146E+02 -0.47310929069E+02  0.76366609266E+02  0.91508604031E+02  0.47000000000E+01 0.  1.
         -5    1    3    3    0  502 -0.11096065336E+01  0.55141863957E+02 -0.12546731622E+01  0.55367143614E+02  0.47000000000E+01 0.  1.
        -11    1    1    2    0    0  0.16343473607E+02  0.97555759289E+01  0.37815857243E+02  0.42335793960E+02  0.00000000000E+00 0. -1.
         11    1    1    2    0    0 -0.32013366220E+02 -0.17586510817E+02 -0.35306821010E+02  0.50800714456E+02  0.00000000000E+00 0.  1.
<mgrwt>
<rscale>  0 0.11697107E+03</rscale>
<asrwt>0</asrwt>
<pdfrwt beam="1">  1        2 0.24433325E-01 0.12621681E+03</pdfrwt>
<pdfrwt beam="2">  1       -2 0.12491637E-01 0.12621681E+03</pdfrwt>
<totfact> 0.95776774E+03</totfact>
</mgrwt>
</event>
<event>
 7    1  0.5928109E-006  0.1963882E+03  0.7546771E-02  0.1157608E+00
         -2   -1    0    0    0  501 -0.00000000000E+00  0.00000000000E+00  0.37218930256E+03  0.37218930256E+03  0.00000000000E+00 0.  1.
          2   -1    0    0  501    0  0.00000000000E+00 -0.00000000000E+00 -0.94742765202E+02  0.94742765202E+02  0.00000000000E+00 0. -1.
         23    2    1    2    0    0  0.13298943045E+03 -0.72494603880E+02  0.11390439898E+03  0.22702978773E+03  0.12500662465E+03 0.  0.
          5    1    3    3  502    0  0.37186934464E+01 -0.22170241030E+02  0.81258904154E+02  0.84441978735E+02  0.47000000000E+01 0. -1.
         -5    1    3    3    0  502  0.12927073700E+03 -0.50324362850E+02  0.32645494828E+02  0.14258780900E+03  0.47000000000E+01 0. -1.
        -11    1    1    2    0    0 -0.86279389144E+02  0.11480290731E+02  0.12908661976E+03  0.15568970894E+03  0.00000000000E+00 0.  1.
         11    1    1    2    0    0 -0.46710041307E+02  0.61014313148E+02  0.34455518612E+02  0.84212571096E+02  0.00000000000E+00 0. -1.
<mgrwt>
<rscale>  0 0.19094918E+03</rscale>
<asrwt>0</asrwt>
<pdfrwt beam="2">  1        2 0.14575810E-01 0.19638817E+03</pdfrwt>
<pdfrwt beam="1">  1       -2 0.57259892E-01 0.19638817E+03</pdfrwt>
<totfact> 0.11636448E+03</totfact>
</mgrwt>
</event>
<event>
 7    1  0.5928109E-006  0.2275564E+03  0.7546771E-02  0.1131484E+00
          1   -1    0    0  501    0  0.00000000000E+00  0.00000000000E+00  0.70617507892E+03  0.70617507892E+03  0.00000000000E+00 0. -1.
         -1   -1    0    0    0  501 -0.00000000000E+00 -0.00000000000E+00 -0.10043049670E+03  0.10043049670E+03  0.00000000000E+00 0.  1.
         23    2    1    2    0    0  0.82309783702E+02 -0.17141698128E+03  0.53967149298E+03  0.58568525432E+03  0.12499285914E+03 0.  0.
          5    1    3    3  502    0  0.38362012125E+02 -0.14641602417E+03  0.25543539630E+03  0.29694886394E+03  0.47000000000E+01 0. -1.
         -5    1    3    3    0  502  0.43947771577E+02 -0.25000957114E+02  0.28423609667E+03  0.28873639039E+03  0.47000000000E+01 0. -1.
        -11    1    1    2    0    0 -0.21858312849E+02  0.93513764366E+02 -0.97556248945E+01  0.96528659908E+02  0.00000000000E+00 0.  1.
         11    1    1    2    0    0 -0.60451470853E+02  0.77903216919E+02  0.75828714142E+02  0.12439166139E+03  0.00000000000E+00 0. -1.
<mgrwt>
<rscale>  0 0.22324855E+03</rscale>
<asrwt>0</asrwt>
<pdfrwt beam="1">  1        1 0.10864232E+00 0.22755636E+03</pdfrwt>
<pdfrwt beam="2">  1       -1 0.15450846E-01 0.22755636E+03</pdfrwt>
<totfact> 0.85589644E+02</totfact>
</mgrwt>
</event>
<event>
 6    1  0.5928109E-006  0.1991365E+03  0.7546771E-02  0.1178080E+00
         -2   -1    0    0    0  501 -0.00000000000E+00  0.00000000000E+00  0.53771207046E+02  0.53771207046E+02  0.00000000000E+00 0.  1.
          2   -1    0    0  501    0  0.00000000000E+00 -0.00000000000E+00 -0.43256253555E+03  0.43256253555E+03  0.00000000000E+00 0. -1.
          5    1    1    2  502    0  0.18322249259E+02 -0.20495221675E+02 -0.27807687119E+03  0.27947199362E+03  0.47000000000E+01 0. -1.
         -5    1    1    2    0  502  0.29368711998E+02  0.37721469380E+02  0.15137239408E+02  0.50365231197E+02  0.47000000000E+01 0.  1.
        -11    1    1    2    0    0 -0.46393366077E+02  0.29425413397E+02 -0.82564347532E+02  0.99171925730E+02  0.00000000000E+00 0.  1.
         11    1    1    2    0    0 -0.12975951806E+01 -0.46651661102E+02 -0.33287349184E+02  0.57324592040E+02  0.00000000000E+00 0. -1.
<mgrwt>
<rscale>  0 0.16977720E+03</rscale>
<asrwt>0</asrwt>
<pdfrwt beam="2">  1        2 0.66548081E-01 0.19913650E+03</pdfrwt>
<pdfrwt beam="1">  1       -2 0.82724936E-02 0.19913650E+03</pdfrwt>
<totfact> 0.64281267E+03</totfact>
</mgrwt>
</event>
<event>
 7    1  0.5928109E-006  0.1274224E+03  0.7546771E-02  0.1245723E+00
          1   -1    0    0  501    0  0.00000000000E+00  0.00000000000E+00  0.52931695924E+02  0.52931695924E+02  0.00000000000E+00 0. -1.
         -1   -1    0    0    0  501 -0.00000000000E+00 -0.00000000000E+00 -0.23666321930E+03  0.23666321930E+03  0.00000000000E+00 0.  1.
         23    2    1    2    0    0 -0.95260305917E+01 -0.22879973435E+02 -0.89259698059E+02  0.15557560150E+03  0.12498894207E+03 0.  0.
          5    1    3    3  502    0  0.34734220855E+01  0.48653725078E+02 -0.14310314809E+02  0.51050217775E+02  0.47000000000E+01 0. -1.
         -5    1    3    3    0  502 -0.12999452677E+02 -0.71533698513E+02 -0.74949383250E+02  0.10452538372E+03  0.47000000000E+01 0. -1.
        -11    1    1    2    0    0 -0.91092356880E+01  0.39405664675E+02 -0.10055152457E+03  0.10838078094E+03  0.00000000000E+00 0.  1.
         11    1    1    2    0    0  0.18635266280E+02 -0.16525691240E+02  0.60796992574E+01  0.25638532784E+02  0.00000000000E+00 0. -1.
<mgrwt>
<rscale>  0 0.11842215E+03</rscale>
<asrwt>0</asrwt>
<pdfrwt beam="1">  1        1 0.81433378E-02 0.12742242E+03</pdfrwt>
<pdfrwt beam="2">  1       -1 0.36409726E-01 0.12742242E+03</pdfrwt>
<totfact> 0.58588162E+03</totfact>
</mgrwt>
</event>
<event>
 7    1  0.5928109E-006  0.1324919E+03  0.7546771E-02  0.1236160E+00
         -1   -1    0    0    0  501 -0.00000000000E+00  0.00000000000E+00  0.12318538752E+03  0.12318538752E+03  0.00000000000E+00 0.  1.
          1   -1    0    0  501    0  0.00000000000E+00 -0.00000000000E+00 -0.11281528135E+03  0.11281528135E+03  0.00000000000E+00 0. -1.
         23    2    1    2    0    0  0.30844525570E+02 -0.31253022829E+02 -0.26874994933E+01  0.13251913329E+03  0.12500384731E+03 0.  0.
          5    1    3    3  502    0  0.96826774760E+01 -0.43509228280E+02  0.54252324298E+02  0.70371953791E+02  0.47000000000E+01 0. -1.
         -5    1    3    3    0  502  0.21161848095E+02  0.12256205452E+02 -0.56939823791E+02  0.62147179503E+02  0.47000000000E+01 0. -1.
        -11    1    1    2    0    0 -0.15498334704E+02  0.62407325168E+02  0.21389563310E+02  0.67767145667E+02  0.00000000000E+00 0.  1.
         11    1    1    2    0    0 -0.15346190866E+02 -0.31154302340E+02 -0.83319576490E+01  0.35714389910E+02  0.00000000000E+00 0. -1.
<mgrwt>
<rscale>  0 0.12430435E+03</rscale>
<asrwt>0</asrwt>
<pdfrwt beam="2">  1        1 0.17356197E-01 0.13249188E+03</pdfrwt>
<pdfrwt beam="1">  1       -1 0.18951598E-01 0.13249188E+03</pdfrwt>
<totfact> 0.64154910E+03</totfact>
</mgrwt>
</event>
<event>
 7    1  0.5928109E-006  0.1479915E+03  0.7546771E-02  0.1210071E+00
         -2   -1    0    0    0  501 -0.00000000000E+00  0.00000000000E+00  0.11646348839E+02  0.11646348839E+02  0.00000000000E+00 0.  1.
          2   -1    0    0  501    0  0.00000000000E+00 -0.00000000000E+00 -0.16625485594E+04  0.16625485594E+04  0.00000000000E+00 0. -1.
         23    2    1    2    0    0  0.12966590947E+02  0.78158163049E+02 -0.10145056417E+04  0.10252429813E+04  0.12499857055E+03 0.  0.
          5    1    3    3  502    0 -0.40328164108E+02  0.64592320871E+02 -0.33865881010E+03  0.34714609086E+03  0.47000000000E+01 0. -1.
         -5    1    3    3    0  502  0.53294755055E+02  0.13565842178E+02 -0.67584683159E+03  0.67809689039E+03  0.47000000000E+01 0. -1.
        -11    1    1    2    0    0 -0.35862439513E+02 -0.92014626284E+02 -0.53756496629E+03  0.54656097464E+03  0.00000000000E+00 0.  1.
         11    1    1    2    0    0  0.22895848566E+02  0.13856463235E+02 -0.98831602568E+02  0.10239095234E+03  0.00000000000E+00 0. -1.
<mgrwt>
<rscale>  0 0.14244879E+03</rscale>
<asrwt>0</asrwt>
<pdfrwt beam="2">  1        2 0.25577688E+00 0.14799146E+03</pdfrwt>
<pdfrwt beam="1">  1       -2 0.17917447E-02 0.14799146E+03</pdfrwt>
<totfact> 0.99694711E+03</totfact>
</mgrwt>
</event>
<event>
 7    1  0.5928109E-006  0.1256914E+03  0.7546771E-02  0.1243222E+00
         -2   -1    0    0    0  501 -0.00000000000E+00  0.00000000000E+00  0.23180283989E+02  0.23180283989E+02  0.00000000000E+00 0.  1.
          2   -1    0    0  501    0  0.00000000000E+00 -0.00000000000E+00 -0.58797085761E+03  0.58797085761E+03  0.00000000000E+00 0. -1.
         23    2    1    2    0    0 -0.12025666593E+02  0.53429852440E+01 -0.36150814340E+03  0.38273551679E+03  0.12500069568E+03 0.  0.
          5    1    3    3  502    0  0.17719338509E+02  0.26870750402E+02 -0.33648533967E+03  0.33805396906E+03  0.47000000000E+01 0.  1.
         -5    1    3    3    0  502 -0.29745005102E+02 -0.21527765158E+02 -0.25022803730E+02  0.44681547731E+02  0.47000000000E+01 0.  1.
        -11    1    1    2    0    0 -0.41459477940E+02  0.17166983159E+02 -0.71383606076E+02  0.84316148147E+02  0.00000000000E+00 0. -1.
         11    1    1    2    0    0  0.53485144533E+02 -0.22509968403E+02 -0.13189882415E+03  0.14409947666E+03  0.00000000000E+00 0.  1.
<mgrwt>
<rscale>  0 0.11992445E+03</rscale>
<asrwt>0</asrwt>
<pdfrwt beam="2">  1        2 0.90457060E-01 0.12569144E+03</pdfrwt>
<pdfrwt beam="1">  1       -2 0.35661973E-02 0.12569144E+03</pdfrwt>
<totfact> 0.15891921E+04</totfact>
</mgrwt>
</event>
<event>
 7    1  0.5928109E-006  0.1318594E+03  0.7546771E-02  0.1237791E+00
          1   -1    0    0  501    0  0.00000000000E+00  0.00000000000E+00  0.58331547972E+03  0.58331547972E+03  0.00000000000E+00 0. -1.
         -1   -1    0    0    0  501 -0.00000000000E+00 -0.00000000000E+00 -0.27740630466E+02  0.27740630466E+02  0.00000000000E+00 0.  1.
         23    2    1    2    0    0  0.68289679851E+00 -0.41977354195E+02  0.43173492267E+03  0.45142214004E+03  0.12499736179E+03 0.  0.
          5    1    3    3  502    0 -0.47549328456E+02 -0.62951383890E+02  0.25461278085E+03  0.26659627443E+03  0.47000000000E+01 0.  1.
         -5    1    3    3    0  502  0.48232225254E+02  0.20974029695E+02  0.17712214182E+03  0.18482586561E+03  0.47000000000E+01 0.  1.
        -11    1    1    2    0    0 -0.86236680721E+01  0.50391037230E+02  0.13450866105E+03  0.14389650510E+03  0.00000000000E+00 0. -1.
         11    1    1    2    0    0  0.79407712735E+01 -0.84136830347E+01 -0.10668734468E+02  0.15737465037E+02  0.00000000000E+00 0.  1.
<mgrwt>
<rscale>  0 0.12327467E+03</rscale>
<asrwt>0</asrwt>
<pdfrwt beam="1">  1        1 0.89740834E-01 0.13185941E+03</pdfrwt>
<pdfrwt beam="2">  1       -1 0.42677898E-02 0.13185941E+03</pdfrwt>
<totfact> 0.78163334E+03</totfact>
</mgrwt>
</event>
<event>
 7    1  0.5928109E-006  0.1316507E+03  0.7546771E-02  0.1239864E+00
          2   -1    0    0  501    0  0.00000000000E+00  0.00000000000E+00  0.21819738687E+04  0.21819738687E+04  0.00000000000E+00 0. -1.
         -2   -1    0    0    0  501 -0.00000000000E+00 -0.00000000000E+00 -0.74156946217E+01  0.74156946217E+01  0.00000000000E+00 0.  1.
         23    2    1    2    0    0  0.14222811053E+02  0.38787139042E+02  0.16955329632E+04  0.17006363362E+04  0.12500075184E+03 0.  0.
          5    1    3    3  502    0  0.13826706053E+02  0.62686076270E+01  0.24026148541E+02  0.28806580074E+02  0.47000000000E+01 0.  1.
         -5    1    3    3    0  502  0.39610500028E+00  0.32518531415E+02  0.16715068147E+04  0.16718297561E+04  0.47000000000E+01 0.  1.
        -11    1    1    2    0    0 -0.28399041753E+01  0.28382066142E+02  0.16180751387E+03  0.16430239888E+03  0.00000000000E+00 0.  1.
         11    1    1    2    0    0 -0.11382906878E+02 -0.67169205183E+02  0.31721769701E+03  0.32445082831E+03  0.00000000000E+00 0. -1.
<mgrwt>
<rscale>  0 0.12198109E+03</rscale>
<asrwt>0</asrwt>
<pdfrwt beam="1">  1        2 0.33568778E+00 0.13165074E+03</pdfrwt>
<pdfrwt beam="2">  1       -2 0.11408778E-02 0.13165074E+03</pdfrwt>
<totfact> 0.10308097E+04</totfact>
</mgrwt>
</event>
<event>
 7    1  0.5928109E-006  0.1153072E+03  0.7546771E-02  0.1305977E+00
         -2   -1    0    0    0  501 -0.00000000000E+00  0.00000000000E+00  0.11412290286E+02  0.11412290286E+02  0.00000000000E+00 0.  1.
          2   -1    0    0  501    0  0.00000000000E+00 -0.00000000000E+00 -0.64522165982E+03  0.64522165982E+03  0.00000000000E+00 0. -1.
         23    2    1    2    0    0  0.26045376674E+02 -0.16053312556E+02 -0.56655769361E+03  0.57817244915E+03  0.11117414393E+03 0.  0.
          5    1    3    3  502    0  0.82761888902E+00 -0.76146744953E+01 -0.54073196098E+03  0.54080663074E+03  0.47000000000E+01 0. -1.
         -5    1    3    3    0  502  0.25217757785E+02 -0.84386380608E+01 -0.25825732628E+02  0.37365818414E+02  0.47000000000E+01 0.  1.
        -11    1    1    2    0    0 -0.98663870044E+01  0.19486229985E+02 -0.50000069756E+02  0.54562493777E+02  0.00000000000E+00 0. -1.
         11    1    1    2    0    0 -0.16178989669E+02 -0.34329174291E+01 -0.17251606171E+02  0.23899007182E+02  0.00000000000E+00 0.  1.
<mgrwt>
<rscale>  0 0.88721659E+02</rscale>
<asrwt>0</asrwt>
<pdfrwt beam="2">  1        2 0.99264859E-01 0.11530725E+03</pdfrwt>
<pdfrwt beam="1">  1       -2 0.17557372E-02 0.11530725E+03</pdfrwt>
<totfact> 0.39824465E+04</totfact>
</mgrwt>
</event>
<event>
 7    1  0.5928109E-006  0.1716099E+03  0.7546771E-02  0.1182872E+00
         -2   -1    0    0    0  501 -0.00000000000E+00  0.00000000000E+00  0.20745639465E+02  0.20745639465E+02  0.00000000000E+00 0.  1.
          2   -1    0    0  501    0  0.00000000000E+00 -0.00000000000E+00 -0.14881250521E+04  0.14881250521E+04  0.00000000000E+00 0. -1.
         23    2    1    2    0    0  0.11452807863E+03  0.26616930069E+02 -0.10938356972E+04  0.11072156491E+04  0.12499927746E+03 0.  0.
          5    1    3    3  502    0  0.69802519757E+02  0.65958541737E+02 -0.87842108171E+03  0.88366770213E+03  0.47000000000E+01 0.  1.
         -5    1    3    3    0  502  0.44725558874E+02 -0.39341611669E+02 -0.21541461550E+03  0.22354794697E+03  0.47000000000E+01 0.  1.
        -11    1    1    2    0    0  0.24449570945E+01 -0.26591880948E+02 -0.11209743347E+03  0.11523428543E+03  0.00000000000E+00 0. -1.
         11    1    1    2    0    0 -0.11697303573E+03 -0.25049120649E-01 -0.26144628200E+03  0.28642075708E+03  0.00000000000E+00 0.  1.
<mgrwt>
<rscale>  0 0.16526983E+03</rscale>
<asrwt>0</asrwt>
<pdfrwt beam="2">  1        2 0.22894229E+00 0.17160991E+03</pdfrwt>
<pdfrwt beam="1">  1       -2 0.31916372E-02 0.17160991E+03</pdfrwt>
<totfact> 0.52960283E+03</totfact>
</mgrwt>
</event>
<event>
 6    1  0.5928109E-006  0.2079748E+03  0.7546771E-02  0.1168109E+00
         -3   -1    0    0    0  501 -0.00000000000E+00  0.00000000000E+00  0.29462921396E+03  0.29462921396E+03  0.00000000000E+00 0.  1.
          3   -1    0    0  501    0  0.00000000000E+00 -0.00000000000E+00 -0.21361420788E+03  0.21361420788E+03  0.00000000000E+00 0. -1.
          5    1    1    2  502    0 -0.56282513169E+02  0.11722954362E+03 -0.14099711435E+03  0.19186652507E+03  0.47000000000E+01 0. -1.
         -5    1    1    2    0  502  0.64289710793E+01 -0.61269304191E+02 -0.44964065521E+01  0.61948099060E+02  0.47000000000E+01 0.  1.
        -11    1    1    2    0    0  0.57173018745E+02 -0.74334396377E+02  0.16462826042E+03  0.18946456314E+03  0.00000000000E+00 0.  1.
         11    1    1    2    0    0 -0.73194766550E+01  0.18374156948E+02  0.61880266566E+02  0.64964234563E+02  0.00000000000E+00 0. -1.
<mgrwt>
<rscale>  0 0.17968382E+03</rscale>
<asrwt>0</asrwt>
<pdfrwt beam="2">  1        3 0.32863724E-01 0.20797476E+03</pdfrwt>
<pdfrwt beam="1">  1       -3 0.45327571E-01 0.20797476E+03</pdfrwt>
<totfact> 0.10777217E+02</totfact>
</mgrwt>
</event>
<event>
 7    1  0.5928109E-006  0.1268338E+03  0.7546771E-02  0.1246703E+00
          2   -1    0    0  501    0  0.00000000000E+00  0.00000000000E+00  0.69819299857E+02  0.69819299857E+02  0.00000000000E+00 0. -1.
         -2   -1    0    0    0  501 -0.00000000000E+00 -0.00000000000E+00 -0.23658023987E+03  0.23658023987E+03  0.00000000000E+00 0.  1.
         23    2    1    2    0    0  0.20202818787E+02 -0.73206041681E+01 -0.15137916222E+02  0.12773396506E+03  0.12500025676E+03 0.  0.
          5    1    3    3  502    0  0.59465586488E+02 -0.33567410967E+01  0.30613798271E+02  0.67132096137E+02  0.47000000000E+01 0.  1.
         -5    1    3    3    0  502 -0.39262767701E+02 -0.39638630714E+01 -0.45751714493E+02  0.60601868923E+02  0.47000000000E+01 0.  1.
        -11    1    1    2    0    0 -0.16787554949E+02  0.30923532008E+02 -0.12236356421E+02  0.37253392483E+02  0.00000000000E+00 0. -1.
         11    1    1    2    0    0 -0.34152638371E+01 -0.23602927840E+02 -0.13938666737E+03  0.14141218219E+03  0.00000000000E+00 0.  1.
<mgrwt>
<rscale>  0 0.11784031E+03</rscale>
<asrwt>0</asrwt>
<pdfrwt beam="1">  1        2 0.10741431E-01 0.12683379E+03</pdfrwt>
<pdfrwt beam="2">  1       -2 0.36396960E-01 0.12683379E+03</pdfrwt>
<totfact> 0.39761416E+03</totfact>
</mgrwt>
</event>
<event>
 7    1  0.5928109E-006  0.1737771E+03  0.7546771E-02  0.1180290E+00
         -1   -1    0    0    0  501 -0.00000000000E+00  0.00000000000E+00  0.22033497604E+02  0.22033497604E+02  0.00000000000E+00 0.  1.
          1   -1    0    0  501    0  0.00000000000E+00 -0.00000000000E+00 -0.14700168771E+04  0.14700168771E+04  0.00000000000E+00 0. -1.
         23    2    1    2    0    0  0.11710453143E+03  0.29354715622E+02 -0.10884401068E+04  0.11022251847E+04  0.12499328407E+03 0.  0.
          5    1    3    3  502    0  0.94483498141E+02  0.56524661150E+02 -0.10107493956E+04  0.10167391993E+04  0.47000000000E+01 0.  1.
         -5    1    3    3    0  502  0.22621033289E+02 -0.27169945528E+02 -0.77690711214E+02  0.85485985378E+02  0.47000000000E+01 0.  1.
        -11    1    1    2    0    0 -0.40367018861E+02 -0.50645317362E+02 -0.10751710566E+03  0.12551642280E+03  0.00000000000E+00 0.  1.
         11    1    1    2    0    0 -0.76737512569E+02  0.21290601740E+02 -0.25202616707E+03  0.26430876726E+03  0.00000000000E+00 0. -1.
<mgrwt>
<rscale>  0 0.16767925E+03</rscale>
<asrwt>0</asrwt>
<pdfrwt beam="2">  1        1 0.22615648E+00 0.17377713E+03</pdfrwt>
<pdfrwt beam="1">  1       -1 0.33897682E-02 0.17377713E+03</pdfrwt>
<totfact> 0.23531875E+03</totfact>
</mgrwt>
</event>
<event>
 7    1  0.5928109E-006  0.1370293E+03  0.7546771E-02  0.1233881E+00
          2   -1    0    0  501    0  0.00000000000E+00  0.00000000000E+00  0.90195983676E+03  0.90195983676E+03  0.00000000000E+00 0. -1.
         -2   -1    0    0    0  501 -0.00000000000E+00 -0.00000000000E+00 -0.15383459073E+02  0.15383459073E+02  0.00000000000E+00 0.  1.
         23    2    1    2    0    0 -0.56058056793E+02 -0.30372636573E+01  0.46974564707E+03  0.48932403868E+03  0.12500124471E+03 0.  0.
          5    1    3    3  502    0 -0.73892811109E+02  0.32259990267E+02  0.18573908352E+03  0.20253876580E+03  0.47000000000E+01 0. -1.
         -5    1    3    3    0  502  0.17834754317E+02 -0.35297253924E+02  0.28400656355E+03  0.28678527287E+03  0.47000000000E+01 0. -1.
        -11    1    1    2    0    0 -0.91122214924E+00 -0.26897438225E+02  0.65001539410E+02  0.70352701686E+02  0.00000000000E+00 0.  1.
         11    1    1    2    0    0  0.56969278942E+02  0.29934701882E+02  0.35182919120E+03  0.35766655547E+03  0.00000000000E+00 0. -1.
<mgrwt>
<rscale>  0 0.12576340E+03</rscale>
<asrwt>0</asrwt>
<pdfrwt beam="1">  1        2 0.13876301E+00 0.13702935E+03</pdfrwt>
<pdfrwt beam="2">  1       -2 0.23666867E-02 0.13702935E+03</pdfrwt>
<totfact> 0.17419604E+04</totfact>
</mgrwt>
</event>
<event>
 7    1  0.5928109E-006  0.1448632E+03  0.7546771E-02  0.1215948E+00
         -1   -1    0    0    0  501 -0.00000000000E+00  0.00000000000E+00  0.29363193458E+02  0.29363193458E+02  0.00000000000E+00 0.  1.
          1   -1    0    0  501    0  0.00000000000E+00 -0.00000000000E+00 -0.78606008188E+03  0.78606008188E+03  0.00000000000E+00 0. -1.
         23    2    1    2    0    0 -0.34435325729E+02  0.64592027647E+02 -0.60595804775E+03  0.62303329962E+03  0.12500966007E+03 0.  0.
          5    1    3    3  502    0  0.19165535777E+02  0.38868096218E+02 -0.49626424123E+03  0.49817500318E+03  0.47000000000E+01 0. -1.
         -5    1    3    3    0  502 -0.53600861506E+02  0.25723931429E+02 -0.10969380652E+03  0.12485829644E+03  0.47000000000E+01 0. -1.
        -11    1    1    2    0    0  0.59135168592E+02 -0.17832420869E+02 -0.10792359160E+03  0.12434816051E+03  0.00000000000E+00 0. -1.
         11    1    1    2    0    0 -0.24699842863E+02 -0.46759606778E+02 -0.42815249074E+02  0.68041815208E+02  0.00000000000E+00 0.  1.
<mgrwt>
<rscale>  0 0.13807148E+03</rscale>
<asrwt>0</asrwt>
<pdfrwt beam="2">  1        1 0.12093232E+00 0.14486317E+03</pdfrwt>
<pdfrwt beam="1">  1       -1 0.45174145E-02 0.14486317E+03</pdfrwt>
<totfact> 0.47329850E+03</totfact>
</mgrwt>
</event>
<event>
 7    1  0.5928109E-006  0.1399653E+03  0.7546771E-02  0.1230765E+00
          2   -1    0    0  501    0  0.00000000000E+00  0.00000000000E+00  0.66299892021E+03  0.66299892021E+03  0.00000000000E+00 0.  1.
         -2   -1    0    0    0  501 -0.00000000000E+00 -0.00000000000E+00 -0.24124108428E+02  0.24124108428E+02  0.00000000000E+00 0. -1.
         23    2    1    2    0    0  0.62956131396E+02  0.13958028608E+01  0.48745059826E+03  0.50714727860E+03  0.12499941479E+03 0.  0.
          5    1    3    3  502    0  0.65247666990E+02  0.34997395777E+02  0.45190634159E+03  0.45795579190E+03  0.47000000000E+01 0.  1.
         -5    1    3    3    0  502 -0.22915355938E+01 -0.33601592916E+02  0.35544256669E+02  0.49191486703E+02  0.47000000000E+01 0.  1.
        -11    1    1    2    0    0 -0.53362649830E+01  0.15506561629E+02  0.98739268566E+02  0.10009181952E+03  0.00000000000E+00 0.  1.
         11    1    1    2    0    0 -0.57619866413E+02 -0.16902364490E+02  0.52684944955E+02  0.79883930522E+02  0.00000000000E+00 0. -1.
<mgrwt>
<rscale>  0 0.12779473E+03</rscale>
<asrwt>0</asrwt>
<pdfrwt beam="1">  1        2 0.10199982E+00 0.13996527E+03</pdfrwt>
<pdfrwt beam="2">  1       -2 0.37114018E-02 0.13996527E+03</pdfrwt>
<totfact> 0.13156872E+04</totfact>
</mgrwt>
</event>
<event>
 7    1  0.5928109E-006  0.1453951E+03  0.7546771E-02  0.1215919E+00
          4   -1    0    0  501    0  0.00000000000E+00  0.00000000000E+00  0.35426822300E+03  0.35426822300E+03  0.00000000000E+00 0. -1.
         -4   -1    0    0    0  501 -0.00000000000E+00 -0.00000000000E+00 -0.61030591918E+02  0.61030591918E+02  0.00000000000E+00 0.  1.
         23    2    1    2    0    0 -0.49442416395E+02  0.55413367119E+02  0.25024437128E+03  0.28941662702E+03  0.12499817937E+03 0.  0.
          5    1    3    3  502    0 -0.86491257301E+02  0.30662230780E+02  0.20987864588E+03  0.22911142700E+03  0.47000000000E+01 0. -1.
         -5    1    3    3    0  502  0.37048840906E+02  0.24751136340E+02  0.40365725400E+02  0.60305200022E+02  0.47000000000E+01 0. -1.
        -11    1    1    2    0    0  0.56049208525E+02 -0.67744573791E+02  0.81101828322E+01  0.88298449137E+02  0.00000000000E+00 0.  1.
         11    1    1    2    0    0 -0.66067921298E+01  0.12331206672E+02  0.34883076973E+02  0.37583738762E+02  0.00000000000E+00 0. -1.
<mgrwt>
<rscale>  0 0.13809255E+03</rscale>
<asrwt>0</asrwt>
<pdfrwt beam="1">  1        4 0.54502802E-01 0.14539511E+03</pdfrwt>
<pdfrwt beam="2">  1       -4 0.93893221E-02 0.14539511E+03</pdfrwt>
<totfact> 0.46096694E+02</totfact>
</mgrwt>
</event>
<event>
 7    1  0.5928109E-006  0.1377070E+03  0.7546771E-02  0.1228042E+00
          2   -1    0    0  501    0  0.00000000000E+00  0.00000000000E+00  0.45810363008E+03  0.45810363008E+03  0.00000000000E+00 0.  1.
         -2   -1    0    0    0  501 -0.00000000000E+00 -0.00000000000E+00 -0.33455974338E+02  0.33455974338E+02  0.00000000000E+00 0. -1.
         23    2    1    2    0    0 -0.56251571866E+02 -0.13171595967E+02  0.26726752283E+03  0.30065784762E+03  0.12500192918E+03 0.  0.
          5    1    3    3  502    0 -0.63886672442E+02  0.37428537286E+02  0.92982802285E+02  0.11895500763E+03  0.47000000000E+01 0.  1.
         -5    1    3    3    0  502  0.76351005756E+01 -0.50600133253E+02  0.17428472054E+03  0.18170283999E+03  0.47000000000E+01 0.  1.
        -11    1    1    2    0    0 -0.21847163786E+02 -0.11612373926E+02  0.24699918983E+02  0.34960431798E+02  0.00000000000E+00 0. -1.
         11    1    1    2    0    0  0.78098735653E+02  0.24783969893E+02  0.13268021393E+03  0.15594132500E+03  0.00000000000E+00 0.  1.
<mgrwt>
<rscale>  0 0.12960566E+03</rscale>
<asrwt>0</asrwt>
<pdfrwt beam="1">  1        2 0.70477477E-01 0.13770698E+03</pdfrwt>
<pdfrwt beam="2">  1       -2 0.51470733E-02 0.13770698E+03</pdfrwt>
<totfact> 0.12206906E+04</totfact>
</mgrwt>
</event>
<event>
 6    1  0.5928109E-006  0.1311058E+03  0.7546771E-02  0.1243085E+00
          1   -1    0    0  501    0  0.00000000000E+00  0.00000000000E+00  0.29813675004E+03  0.29813675004E+03  0.00000000000E+00 0. -1.
         -1   -1    0    0    0  501 -0.00000000000E+00 -0.00000000000E+00 -0.46130518199E+02  0.46130518199E+02  0.00000000000E+00 0.  1.
          5    1    1    2  502    0  0.10788053048E+01  0.72917086304E+02  0.10846198139E+03  0.13078286089E+03  0.47000000000E+01 0. -1.
         -5    1    1    2    0  502 -0.15680396846E+02 -0.55652038442E+02  0.89791829181E+02  0.10690035929E+03  0.47000000000E+01 0.  1.
        -11    1    1    2    0    0 -0.23655509805E+02  0.25063971878E+02  0.14847158831E+02  0.37526310181E+02  0.00000000000E+00 0. -1.
         11    1    1    2    0    0  0.38257101346E+02 -0.42329019740E+02  0.38905262440E+02  0.69057737880E+02  0.00000000000E+00 0.  1.
<mgrwt>
<rscale>  0 0.12000720E+03</rscale>
<asrwt>0</asrwt>
<pdfrwt beam="1">  1        1 0.45867191E-01 0.13110583E+03</pdfrwt>
<pdfrwt beam="2">  1       -1 0.70970030E-02 0.13110583E+03</pdfrwt>
<totfact> 0.86441913E+03</totfact>
</mgrwt>
</event>
<event>
 7    1  0.5928109E-006  0.1395826E+03  0.7546771E-02  0.1225022E+00
          1   -1    0    0  501    0  0.00000000000E+00  0.00000000000E+00  0.94109303744E+03  0.94109303744E+03  0.00000000000E+00 0. -1.
         -1   -1    0    0    0  501 -0.00000000000E+00 -0.00000000000E+00 -0.16610148986E+02  0.16610148986E+02  0.00000000000E+00 0.  1.
         23    2    1    2    0    0 -0.64115343653E+02 -0.15849701479E+02  0.51445319980E+03  0.53305289413E+03  0.12296870671E+03 0.  0.
          5    1    3    3  502    0  0.30445152910E+02 -0.28207403711E+02  0.11510922184E+03  0.12245320704E+03  0.47000000000E+01 0. -1.
         -5    1    3    3    0  502 -0.94560496563E+02  0.12357702233E+02  0.39934397795E+03  0.41059968709E+03  0.47000000000E+01 0.  1.
        -11    1    1    2    0    0  0.24082215515E+02 -0.33920794988E+02  0.10371258682E+03  0.11174468265E+03  0.00000000000E+00 0.  1.
         11    1    1    2    0    0  0.40033128137E+02  0.49770496467E+02  0.30631710184E+03  0.31290560964E+03  0.00000000000E+00 0. -1.
<mgrwt>
<rscale>  0 0.13165400E+03</rscale>
<asrwt>0</asrwt>
<pdfrwt beam="1">  1        1 0.14478350E+00 0.13958257E+03</pdfrwt>
<pdfrwt beam="2">  1       -1 0.25554083E-02 0.13958257E+03</pdfrwt>
<totfact> 0.82094966E+03</totfact>
</mgrwt>
</event>
<event>
 7    1  0.5928109E-006  0.1362226E+03  0.7546771E-02  0.1230448E+00
          1   -1    0    0  501    0  0.00000000000E+00  0.00000000000E+00  0.41601090769E+03  0.41601090769E+03  0.00000000000E+00 0. -1.
         -1   -1    0    0    0  501 -0.00000000000E+00 -0.00000000000E+00 -0.36400069897E+02  0.36400069897E+02  0.00000000000E+00 0.  1.
         23    2    1    2    0    0 -0.23100206527E+02 -0.48958010661E+02  0.25131985114E+03  0.28586407374E+03  0.12500437885E+03 0.  0.
          5    1    3    3  502    0 -0.55598818509E+02 -0.42255403831E+02  0.61697344599E+02  0.93302733631E+02  0.47000000000E+01 0.  1.
         -5    1    3    3    0  502  0.32498611982E+02 -0.67026068301E+01  0.18962250654E+03  0.19256134011E+03  0.47000000000E+01 0.  1.
        -11    1    1    2    0    0  0.58303794160E+02  0.25390388788E+02  0.82502455048E+02  0.10416649819E+03  0.00000000000E+00 0. -1.
         11    1    1    2    0    0 -0.35203587633E+02  0.23567621873E+02  0.45788531611E+02  0.62380405658E+02  0.00000000000E+00 0.  1.
<mgrwt>
<rscale>  0 0.12800359E+03</rscale>
<asrwt>0</asrwt>
<pdfrwt beam="1">  1        1 0.64001675E-01 0.13622262E+03</pdfrwt>
<pdfrwt beam="2">  1       -1 0.56000110E-02 0.13622262E+03</pdfrwt>
<totfact> 0.81425261E+03</totfact>
</mgrwt>
</event>
<event>
 7    1  0.5928109E-006  0.2654164E+03  0.7546771E-02  0.1105971E+00
          2   -1    0    0  501    0  0.00000000000E+00  0.00000000000E+00  0.33882796954E+04  0.33882796954E+04  0.00000000000E+00 0.  1.
         -2   -1    0    0    0  501 -0.00000000000E+00 -0.00000000000E+00 -0.33367361719E+02  0.33367361719E+02  0.00000000000E+00 0. -1.
         23    2    1    2    0    0  0.15690780950E+03  0.17378625881E+03  0.27964763305E+04  0.28090435664E+04  0.12499666581E+03 0.  0.
          5    1    3    3  502    0  0.20418066591E+02  0.40012333107E+02  0.17954813681E+03  0.18514185825E+03  0.47000000000E+01 0. -1.
         -5    1    3    3    0  502  0.13648974291E+03  0.13377392570E+03  0.26169281937E+04  0.26239017082E+04  0.47000000000E+01 0. -1.
        -11    1    1    2    0    0 -0.16262475564E+03 -0.14605479207E+03  0.44637356064E+03  0.49701928440E+03  0.00000000000E+00 0.  1.
         11    1    1    2    0    0  0.57169461393E+01 -0.27731466737E+02  0.11206244257E+03  0.11558420634E+03  0.00000000000E+00 0. -1.
<mgrwt>
<rscale>  0 0.26195980E+03</rscale>
<asrwt>0</asrwt>
<pdfrwt beam="1">  1        2 0.52127353E+00 0.26541645E+03</pdfrwt>
<pdfrwt beam="2">  1       -2 0.51334429E-02 0.26541645E+03</pdfrwt>
<totfact> 0.22619175E+02</totfact>
</mgrwt>
</event>
<event>
 7    1  0.5928109E-006  0.3586166E+03  0.7546771E-02  0.1060120E+00
         -2   -1    0    0    0  501 -0.00000000000E+00  0.00000000000E+00  0.24861780452E+03  0.24861780452E+03  0.00000000000E+00 0.  1.
          2   -1    0    0  501    0  0.00000000000E+00 -0.00000000000E+00 -0.54504126766E+03  0.54504126766E+03  0.00000000000E+00 0. -1.
         23    2    1    2    0    0  0.13957155254E+03  0.30577885228E+03 -0.25994764529E+03  0.44292060697E+03  0.12499984403E+03 0.  0.
          5    1    3    3  502    0  0.11340380671E+03  0.12474758492E+03 -0.81412673989E+02  0.18727652497E+03  0.47000000000E+01 0. -1.
         -5    1    3    3    0  502  0.26167745831E+02  0.18103126735E+03 -0.17853497130E+03  0.25564408200E+03  0.47000000000E+01 0. -1.
        -11    1    1    2    0    0 -0.75020488370E+02 -0.17185558086E+03  0.26315079630E+02  0.18935389556E+03  0.00000000000E+00 0.  1.
         11    1    1    2    0    0 -0.64551064168E+02 -0.13392327141E+03 -0.62790897481E+02  0.16138456964E+03  0.00000000000E+00 0. -1.
<mgrwt>
<rscale>  0 0.35614622E+03</rscale>
<asrwt>0</asrwt>
<pdfrwt beam="2">  1        2 0.83852502E-01 0.35861663E+03</pdfrwt>
<pdfrwt beam="1">  1       -2 0.38248894E-01 0.35861663E+03</pdfrwt>
<totfact> 0.36703977E+02</totfact>
</mgrwt>
</event>
<event>
 7    1  0.5928109E-006  0.1324131E+03  0.7546771E-02  0.1235716E+00
          2   -1    0    0  501    0  0.00000000000E+00  0.00000000000E+00  0.60884913876E+03  0.60884913876E+03  0.00000000000E+00 0.  1.
         -2   -1    0    0    0  501 -0.00000000000E+00 -0.00000000000E+00 -0.22983075650E+02  0.22983075650E+02  0.00000000000E+00 0. -1.
         23    2    1    2    0    0  0.18294152272E+02 -0.39663761708E+02  0.34649251262E+03  0.37093164778E+03  0.12500134409E+03 0.  0.
          5    1    3    3  502    0  0.69417539574E+02 -0.16467507598E+02  0.14436879724E+03  0.16110373436E+03  0.47000000000E+01 0. -1.
         -5    1    3    3    0  502 -0.51123387301E+02 -0.23196254110E+02  0.20212371538E+03  0.20982791342E+03  0.47000000000E+01 0. -1.
        -11    1    1    2    0    0 -0.42919172531E+02  0.32241289406E+02  0.22525088055E+03  0.23155888086E+03  0.00000000000E+00 0.  1.
         11    1    1    2    0    0  0.24625020258E+02  0.74224723015E+01  0.14122669937E+02  0.29341685772E+02  0.00000000000E+00 0. -1.
<mgrwt>
<rscale>  0 0.12458684E+03</rscale>
<asrwt>0</asrwt>
<pdfrwt beam="1">  1        2 0.93669086E-01 0.13241309E+03</pdfrwt>
<pdfrwt beam="2">  1       -2 0.35358583E-02 0.13241309E+03</pdfrwt>
<totfact> 0.15533510E+04</totfact>
</mgrwt>
</event>
<event>
 7    1  0.5928109E-006  0.1571561E+03  0.7546771E-02  0.1200092E+00
          1   -1    0    0  501    0  0.00000000000E+00  0.00000000000E+00  0.33780155926E+03  0.33780155926E+03  0.00000000000E+00 0.  1.
         -1   -1    0    0    0  501 -0.00000000000E+00 -0.00000000000E+00 -0.64432649134E+02  0.64432649134E+02  0.00000000000E+00 0. -1.
         23    2    1    2    0    0 -0.93127105006E+02  0.19996951873E+02  0.18978840565E+03  0.24640957809E+03  0.12500202191E+03 0.  0.
          5    1    3    3  502    0 -0.43982403096E+02  0.61867817382E+02  0.46411586636E+02  0.89096599171E+02  0.47000000000E+01 0.  1.
         -5    1    3    3    0  502 -0.49144701910E+02 -0.41870865509E+02  0.14337681901E+03  0.15731297891E+03  0.47000000000E+01 0.  1.
        -11    1    1    2    0    0  0.69340856117E+02  0.29561918727E+02  0.38009586132E+02  0.84420317482E+02  0.00000000000E+00 0.  1.
         11    1    1    2    0    0  0.23786248889E+02 -0.49558870601E+02  0.45570918342E+02  0.71404312825E+02  0.00000000000E+00 0. -1.
<mgrwt>
<rscale>  0 0.15031089E+03</rscale>
<asrwt>0</asrwt>
<pdfrwt beam="1">  1        1 0.51969470E-01 0.15715610E+03</pdfrwt>
<pdfrwt beam="2">  1       -1 0.99127155E-02 0.15715610E+03</pdfrwt>
<totfact> 0.45118420E+03</totfact>
</mgrwt>
</event>
<event>
 7    1  0.5928109E-006  0.2577882E+03  0.7546771E-02  0.1110774E+00
          2   -1    0    0  501    0  0.00000000000E+00  0.00000000000E+00  0.15647118235E+04  0.15647118235E+04  0.00000000000E+00 0. -1.
         -2   -1    0    0    0  501 -0.00000000000E+00 -0.00000000000E+00 -0.40357285290E+02  0.40357285290E+02  0.00000000000E+00 0.  1.
         23    2    1    2    0    0 -0.16493166289E+03  0.15371053994E+03  0.71930023066E+03  0.76409920067E+03  0.12500153249E+03 0.  0.
          5    1    3    3  502    0 -0.13618333709E+03  0.17001173397E+03  0.55087497135E+03  0.59239785199E+03  0.47000000000E+01 0. -1.
         -5    1    3    3    0  502 -0.28748325792E+02 -0.16301194029E+02  0.16842525931E+03  0.17170134867E+03  0.47000000000E+01 0. -1.
        -11    1    1    2    0    0  0.53819176261E+02 -0.46103791718E+02  0.42124969773E+03  0.42716901945E+03  0.00000000000E+00 0.  1.
         11    1    1    2    0    0  0.11111248662E+03 -0.10760674822E+03  0.38380460987E+03  0.41380088871E+03  0.00000000000E+00 0. -1.
<mgrwt>
<rscale>  0 0.25404592E+03</rscale>
<asrwt>0</asrwt>
<pdfrwt beam="1">  1        2 0.24072485E+00 0.25778822E+03</pdfrwt>
<pdfrwt beam="2">  1       -2 0.62088143E-02 0.25778822E+03</pdfrwt>
<totfact> 0.17702421E+03</totfact>
</mgrwt>
</event>
<event>
 7    1  0.5928109E-006  0.1341584E+03  0.7546771E-02  0.1234417E+00
         -2   -1    0    0    0  501 -0.00000000000E+00  0.00000000000E+00  0.75452266945E+02  0.75452266945E+02  0.00000000000E+00 0.  1.
          2   -1    0    0  501    0  0.00000000000E+00 -0.00000000000E+00 -0.21200714803E+03  0.21200714803E+03  0.00000000000E+00 0. -1.
         23    2    1    2    0    0  0.42207482914E+02 -0.24368842438E+02 -0.12667962640E+03  0.18451611111E+03  0.12499262146E+03 0.  0.
          5    1    3    3  502    0 -0.16206329950E+02 -0.61621944176E+02 -0.50517299542E+02  0.81449350443E+02  0.47000000000E+01 0. -1.
         -5    1    3    3    0  502  0.58413812864E+02  0.37253101738E+02 -0.76162326856E+02  0.10306676067E+03  0.47000000000E+01 0. -1.
        -11    1    1    2    0    0 -0.94465645563E+01 -0.22206082906E+02  0.26132761599E+02  0.35570618897E+02  0.00000000000E+00 0.  1.
         11    1    1    2    0    0 -0.32760918358E+02  0.46574925344E+02 -0.36008016282E+02  0.67372684962E+02  0.00000000000E+00 0. -1.
<mgrwt>
<rscale>  0 0.12541832E+03</rscale>
<asrwt>0</asrwt>
<pdfrwt beam="2">  1        2 0.32616484E-01 0.13415837E+03</pdfrwt>
<pdfrwt beam="1">  1       -2 0.11608041E-01 0.13415837E+03</pdfrwt>
<totfact> 0.78992887E+03</totfact>
</mgrwt>
</event>
<event>
 7    1  0.5928109E-006  0.1737429E+03  0.7546771E-02  0.1181088E+00
          1   -1    0    0  501    0  0.00000000000E+00  0.00000000000E+00  0.98375517392E+03  0.98375517392E+03  0.00000000000E+00 0. -1.
         -1   -1    0    0    0  501 -0.00000000000E+00 -0.00000000000E+00 -0.26402662196E+02  0.26402662196E+02  0.00000000000E+00 0.  1.
         23    2    1    2    0    0  0.12924730479E+02  0.11997023742E+03  0.54572645911E+03  0.57271631209E+03  0.12500679755E+03 0.  0.
          5    1    3    3  502    0  0.56878414795E+02  0.38017696303E+02  0.34074796006E+03  0.34757986360E+03  0.47000000000E+01 0.  1.
         -5    1    3    3    0  502 -0.43953684317E+02  0.81952541119E+02  0.20497849906E+03  0.22513644848E+03  0.47000000000E+01 0.  1.
        -11    1    1    2    0    0  0.36888659600E+02 -0.52321194223E+02  0.18181138869E+03  0.19275285116E+03  0.00000000000E+00 0.  1.
         11    1    1    2    0    0 -0.49813390079E+02 -0.67649043198E+02  0.22981466392E+03  0.24468867286E+03  0.00000000000E+00 0. -1.
<mgrwt>
<rscale>  0 0.16692952E+03</rscale>
<asrwt>0</asrwt>
<pdfrwt beam="1">  1        1 0.15134692E+00 0.17374293E+03</pdfrwt>
<pdfrwt beam="2">  1       -1 0.40619488E-02 0.17374293E+03</pdfrwt>
<totfact> 0.39044683E+03</totfact>
</mgrwt>
</event>
<event>
 7    1  0.5928109E-006  0.2399970E+03  0.7546771E-02  0.1122495E+00
         -1   -1    0    0    0  501 -0.00000000000E+00  0.00000000000E+00  0.19019309137E+03  0.19019309137E+03  0.00000000000E+00 0.  1.
          1   -1    0    0  501    0  0.00000000000E+00 -0.00000000000E+00 -0.31872121116E+03  0.31872121116E+03  0.00000000000E+00 0. -1.
         23    2    1    2    0    0 -0.13245158830E+03  0.15630286941E+03 -0.15081909755E+03  0.28345184595E+03  0.12499815422E+03 0.  0.
          5    1    3    3  502    0  0.58062513738E-02  0.76448429408E+02 -0.16056999521E+02  0.78257776779E+02  0.47000000000E+01 0.  1.
         -5    1    3    3    0  502 -0.13245739455E+03  0.79854440002E+02 -0.13476209803E+03  0.20519406917E+03  0.47000000000E+01 0.  1.
        -11    1    1    2    0    0  0.14480302340E+03 -0.15355731525E+03  0.16997010748E+02  0.21174669544E+03  0.00000000000E+00 0. -1.
         11    1    1    2    0    0 -0.12351435107E+02 -0.27455541591E+01  0.52939670211E+01  0.13715761141E+02  0.00000000000E+00 0.  1.
<mgrwt>
<rscale>  0 0.23598784E+03</rscale>
<asrwt>0</asrwt>
<pdfrwt beam="2">  1        1 0.49034032E-01 0.23999698E+03</pdfrwt>
<pdfrwt beam="1">  1       -1 0.29260476E-01 0.23999698E+03</pdfrwt>
<totfact> 0.86650165E+02</totfact>
</mgrwt>
</event>
<event>
 7    1  0.5928109E-006  0.1888441E+03  0.7546771E-02  0.1164319E+00
          4   -1    0    0  501    0  0.00000000000E+00  0.00000000000E+00  0.17706228062E+03  0.17706228062E+03  0.00000000000E+00 0. -1.
         -4   -1    0    0    0  501 -0.00000000000E+00 -0.00000000000E+00 -0.30151714202E+03  0.30151714202E+03  0.00000000000E+00 0.  1.
         23    2    1    2    0    0  0.11173225968E+03  0.86920309389E+02  0.87023380835E+02  0.20793070817E+03  0.12499148991E+03 0.  0.
          5    1    3    3  502    0  0.73424005149E+02  0.10691519915E+03  0.24965368048E+02  0.13216392830E+03  0.47000000000E+01 0.  1.
         -5    1    3    3    0  502  0.38308254528E+02 -0.19994889758E+02  0.62058012787E+02  0.75766779874E+02  0.47000000000E+01 0.  1.
        -11    1    1    2    0    0  0.44742303546E+01 -0.32448705392E+02 -0.82190940774E+02  0.88477612785E+02  0.00000000000E+00 0.  1.
         11    1    1    2    0    0 -0.11620649003E+03 -0.54471603997E+02 -0.12928730146E+03  0.18217110168E+03  0.00000000000E+00 0. -1.
<mgrwt>
<rscale>  0 0.18364789E+03</rscale>
<asrwt>0</asrwt>
<pdfrwt beam="1">  1        4 0.27240351E-01 0.18884414E+03</pdfrwt>
<pdfrwt beam="2">  1       -4 0.46387252E-01 0.18884414E+03</pdfrwt>
<totfact> 0.10168971E+02</totfact>
</mgrwt>
</event>
<event>
 7    1  0.5928109E-006  0.1284107E+03  0.7546771E-02  0.1247791E+00
         -2   -1    0    0    0  501 -0.00000000000E+00  0.00000000000E+00  0.10006713843E+02  0.10006713843E+02  0.00000000000E+00 0.  1.
          2   -1    0    0  501    0  0.00000000000E+00 -0.00000000000E+00 -0.11891215784E+04  0.11891215784E+04  0.00000000000E+00 0. -1.
         23    2    1    2    0    0  0.23141938500E+02  0.18144008285E+02 -0.74110542468E+03  0.75214797071E+03  0.12499826002E+03 0.  0.
          5    1    3    3  502    0  0.35626601247E+02 -0.39784529179E+02 -0.53387758854E+03  0.53656260867E+03  0.47000000000E+01 0.  1.
         -5    1    3    3    0  502 -0.12484662747E+02  0.57928537464E+02 -0.20722783614E+03  0.21558536204E+03  0.47000000000E+01 0.  1.
        -11    1    1    2    0    0 -0.51514660736E+02  0.52417200656E+01 -0.23117054562E+03  0.23689883297E+03  0.00000000000E+00 0.  1.
         11    1    1    2    0    0  0.28372722236E+02 -0.23385728351E+02 -0.20683889424E+03  0.21008148854E+03  0.00000000000E+00 0. -1.
<mgrwt>
<rscale>  0 0.11719867E+03</rscale>
<asrwt>0</asrwt>
<pdfrwt beam="2">  1        2 0.18294175E+00 0.12841074E+03</pdfrwt>
<pdfrwt beam="1">  1       -2 0.15394947E-02 0.12841074E+03</pdfrwt>
<totfact> 0.21936528E+04</totfact>
</mgrwt>
</event>
<event>
 7    1  0.5928109E-006  0.1690547E+03  0.7546771E-02  0.1185754E+00
          1   -1    0    0  501    0  0.00000000000E+00  0.00000000000E+00  0.34138388080E+03  0.34138388080E+03  0.00000000000E+00 0. -1.
         -1   -1    0    0    0  501 -0.00000000000E+00 -0.00000000000E+00 -0.73266072049E+02  0.73266072049E+02  0.00000000000E+00 0.  1.
         23    2    1    2    0    0 -0.99969011961E+02 -0.54383275109E+02  0.16991619135E+03  0.23968938217E+03  0.12501257489E+03 0.  0.
          5    1    3    3  502    0 -0.33982411727E+02 -0.21665483518E+02  0.16019036231E+03  0.16524902318E+03  0.47000000000E+01 0. -1.
         -5    1    3    3    0  502 -0.65986600234E+02 -0.32717791591E+02  0.97258290349E+01  0.74440358996E+02  0.47000000000E+01 0. -1.
        -11    1    1    2    0    0  0.64208421246E+02  0.58248671551E+02  0.20126334132E+02  0.88998305725E+02  0.00000000000E+00 0.  1.
         11    1    1    2    0    0  0.35760590715E+02 -0.38653964418E+01  0.78075283274E+02  0.85962264955E+02  0.00000000000E+00 0. -1.
<mgrwt>
<rscale>  0 0.16263504E+03</rscale>
<asrwt>0</asrwt>
<pdfrwt beam="1">  1        1 0.52520596E-01 0.16905469E+03</pdfrwt>
<pdfrwt beam="2">  1       -1 0.11271704E-01 0.16905469E+03</pdfrwt>
<totfact> 0.36666784E+03</totfact>
</mgrwt>
</event>
<event>
 7    1  0.5928109E-006  0.3021869E+03  0.7546771E-02  0.1085757E+00
         -1   -1    0    0    0  501 -0.00000000000E+00  0.00000000000E+00  0.11652055663E+03  0.11652055663E+03  0.00000000000E+00 0.  1.
          1   -1    0    0  501    0  0.00000000000E+00 -0.00000000000E+00 -0.78248119381E+03  0.78248119381E+03  0.00000000000E+00 0. -1.
         23    2    1    2    0    0  0.24121148779E+03  0.13234242383E+03 -0.42967961298E+03  0.52530132507E+03  0.12497765132E+03 0.  0.
          5    1    3    3  502    0  0.22833765309E+03  0.13616606809E+03 -0.43523222644E+03  0.51002790400E+03  0.47000000000E+01 0. -1.
         -5    1    3    3    0  502  0.12873834692E+02 -0.38236442575E+01  0.55526134669E+01  0.15273421077E+02  0.47000000000E+01 0. -1.
        -11    1    1    2    0    0 -0.21159066310E+03 -0.12705674233E+03 -0.16652680331E+03  0.29773343901E+03  0.00000000000E+00 0. -1.
         11    1    1    2    0    0 -0.29620824684E+02 -0.52856815032E+01 -0.69754220892E+02  0.75966986357E+02  0.00000000000E+00 0.  1.
<mgrwt>
<rscale>  0 0.29896978E+03</rscale>
<asrwt>0</asrwt>
<pdfrwt beam="2">  1        1 0.12038172E+00 0.30218688E+03</pdfrwt>
<pdfrwt beam="1">  1       -1 0.17926239E-01 0.30218688E+03</pdfrwt>
<totfact> 0.57640837E+02</totfact>
</mgrwt>
</event>
<event>
 7    1  0.5928109E-006  0.1550301E+03  0.7546771E-02  0.1202117E+00
         -1   -1    0    0    0  501 -0.00000000000E+00  0.00000000000E+00  0.22525917318E+03  0.22525917318E+03  0.00000000000E+00 0.  1.
          1   -1    0    0  501    0  0.00000000000E+00 -0.00000000000E+00 -0.12450456380E+03  0.12450456380E+03  0.00000000000E+00 0. -1.
         23    2    1    2    0    0 -0.87154829310E+01  0.91319727128E+02 -0.37213636908E+02  0.15943393244E+03  0.12497628510E+03 0.  0.
          5    1    3    3  502    0 -0.35024324414E+02  0.99700776913E+02  0.81807277443E+01  0.10609412106E+03  0.47000000000E+01 0. -1.
         -5    1    3    3    0  502  0.26308841483E+02 -0.83810497845E+01 -0.45394364653E+02  0.53339811378E+02  0.47000000000E+01 0. -1.
        -11    1    1    2    0    0  0.12170562054E+02 -0.72533913644E+02  0.27972115861E+02  0.78687549682E+02  0.00000000000E+00 0. -1.
         11    1    1    2    0    0 -0.34550791231E+01 -0.18785813485E+02  0.10999613043E+03  0.11164225486E+03  0.00000000000E+00 0.  1.
<mgrwt>
<rscale>  0 0.14866957E+03</rscale>
<asrwt>0</asrwt>
<pdfrwt beam="2">  1        1 0.19154548E-01 0.15503007E+03</pdfrwt>
<pdfrwt beam="1">  1       -1 0.34655257E-01 0.15503007E+03</pdfrwt>
<totfact> 0.21033197E+03</totfact>
</mgrwt>
</event>
<event>
 7    1  0.5928109E-006  0.1687738E+03  0.7546771E-02  0.1185965E+00
         -2   -1    0    0    0  501 -0.00000000000E+00  0.00000000000E+00  0.25835784760E+02  0.25835784760E+02  0.00000000000E+00 0.  1.
          2   -1    0    0  501    0  0.00000000000E+00 -0.00000000000E+00 -0.10699660950E+04  0.10699660950E+04  0.00000000000E+00 0. -1.
         23    2    1    2    0    0  0.80294446948E+02 -0.80072562591E+02 -0.73916532823E+03  0.75818862198E+03  0.12500316218E+03 0.  0.
          5    1    3    3  502    0  0.10388104962E+03 -0.23098431871E+02 -0.44172815742E+03  0.45439043243E+03  0.47000000000E+01 0.  1.
         -5    1    3    3    0  502 -0.23586602668E+02 -0.56974130721E+02 -0.29743717080E+03  0.30379818955E+03  0.47000000000E+01 0.  1.
        -11    1    1    2    0    0 -0.76751768748E+01  0.39171390237E+02 -0.19814384493E+03  0.20212444047E+03  0.00000000000E+00 0. -1.
         11    1    1    2    0    0 -0.72619270074E+02  0.40901172355E+02 -0.10682113705E+03  0.13548881728E+03  0.00000000000E+00 0.  1.
<mgrwt>
<rscale>  0 0.16244341E+03</rscale>
<asrwt>0</asrwt>
<pdfrwt beam="2">  1        2 0.16461016E+00 0.16877383E+03</pdfrwt>
<pdfrwt beam="1">  1       -2 0.39747363E-02 0.16877383E+03</pdfrwt>
<totfact> 0.64866777E+03</totfact>
</mgrwt>
</event>
<event>
 7    1  0.5928109E-006  0.1745540E+03  0.7546771E-02  0.1179035E+00
         -1   -1    0    0    0  501 -0.00000000000E+00  0.00000000000E+00  0.44788503381E+02  0.44788503381E+02  0.00000000000E+00 0.  1.
          1   -1    0    0  501    0  0.00000000000E+00 -0.00000000000E+00 -0.61188746973E+03  0.61188746973E+03  0.00000000000E+00 0. -1.
         23    2    1    2    0    0 -0.26855560133E+02  0.11883936322E+03 -0.35038006191E+03  0.39145277123E+03  0.12500027583E+03 0.  0.
          5    1    3    3  502    0 -0.68311422984E+02  0.72031573128E+02 -0.28039585981E+03  0.29748769090E+03  0.47000000000E+01 0.  1.
         -5    1    3    3    0  502  0.41455862851E+02  0.46807790093E+02 -0.69984202100E+02  0.93965080332E+02  0.47000000000E+01 0.  1.
        -11    1    1    2    0    0 -0.17926298650E+02 -0.19838467291E+02 -0.10895712863E+03  0.11218989637E+03  0.00000000000E+00 0. -1.
         11    1    1    2    0    0  0.44781858783E+02 -0.99000895930E+02 -0.10776177581E+03  0.15303330551E+03  0.00000000000E+00 0.  1.
<mgrwt>
<rscale>  0 0.16886676E+03</rscale>
<asrwt>0</asrwt>
<pdfrwt beam="2">  1        1 0.94136529E-01 0.17455396E+03</pdfrwt>
<pdfrwt beam="1">  1       -1 0.68905393E-02 0.17455396E+03</pdfrwt>
<totfact> 0.36386192E+03</totfact>
</mgrwt>
</event>
<event>
 6    1  0.5928109E-006  0.1638679E+03  0.7546771E-02  0.1205819E+00
          1   -1    0    0  501    0  0.00000000000E+00  0.00000000000E+00  0.71304924527E+03  0.71304924527E+03  0.00000000000E+00 0. -1.
         -1   -1    0    0    0  501 -0.00000000000E+00 -0.00000000000E+00 -0.30754993329E+02  0.30754993329E+02  0.00000000000E+00 0.  1.
          5    1    1    2  502    0  0.12940965443E+02 -0.74363122947E+02  0.34559008351E+03  0.35376819878E+03  0.47000000000E+01 0. -1.
         -5    1    1    2    0  502  0.23574298750E+02  0.79150097807E+02  0.21819434156E+03  0.23334812241E+03  0.47000000000E+01 0.  1.
        -11    1    1    2    0    0 -0.61563846350E+02  0.20864772296E+02  0.62434512577E+02  0.90130540113E+02  0.00000000000E+00 0.  1.
         11    1    1    2    0    0  0.25048582157E+02 -0.25651747156E+02  0.56075314291E+02  0.66557377300E+02  0.00000000000E+00 0. -1.
<mgrwt>
<rscale>  0 0.14573130E+03</rscale>
<asrwt>0</asrwt>
<pdfrwt beam="1">  1        1 0.10969987E+00 0.16386792E+03</pdfrwt>
<pdfrwt beam="2">  1       -1 0.47315380E-02 0.16386792E+03</pdfrwt>
<totfact> 0.51287768E+03</totfact>
</mgrwt>
</event>
<event>
 7    1  0.5928109E-006  0.1460649E+03  0.7546771E-02  0.1216232E+00
          2   -1    0    0  501    0  0.00000000000E+00  0.00000000000E+00  0.58244986896E+02  0.58244986896E+02  0.00000000000E+00 0. -1.
         -2   -1    0    0    0  501 -0.00000000000E+00 -0.00000000000E+00 -0.32587733055E+03  0.32587733055E+03  0.00000000000E+00 0.  1.
         23    2    1    2    0    0 -0.28432078819E+02 -0.70015623768E+02 -0.88597422895E+02  0.17083455713E+03  0.12499748753E+03 0.  0.
          5    1    3    3  502    0 -0.12742489023E+00 -0.97124022027E+02 -0.88320162235E+02  0.13136069789E+03  0.47000000000E+01 0.  1.
         -5    1    3    3    0  502 -0.28304653929E+02  0.27108398258E+02 -0.27726065972E+00  0.39473859245E+02  0.47000000000E+01 0.  1.
        -11    1    1    2    0    0 -0.20982948764E+02  0.11142935735E+02 -0.10099597371E+03  0.10375276315E+03  0.00000000000E+00 0.  1.
         11    1    1    2    0    0  0.49415027583E+02  0.58872688033E+02 -0.78038947048E+02  0.10953499716E+03  0.00000000000E+00 0. -1.
<mgrwt>
<rscale>  0 0.13786429E+03</rscale>
<asrwt>0</asrwt>
<pdfrwt beam="1">  1        2 0.89607672E-02 0.14606486E+03</pdfrwt>
<pdfrwt beam="2">  1       -2 0.50134974E-01 0.14606486E+03</pdfrwt>
<totfact> 0.27124583E+03</totfact>
</mgrwt>
</event>
<event>
 7    1  0.5928109E-006  0.1259495E+03  0.7546771E-02  0.1249455E+00
         -1   -1    0    0    0  501 -0.00000000000E+00  0.00000000000E+00  0.21764676732E+02  0.21764676732E+02  0.00000000000E+00 0.  1.
          1   -1    0    0  501    0  0.00000000000E+00 -0.00000000000E+00 -0.97561825200E+03  0.97561825200E+03  0.00000000000E+00 0. -1.
         23    2    1    2    0    0  0.15022181144E+02 -0.36999197304E+01 -0.84915627109E+03  0.85844606118E+03  0.12499564750E+03 0.  0.
          5    1    3    3  502    0 -0.52408754305E+02 -0.14634180691E+02 -0.46932593605E+03  0.47249313331E+03  0.47000000000E+01 0. -1.
         -5    1    3    3    0  502  0.67430935449E+02  0.10934260960E+02 -0.37983033504E+03  0.38595292788E+03  0.47000000000E+01 0. -1.
        -11    1    1    2    0    0  0.26498790118E+02  0.10086446468E+02 -0.25254695976E+01  0.28465773777E+02  0.00000000000E+00 0.  1.
         11    1    1    2    0    0 -0.41520971262E+02 -0.63865267377E+01 -0.10217183458E+03  0.11047109377E+03  0.00000000000E+00 0. -1.
<mgrwt>
<rscale>  0 0.11622660E+03</rscale>
<asrwt>0</asrwt>
<pdfrwt beam="2">  1        1 0.15009511E+00 0.12594946E+03</pdfrwt>
<pdfrwt beam="1">  1       -1 0.33484119E-02 0.12594946E+03</pdfrwt>
<totfact> 0.51967827E+03</totfact>
</mgrwt>
</event>
<event>
 7    1  0.5928109E-006  0.1277897E+03  0.7546771E-02  0.1242835E+00
         -3   -1    0    0    0  501 -0.00000000000E+00  0.00000000000E+00  0.44924587846E+02  0.44924587846E+02  0.00000000000E+00 0.  1.
          3   -1    0    0  501    0  0.00000000000E+00 -0.00000000000E+00 -0.30161300092E+03  0.30161300092E+03  0.00000000000E+00 0. -1.
         23    2    1    2    0    0  0.18703032733E+02  0.18874367948E+02 -0.17927417524E+03  0.22015774604E+03  0.12499663210E+03 0.  0.
          5    1    3    3  502    0  0.29424899804E+02  0.57185276646E+02 -0.16579142607E+03  0.17789004343E+03  0.47000000000E+01 0. -1.
         -5    1    3    3    0  502 -0.10721867072E+02 -0.38310908698E+02 -0.13482749167E+02  0.42267702609E+02  0.47000000000E+01 0. -1.
        -11    1    1    2    0    0  0.29716540780E+02 -0.13215615247E+02  0.26624599578E+01  0.32631487482E+02  0.00000000000E+00 0.  1.
         11    1    1    2    0    0 -0.48419573513E+02 -0.56587527015E+01 -0.80076697795E+02  0.93748355244E+02  0.00000000000E+00 0. -1.
<mgrwt>
<rscale>  0 0.12015924E+03</rscale>
<asrwt>0</asrwt>
<pdfrwt beam="2">  1        3 0.46402000E-01 0.12778968E+03</pdfrwt>
<pdfrwt beam="1">  1       -3 0.69114751E-02 0.12778968E+03</pdfrwt>
<totfact> 0.14306397E+03</totfact>
</mgrwt>
</event>
<event>
 7    1  0.5928109E-006  0.1497588E+03  0.7546771E-02  0.1210479E+00
         -1   -1    0    0    0  501 -0.00000000000E+00  0.00000000000E+00  0.26575363470E+03  0.26575363470E+03  0.00000000000E+00 0.  1.
          1   -1    0    0  501    0  0.00000000000E+00 -0.00000000000E+00 -0.11380947416E+03  0.11380947416E+03  0.00000000000E+00 0. -1.
         23    2    1    2    0    0  0.80937850878E+02  0.15855262991E+02 -0.37597596671E+02  0.15440624614E+03  0.12500153801E+03 0.  0.
          5    1    3    3  502    0  0.27532778904E+02  0.54939326819E+02  0.21783011550E+02  0.65367982512E+02  0.47000000000E+01 0.  1.
         -5    1    3    3    0  502  0.53405071974E+02 -0.39084063829E+02 -0.59380608221E+02  0.89038263633E+02  0.47000000000E+01 0.  1.
        -11    1    1    2    0    0 -0.49460546045E+02  0.87951510341E+01  0.25547362256E+02  0.56359276211E+02  0.00000000000E+00 0.  1.
         11    1    1    2    0    0 -0.31477304833E+02 -0.24650414025E+02  0.16399439496E+03  0.16879758651E+03  0.00000000000E+00 0. -1.
<mgrwt>
<rscale>  0 0.14213964E+03</rscale>
<asrwt>0</asrwt>
<pdfrwt beam="2">  1        1 0.17509150E-01 0.14975884E+03</pdfrwt>
<pdfrwt beam="1">  1       -1 0.40885174E-01 0.14975884E+03</pdfrwt>
<totfact> 0.17676948E+03</totfact>
</mgrwt>
</event>
<event>
 7    1  0.5928109E-006  0.1254758E+03  0.7546771E-02  0.1245660E+00
         -1   -1    0    0    0  501 -0.00000000000E+00  0.00000000000E+00  0.56716807463E+03  0.56716807463E+03  0.00000000000E+00 0.  1.
          1   -1    0    0  501    0  0.00000000000E+00 -0.00000000000E+00 -0.22413732668E+02  0.22413732668E+02  0.00000000000E+00 0. -1.
         23    2    1    2    0    0  0.13369766480E+01 -0.10822334513E+02  0.31966198877E+03  0.34340642739E+03  0.12500110751E+03 0.  0.
          5    1    3    3  502    0 -0.31620023440E+02 -0.31454713555E+02  0.37273669875E+02  0.58315018247E+02  0.47000000000E+01 0.  1.
         -5    1    3    3    0  502  0.32957000088E+02  0.20632379042E+02  0.28238831889E+03  0.28509140914E+03  0.47000000000E+01 0.  1.
        -11    1    1    2    0    0 -0.23266066905E+02  0.48965803995E+02  0.10297157943E+03  0.11637055470E+03  0.00000000000E+00 0. -1.
         11    1    1    2    0    0  0.21929090257E+02 -0.38143469482E+02  0.12212077376E+03  0.12980482521E+03  0.00000000000E+00 0.  1.
<mgrwt>
<rscale>  0 0.11845958E+03</rscale>
<asrwt>0</asrwt>
<pdfrwt beam="2">  1        1 0.34482670E-02 0.12547584E+03</pdfrwt>
<pdfrwt beam="1">  1       -1 0.87256616E-01 0.12547584E+03</pdfrwt>
<totfact> 0.36334885E+03</totfact>
</mgrwt>
</event>
<event>
 7    1  0.5928109E-006  0.1372191E+03  0.7546771E-02  0.1228126E+00
         -1   -1    0    0    0  501 -0.00000000000E+00  0.00000000000E+00  0.95574494100E+02  0.95574494100E+02  0.00000000000E+00 0.  1.
          1   -1    0    0  501    0  0.00000000000E+00 -0.00000000000E+00 -0.17229722987E+03  0.17229722987E+03  0.00000000000E+00 0. -1.
         23    2    1    2    0    0 -0.28462707376E+02  0.48928661053E+02 -0.79941007166E+02  0.15880692495E+03  0.12499974080E+03 0.  0.
          5    1    3    3  502    0 -0.25418472522E+02  0.52189781147E+00 -0.10206601093E+03  0.10528975121E+03  0.47000000000E+01 0.  1.
         -5    1    3    3    0  502 -0.30442348538E+01  0.48406763242E+02  0.22125003763E+02  0.53517173738E+02  0.47000000000E+01 0.  1.
        -11    1    1    2    0    0 -0.29386807203E+02 -0.12212991904E+02 -0.18964916381E+02  0.37046047862E+02  0.00000000000E+00 0. -1.
         11    1    1    2    0    0  0.57849514579E+02 -0.36715669149E+02  0.22183187781E+02  0.72018751157E+02  0.00000000000E+00 0.  1.
<mgrwt>
<rscale>  0 0.12954920E+03</rscale>
<asrwt>0</asrwt>
<pdfrwt beam="2">  1        1 0.26507266E-01 0.13721908E+03</pdfrwt>
<pdfrwt beam="1">  1       -1 0.14703768E-01 0.13721908E+03</pdfrwt>
<totfact> 0.56177751E+03</totfact>
</mgrwt>
</event>
<event>
 7    1  0.5928109E-006  0.1904592E+03  0.7546771E-02  0.1162659E+00
          2   -1    0    0  501    0  0.00000000000E+00  0.00000000000E+00  0.65307662317E+03  0.65307662317E+03  0.00000000000E+00 0. -1.
         -2   -1    0    0    0  501 -0.00000000000E+00 -0.00000000000E+00 -0.51230658402E+02  0.51230658402E+02  0.00000000000E+00 0.  1.
         23    2    1    2    0    0 -0.12795416382E+03  0.65404415056E+02  0.37032436852E+03  0.41643106591E+03  0.12499875675E+03 0.  0.
          5    1    3    3  502    0 -0.63285306878E+02  0.51373734228E+01  0.28997024932E+03  0.29687751373E+03  0.47000000000E+01 0. -1.
         -5    1    3    3    0  502 -0.64668856941E+02  0.60267041633E+02  0.80354119200E+02  0.11955355218E+03  0.47000000000E+01 0. -1.
        -11    1    1    2    0    0  0.10561375271E+03 -0.34386681001E+02  0.22237646926E+03  0.24857192656E+03  0.00000000000E+00 0. -1.
         11    1    1    2    0    0  0.22340411112E+02 -0.31017734054E+02  0.91451269907E+01  0.39304289107E+02  0.00000000000E+00 0.  1.
<mgrwt>
<rscale>  0 0.18541938E+03</rscale>
<asrwt>0</asrwt>
<pdfrwt beam="1">  1        2 0.10047332E+00 0.19045917E+03</pdfrwt>
<pdfrwt beam="2">  1       -2 0.78816402E-02 0.19045917E+03</pdfrwt>
<totfact> 0.43467769E+03</totfact>
</mgrwt>
</event>
<event>
 7    1  0.8171199E-006  0.1321793E+03  0.7546771E-02  0.1237345E+00
         -1   -1    0    0    0  501 -0.00000000000E+00  0.00000000000E+00  0.13724288982E+02  0.13724288982E+02  0.00000000000E+00 0.  1.
          1   -1    0    0  501    0  0.00000000000E+00 -0.00000000000E+00 -0.11510788364E+04  0.11510788364E+04  0.00000000000E+00 0. -1.
         23    2    1    2    0    0 -0.21573532089E+02 -0.37162354133E+02 -0.85063297976E+03  0.86084135384E+03  0.12499964950E+03 0.  0.
          5    1    3    3  502    0 -0.87023041857E+01 -0.33422920204E+02 -0.55213310589E+02  0.65294880040E+02  0.47000000000E+01 0.  1.
         -5    1    3    3    0  502 -0.12871227903E+02 -0.37394339286E+01 -0.79541966917E+03  0.79554647380E+03  0.47000000000E+01 0.  1.
        -11    1    1    2    0    0  0.34500147967E+02 -0.14444480809E+02 -0.57110897447E+02  0.68268278452E+02  0.00000000000E+00 0.  1.
         11    1    1    2    0    0 -0.12926615879E+02  0.51606834942E+02 -0.22961067025E+03  0.23569349313E+03  0.00000000000E+00 0. -1.
<mgrwt>
<rscale>  0 0.12355484E+03</rscale>
<asrwt>0</asrwt>
<pdfrwt beam="2">  1        1 0.17708902E+00 0.13217931E+03</pdfrwt>
<pdfrwt beam="1">  1       -1 0.21114295E-02 0.13217931E+03</pdfrwt>
<totfact> 0.76194898E+03</totfact>
</mgrwt>
</event>
<event>
 7    1  0.5928109E-006  0.1431878E+03  0.7546771E-02  0.1218508E+00
         -1   -1    0    0    0  501 -0.00000000000E+00  0.00000000000E+00  0.59520173764E+02  0.59520173764E+02  0.00000000000E+00 0. -1.
          1   -1    0    0  501    0  0.00000000000E+00 -0.00000000000E+00 -0.31561235986E+03  0.31561235986E+03  0.00000000000E+00 0.  1.
         23    2    1    2    0    0  0.45447362603E+02 -0.53025390001E+02 -0.19772691936E+03  0.24412839796E+03  0.12500234118E+03 0.  0.
          5    1    3    3  502    0  0.21958484762E+02 -0.14257889580E+02  0.12234347592E+02  0.29278519930E+02  0.47000000000E+01 0. -1.
         -5    1    3    3    0  502  0.23488877841E+02 -0.38767500421E+02 -0.20996126695E+03  0.21484987803E+03  0.47000000000E+01 0. -1.
        -11    1    1    2    0    0 -0.66865457376E+02  0.54806377325E+02 -0.65382474794E+02  0.10839555524E+03  0.00000000000E+00 0.  1.
         11    1    1    2    0    0  0.21418094773E+02 -0.17809873243E+01  0.70172080592E+01  0.22608580418E+02  0.00000000000E+00 0. -1.
<mgrwt>
<rscale>  0 0.13621951E+03</rscale>
<asrwt>0</asrwt>
<pdfrwt beam="2">  1        1 0.48555746E-01 0.14318778E+03</pdfrwt>
<pdfrwt beam="1">  1       -1 0.91569501E-02 0.14318778E+03</pdfrwt>
<totfact> 0.55140507E+03</totfact>
</mgrwt>
</event>
<event>
 7    1  0.5928109E-006  0.1711455E+03  0.7546771E-02  0.1183012E+00
         -2   -1    0    0    0  501 -0.00000000000E+00  0.00000000000E+00  0.51193130933E+02  0.51193130933E+02  0.00000000000E+00 0. -1.
          2   -1    0    0  501    0  0.00000000000E+00 -0.00000000000E+00 -0.50015402175E+03  0.50015402175E+03  0.00000000000E+00 0.  1.
         23    2    1    2    0    0 -0.77928392990E+00 -0.11689702255E+03 -0.22476162643E+03  0.28250412337E+03  0.12500107936E+03 0.  0.
          5    1    3    3  502    0 -0.14503655392E+02 -0.20047058361E+01 -0.13529367966E+03  0.13616477012E+03  0.47000000000E+01 0. -1.
         -5    1    3    3    0  502  0.13724371462E+02 -0.11489231671E+03 -0.89467946774E+02  0.14633935326E+03  0.47000000000E+01 0. -1.
        -11    1    1    2    0    0  0.25273639433E+02  0.34927764214E+02 -0.14842526939E+03  0.15455991122E+03  0.00000000000E+00 0. -1.
         11    1    1    2    0    0 -0.24494355503E+02  0.81969258333E+02 -0.75773994996E+02  0.11428311809E+03  0.00000000000E+00 0.  1.
<mgrwt>
<rscale>  0 0.16514095E+03</rscale>
<asrwt>0</asrwt>
<pdfrwt beam="2">  1        2 0.76946775E-01 0.17114553E+03</pdfrwt>
<pdfrwt beam="1">  1       -2 0.78758661E-02 0.17114553E+03</pdfrwt>
<totfact> 0.58701919E+03</totfact>
</mgrwt>
</event>
<event>
 7    1  0.5928109E-006  0.1591665E+03  0.7546771E-02  0.1197249E+00
         -2   -1    0    0    0  501 -0.00000000000E+00  0.00000000000E+00  0.14449229106E+03  0.14449229106E+03  0.00000000000E+00 0. -1.
          2   -1    0    0  501    0  0.00000000000E+00 -0.00000000000E+00 -0.16575855678E+03  0.16575855678E+03  0.00000000000E+00 0.  1.
         23    2    1    2    0    0  0.86516521113E+02 -0.47154785147E+02 -0.60028655963E+02  0.17011001241E+03  0.12500117839E+03 0.  0.
          5    1    3    3  502    0  0.10136493013E+03 -0.74369024279E+02 -0.36775502608E+02  0.13107298892E+03  0.47000000000E+01 0.  1.
         -5    1    3    3    0  502 -0.14848409022E+02  0.27214239132E+02 -0.23253153355E+02  0.39037023490E+02  0.47000000000E+01 0.  1.
        -11    1    1    2    0    0 -0.53464436855E+02  0.17538054962E+02 -0.25715855102E+02  0.61865455496E+02  0.00000000000E+00 0.  1.
         11    1    1    2    0    0 -0.33052084258E+02  0.29616730185E+02  0.64478245339E+02  0.78275379927E+02  0.00000000000E+00 0. -1.
<mgrwt>
<rscale>  0 0.15265437E+03</rscale>
<asrwt>0</asrwt>
<pdfrwt beam="2">  1        2 0.25501316E-01 0.15916651E+03</pdfrwt>
<pdfrwt beam="1">  1       -2 0.22229583E-01 0.15916651E+03</pdfrwt>
<totfact> 0.35685890E+03</totfact>
</mgrwt>
</event>
<event>
 7    1  0.5928109E-006  0.2070023E+03  0.7546771E-02  0.1147906E+00
         -2   -1    0    0    0  501 -0.00000000000E+00  0.00000000000E+00  0.42578695943E+02  0.42578695943E+02  0.00000000000E+00 0. -1.
          2   -1    0    0  501    0  0.00000000000E+00 -0.00000000000E+00 -0.91802537796E+03  0.91802537796E+03  0.00000000000E+00 0.  1.
         23    2    1    2    0    0  0.29728659053E+02 -0.16230162162E+03 -0.46100358536E+03  0.50534569546E+03  0.12499742659E+03 0.  0.
          5    1    3    3  502    0 -0.22983377491E+02 -0.14056291296E+03 -0.26160536893E+03  0.29790204295E+03  0.47000000000E+01 0.  1.
         -5    1    3    3    0  502  0.52712036544E+02 -0.21738708659E+02 -0.19939821643E+03  0.20744365251E+03  0.47000000000E+01 0.  1.
        -11    1    1    2    0    0  0.19039681542E+02  0.14028351346E+02 -0.11680811842E+03  0.11917818863E+03  0.00000000000E+00 0.  1.
         11    1    1    2    0    0 -0.48768340595E+02  0.14827327027E+03 -0.29763497824E+03  0.33608018982E+03  0.00000000000E+00 0. -1.
<mgrwt>
<rscale>  0 0.20218808E+03</rscale>
<asrwt>0</asrwt>
<pdfrwt beam="2">  1        2 0.14123465E+00 0.20700233E+03</pdfrwt>
<pdfrwt beam="1">  1       -2 0.65505695E-02 0.20700233E+03</pdfrwt>
<totfact> 0.37880949E+03</totfact>
</mgrwt>
</event>
<event>
 7    1  0.5928109E-006  0.1382924E+03  0.7546771E-02  0.1226998E+00
         -3   -1    0    0    0  501 -0.00000000000E+00  0.00000000000E+00  0.25159076637E+03  0.25159076637E+03  0.00000000000E+00 0.  1.
          3   -1    0    0  501    0  0.00000000000E+00 -0.00000000000E+00 -0.65524039145E+02  0.65524039145E+02  0.00000000000E+00 0. -1.
         23    2    1    2    0    0  0.50222377249E+02  0.31192351552E+02  0.60845777883E+02  0.15108609033E+03  0.12501819081E+03 0.  0.
          5    1    3    3  502    0  0.79876702363E+02 -0.16630695374E+02  0.38808197249E+02  0.90471176530E+02  0.47000000000E+01 0.  1.
         -5    1    3    3    0  502 -0.29654325115E+02  0.47823046926E+02  0.22037580634E+02  0.60614913804E+02  0.47000000000E+01 0.  1.
        -11    1    1    2    0    0 -0.11259435133E+02  0.32452605719E+02  0.37279101157E+02  0.50691990299E+02  0.00000000000E+00 0. -1.
         11    1    1    2    0    0 -0.38962942116E+02 -0.63644957270E+02  0.87941848184E+02  0.11533672488E+03  0.00000000000E+00 0.  1.
<mgrwt>
<rscale>  0 0.13030913E+03</rscale>
<asrwt>0</asrwt>
<pdfrwt beam="2">  1        3 0.10080622E-01 0.13829244E+03</pdfrwt>
<pdfrwt beam="1">  1       -3 0.38706271E-01 0.13829244E+03</pdfrwt>
<totfact> 0.11134716E+03</totfact>
</mgrwt>
</event>
<event>
 7    1  0.5928109E-006  0.1717282E+03  0.7546771E-02  0.1182459E+00
         -2   -1    0    0    0  501 -0.00000000000E+00  0.00000000000E+00  0.59620339446E+02  0.59620339446E+02  0.00000000000E+00 0.  1.
          2   -1    0    0  501    0  0.00000000000E+00 -0.00000000000E+00 -0.47786827723E+03  0.47786827723E+03  0.00000000000E+00 0. -1.
         23    2    1    2    0    0 -0.37923453430E+02  0.11148193805E+03 -0.30709352615E+03  0.35184798444E+03  0.12499663803E+03 0.  0.
          5    1    3    3  502    0 -0.40842226063E+02  0.64792908881E+02 -0.52563076303E+02  0.93011695293E+02  0.47000000000E+01 0.  1.
         -5    1    3    3    0  502  0.29187726327E+01  0.46689029166E+02 -0.25453044985E+03  0.25883628914E+03  0.47000000000E+01 0.  1.
        -11    1    1    2    0    0 -0.27255789182E+02 -0.19553715410E+02 -0.40685937431E+02  0.52731123020E+02  0.00000000000E+00 0.  1.
         11    1    1    2    0    0  0.65179242612E+02 -0.91928222636E+02 -0.70468474205E+02  0.13290950922E+03  0.00000000000E+00 0. -1.
<mgrwt>
<rscale>  0 0.16565241E+03</rscale>
<asrwt>0</asrwt>
<pdfrwt beam="2">  1        2 0.73518196E-01 0.17172819E+03</pdfrwt>
<pdfrwt beam="1">  1       -2 0.91723600E-02 0.17172819E+03</pdfrwt>
<totfact> 0.48677777E+03</totfact>
</mgrwt>
</event>
<event>
 7    1  0.5928109E-006  0.1472641E+03  0.7546771E-02  0.1216537E+00
          1   -1    0    0  501    0  0.00000000000E+00  0.00000000000E+00  0.90481998243E+02  0.90481998243E+02  0.00000000000E+00 0. -1.
         -1   -1    0    0    0  501 -0.00000000000E+00 -0.00000000000E+00 -0.19512668205E+03  0.19512668205E+03  0.00000000000E+00 0.  1.
         23    2    1    2    0    0  0.64799040375E+02  0.43147401899E+02 -0.89180758127E+02  0.17216251229E+03  0.12500443630E+03 0.  0.
          5    1    3    3  502    0  0.98281926555E+02  0.31031608512E+02 -0.38662366836E+02  0.11017788537E+03  0.47000000000E+01 0.  1.
         -5    1    3    3    0  502 -0.33482886181E+02  0.12115793387E+02 -0.50518391291E+02  0.61984626925E+02  0.47000000000E+01 0.  1.
        -11    1    1    2    0    0 -0.20954908285E+02 -0.59323198398E+02  0.34986251594E+01  0.63012621175E+02  0.00000000000E+00 0.  1.
         11    1    1    2    0    0 -0.43844132090E+02  0.16175796498E+02 -0.18962550837E+02  0.50433546824E+02  0.00000000000E+00 0. -1.
<mgrwt>
<rscale>  0 0.13764233E+03</rscale>
<asrwt>0</asrwt>
<pdfrwt beam="1">  1        1 0.13920308E-01 0.14726413E+03</pdfrwt>
<pdfrwt beam="2">  1       -1 0.30019489E-01 0.14726413E+03</pdfrwt>
<totfact> 0.40452205E+03</totfact>
</mgrwt>
</event>
<event>
 7    1  0.5928109E-006  0.1948599E+03  0.7546771E-02  0.1159274E+00
          1   -1    0    0  501    0  0.00000000000E+00  0.00000000000E+00  0.31745490887E+03  0.31745490887E+03  0.00000000000E+00 0. -1.
         -1   -1    0    0    0  501 -0.00000000000E+00 -0.00000000000E+00 -0.13170695522E+03  0.13170695522E+03  0.00000000000E+00 0.  1.
         23    2    1    2    0    0 -0.10987607071E+03 -0.99170319711E+02  0.19554088734E+03  0.27605549281E+03  0.12673947002E+03 0.  0.
          5    1    3    3  502    0 -0.11610465978E+03 -0.36199087998E+02  0.16658312372E+03  0.20630727836E+03  0.47000000000E+01 0. -1.
         -5    1    3    3    0  502  0.62285890678E+01 -0.62971231714E+02  0.28957763615E+02  0.69748214450E+02  0.47000000000E+01 0.  1.
        -11    1    1    2    0    0  0.11916890222E+03  0.65139464532E+02 -0.17687330895E+02  0.13695699606E+03  0.00000000000E+00 0.  1.
         11    1    1    2    0    0 -0.92928315025E+01  0.34030855179E+02  0.78943972088E+01  0.36149375221E+02  0.00000000000E+00 0. -1.
<mgrwt>
<rscale>  0 0.18910202E+03</rscale>
<asrwt>0</asrwt>
<pdfrwt beam="1">  1        1 0.48839217E-01 0.19485994E+03</pdfrwt>
<pdfrwt beam="2">  1       -1 0.20262609E-01 0.19485994E+03</pdfrwt>
<totfact> 0.15969503E+03</totfact>
</mgrwt>
</event>
<event>
 7    1  0.5928109E-006  0.2075216E+03  0.7546771E-02  0.1147378E+00
          4   -1    0    0  501    0  0.00000000000E+00  0.00000000000E+00  0.52974050535E+03  0.52974050535E+03  0.00000000000E+00 0. -1.
         -4   -1    0    0    0  501 -0.00000000000E+00 -0.00000000000E+00 -0.89728450335E+02  0.89728450335E+02  0.00000000000E+00 0.  1.
         23    2    1    2    0    0  0.79733218507E+02  0.14519837422E+03  0.35652176647E+03  0.41252030002E+03  0.12500109579E+03 0.  0.
          5    1    3    3  502    0  0.74443053715E+02  0.15120873074E+02  0.15286464965E+03  0.17076328692E+03  0.47000000000E+01 0. -1.
         -5    1    3    3    0  502  0.52901647918E+01  0.13007750114E+03  0.20365711682E+03  0.24175701309E+03  0.47000000000E+01 0. -1.
        -11    1    1    2    0    0 -0.38521519423E+02 -0.14298318742E+03  0.66034663100E+02  0.16213783049E+03  0.00000000000E+00 0.  1.
         11    1    1    2    0    0 -0.41211699084E+02 -0.22151867912E+01  0.17455625445E+02  0.44810825183E+02  0.00000000000E+00 0. -1.
<mgrwt>
<rscale>  0 0.20282405E+03</rscale>
<asrwt>0</asrwt>
<pdfrwt beam="1">  1        4 0.81498537E-01 0.20752163E+03</pdfrwt>
<pdfrwt beam="2">  1       -4 0.13804377E-01 0.20752163E+03</pdfrwt>
<totfact> 0.10615316E+02</totfact>
</mgrwt>
</event>
<event>
 7    1  0.5928109E-006  0.3000925E+03  0.7546771E-02  0.1086810E+00
          2   -1    0    0  501    0  0.00000000000E+00  0.00000000000E+00  0.33130158774E+03  0.33130158774E+03  0.00000000000E+00 0. -1.
         -2   -1    0    0    0  501 -0.00000000000E+00 -0.00000000000E+00 -0.26380267769E+03  0.26380267769E+03  0.00000000000E+00 0.  1.
         23    2    1    2    0    0 -0.14122701888E+03 -0.23342370089E+03  0.67774186514E+02  0.30765051837E+03  0.12499522430E+03 0.  0.
          5    1    3    3  502    0 -0.58745834778E+02 -0.18217580590E+03  0.83999959141E+02  0.20908653829E+03  0.47000000000E+01 0. -1.
         -5    1    3    3    0  502 -0.82481184100E+02 -0.51247894992E+02 -0.16225772628E+02  0.98563980079E+02  0.47000000000E+01 0. -1.
        -11    1    1    2    0    0  0.11147639076E+03  0.96834648730E+02  0.13710455236E+00  0.14766161888E+03  0.00000000000E+00 0.  1.
         11    1    1    2    0    0  0.29750628115E+02  0.13658905216E+03 -0.41238101728E+00  0.13979212818E+03  0.00000000000E+00 0. -1.
<mgrwt>
<rscale>  0 0.29688160E+03</rscale>
<asrwt>0</asrwt>
<pdfrwt beam="1">  1        2 0.50969475E-01 0.30009249E+03</pdfrwt>
<pdfrwt beam="2">  1       -2 0.40585027E-01 0.30009249E+03</pdfrwt>
<totfact> 0.57071558E+02</totfact>
</mgrwt>
</event>
<event>
 7    1  0.5928109E-006  0.1944745E+03  0.7546771E-02  0.1158971E+00
          4   -1    0    0  501    0  0.00000000000E+00  0.00000000000E+00  0.40774199669E+02  0.40774199669E+02  0.00000000000E+00 0. -1.
         -4   -1    0    0    0  501 -0.00000000000E+00 -0.00000000000E+00 -0.88070280954E+03  0.88070280954E+03  0.00000000000E+00 0.  1.
         23    2    1    2    0    0  0.13409508797E+03 -0.64968702228E+02 -0.33889340112E+03  0.39072891543E+03  0.12497168935E+03 0.  0.
          5    1    3    3  502    0  0.46208643082E+02 -0.32094255157E+02 -0.22660348001E+02  0.60834704578E+02  0.47000000000E+01 0. -1.
         -5    1    3    3    0  502  0.87886444883E+02 -0.32874447071E+02 -0.31623305312E+03  0.32989421085E+03  0.47000000000E+01 0. -1.
        -11    1    1    2    0    0 -0.36525639881E+02 -0.15702800941E+01 -0.37370361855E+02  0.52279365848E+02  0.00000000000E+00 0. -1.
         11    1    1    2    0    0 -0.97569448084E+02  0.66538982322E+02 -0.46366484689E+03  0.47846872793E+03  0.00000000000E+00 0.  1.
<mgrwt>
<rscale>  0 0.18943653E+03</rscale>
<asrwt>0</asrwt>
<pdfrwt beam="1">  1        4 0.62729539E-02 0.19447454E+03</pdfrwt>
<pdfrwt beam="2">  1       -4 0.13549274E+00 0.19447454E+03</pdfrwt>
<totfact> 0.12029771E+02</totfact>
</mgrwt>
</event>
<event>
 7    1  0.5928109E-006  0.1274833E+03  0.7546771E-02  0.1246287E+00
         -3   -1    0    0    0  501 -0.00000000000E+00  0.00000000000E+00  0.57367875264E+02  0.57367875264E+02  0.00000000000E+00 0.  1.
          3   -1    0    0  501    0  0.00000000000E+00 -0.00000000000E+00 -0.31980008285E+03  0.31980008285E+03  0.00000000000E+00 0. -1.
         23    2    1    2    0    0 -0.24984997167E+02  0.15182960387E+01 -0.25241722732E+03  0.28278341260E+03  0.12500178594E+03 0.  0.
          5    1    3    3  502    0 -0.74136863502E+02  0.15963228449E+02 -0.14636860471E+03  0.16491500125E+03  0.47000000000E+01 0. -1.
         -5    1    3    3    0  502  0.49151866335E+02 -0.14444932410E+02 -0.10604862261E+03  0.11786841135E+03  0.47000000000E+01 0. -1.
        -11    1    1    2    0    0  0.20744701401E+02 -0.28920943894E+02  0.29419861210E+02  0.46176745940E+02  0.00000000000E+00 0.  1.
         11    1    1    2    0    0  0.42402957654E+01  0.27402647855E+02 -0.39434841475E+02  0.48207799574E+02  0.00000000000E+00 0. -1.
<mgrwt>
<rscale>  0 0.11808660E+03</rscale>
<asrwt>0</asrwt>
<pdfrwt beam="2">  1        3 0.49200012E-01 0.12748334E+03</pdfrwt>
<pdfrwt beam="1">  1       -3 0.88258270E-02 0.12748334E+03</pdfrwt>
<totfact> 0.85679989E+02</totfact>
</mgrwt>
</event>
<event>
 7    1  0.5928109E-006  0.1282286E+03  0.7546771E-02  0.1245521E+00
          2   -1    0    0  501    0  0.00000000000E+00  0.00000000000E+00  0.37246705244E+03  0.37246705244E+03  0.00000000000E+00 0. -1.
         -2   -1    0    0    0  501 -0.00000000000E+00 -0.00000000000E+00 -0.39521795516E+02  0.39521795516E+02  0.00000000000E+00 0.  1.
         23    2    1    2    0    0 -0.22414093993E+02  0.17725915218E+02  0.27069671281E+03  0.29953177624E+03  0.12500389984E+03 0.  0.
          5    1    3    3  502    0  0.86871834965E+00 -0.51317281901E+02  0.14842367671E+03  0.15711745893E+03  0.47000000000E+01 0. -1.
         -5    1    3    3    0  502 -0.23282812343E+02  0.69043197119E+02  0.12227303610E+03  0.14241431732E+03  0.47000000000E+01 0. -1.
        -11    1    1    2    0    0  0.19052108647E+02  0.33066996869E+02  0.98717072939E+01  0.39419027522E+02  0.00000000000E+00 0.  1.
         11    1    1    2    0    0  0.33619853457E+01 -0.50792912087E+02  0.52376836825E+02  0.73038044193E+02  0.00000000000E+00 0. -1.
<mgrwt>
<rscale>  0 0.11854254E+03</rscale>
<asrwt>0</asrwt>
<pdfrwt beam="1">  1        2 0.57302621E-01 0.12822860E+03</pdfrwt>
<pdfrwt beam="2">  1       -2 0.60802765E-02 0.12822860E+03</pdfrwt>
<totfact> 0.11784897E+04</totfact>
</mgrwt>
</event>
<event>
 7    1  0.5928109E-006  0.1620812E+03  0.7546771E-02  0.1193535E+00
          2   -1    0    0  501    0  0.00000000000E+00  0.00000000000E+00  0.55039010968E+03  0.55039010968E+03  0.00000000000E+00 0. -1.
         -2   -1    0    0    0  501 -0.00000000000E+00 -0.00000000000E+00 -0.41237549205E+02  0.41237549205E+02  0.00000000000E+00 0.  1.
         23    2    1    2    0    0  0.10295046074E+03  0.69105591444E+01  0.25193550978E+03  0.29956939274E+03  0.12499506705E+03 0.  0.
          5    1    3    3  502    0 -0.27140569726E+02  0.15451318938E+00  0.21986323668E+02  0.35243762964E+02  0.47000000000E+01 0.  1.
         -5    1    3    3    0  502  0.13009103047E+03  0.67560459550E+01  0.22994918611E+03  0.26432562978E+03  0.47000000000E+01 0.  1.
        -11    1    1    2    0    0  0.15377845165E+01  0.23345624016E+02  0.18857835663E+02  0.30049973507E+02  0.00000000000E+00 0.  1.
         11    1    1    2    0    0 -0.10448824526E+03 -0.30256183161E+02  0.23835921504E+03  0.26200829264E+03  0.00000000000E+00 0. -1.
<mgrwt>
<rscale>  0 0.15578833E+03</rscale>
<asrwt>0</asrwt>
<pdfrwt beam="1">  1        2 0.84675396E-01 0.16208121E+03</pdfrwt>
<pdfrwt beam="2">  1       -2 0.63442387E-02 0.16208121E+03</pdfrwt>
<totfact> 0.73386393E+03</totfact>
</mgrwt>
</event>
<event>
 7    1  0.5928109E-006  0.1406058E+03  0.7546771E-02  0.1223312E+00
          1   -1    0    0  501    0  0.00000000000E+00  0.00000000000E+00  0.30420894133E+03  0.30420894133E+03  0.00000000000E+00 0. -1.
         -1   -1    0    0    0  501 -0.00000000000E+00 -0.00000000000E+00 -0.53267922219E+02  0.53267922219E+02  0.00000000000E+00 0.  1.
         23    2    1    2    0    0  0.53498551019E+02 -0.35785516187E+02  0.11729372851E+03  0.18310597210E+03  0.12500912024E+03 0.  0.
          5    1    3    3  502    0  0.54488193055E+02 -0.70422948538E+02  0.38928676817E+02  0.97292788746E+02  0.47000000000E+01 0. -1.
         -5    1    3    3    0  502 -0.98964203598E+00  0.34637432352E+02  0.78365051693E+02  0.85813183358E+02  0.47000000000E+01 0. -1.
        -11    1    1    2    0    0 -0.29273033583E+02  0.11643550340E+02 -0.47058005546E+01  0.31853215199E+02  0.00000000000E+00 0.  1.
         11    1    1    2    0    0 -0.24225517436E+02  0.24141965847E+02  0.13835309115E+03  0.14251767624E+03  0.00000000000E+00 0. -1.
<mgrwt>
<rscale>  0 0.13283274E+03</rscale>
<asrwt>0</asrwt>
<pdfrwt beam="1">  1        1 0.46801375E-01 0.14060575E+03</pdfrwt>
<pdfrwt beam="2">  1       -1 0.81950651E-02 0.14060575E+03</pdfrwt>
<totfact> 0.68218546E+03</totfact>
</mgrwt>
</event>
<event>
 7    1  0.5928109E-006  0.1793891E+03  0.7546771E-02  0.1173972E+00
          1   -1    0    0  501    0  0.00000000000E+00  0.00000000000E+00  0.83327435627E+03  0.83327435627E+03  0.00000000000E+00 0. -1.
         -1   -1    0    0    0  501 -0.00000000000E+00 -0.00000000000E+00 -0.34149054482E+02  0.34149054482E+02  0.00000000000E+00 0.  1.
         23    2    1    2    0    0  0.30358139971E+02 -0.12503772279E+03  0.41854938415E+03  0.45537241629E+03  0.12499760701E+03 0.  0.
          5    1    3    3  502    0  0.48552197843E+02 -0.16531350635E+02  0.54301321936E+02  0.74842000462E+02  0.47000000000E+01 0.  1.
         -5    1    3    3    0  502 -0.18194057872E+02 -0.10850637215E+03  0.36424806222E+03  0.38053041583E+03  0.47000000000E+01 0.  1.
        -11    1    1    2    0    0 -0.52651000476E+02  0.56497293627E+02  0.26335396406E+03  0.27444376915E+03  0.00000000000E+00 0.  1.
         11    1    1    2    0    0  0.22292860505E+02  0.68540429161E+02  0.11722195357E+03  0.13760722531E+03  0.00000000000E+00 0. -1.
<mgrwt>
<rscale>  0 0.17377068E+03</rscale>
<asrwt>0</asrwt>
<pdfrwt beam="1">  1        1 0.12819604E+00 0.17938910E+03</pdfrwt>
<pdfrwt beam="2">  1       -1 0.52537013E-02 0.17938910E+03</pdfrwt>
<totfact> 0.34870401E+03</totfact>
</mgrwt>
</event>
<event>
 7    1  0.5928109E-006  0.1429040E+03  0.7546771E-02  0.1220086E+00
         -3   -1    0    0    0  501 -0.00000000000E+00  0.00000000000E+00  0.41216889025E+03  0.41216889025E+03  0.00000000000E+00 0.  1.
          3   -1    0    0  501    0  0.00000000000E+00 -0.00000000000E+00 -0.40113493453E+02  0.40113493453E+02  0.00000000000E+00 0. -1.
         23    2    1    2    0    0  0.29781584922E+01  0.69219245639E+02  0.19981578394E+03  0.24565809260E+03  0.12498550938E+03 0.  0.
          5    1    3    3  502    0 -0.17850738301E+02 -0.55223965828E+01 -0.10141498659E+02  0.21773509523E+02  0.47000000000E+01 0. -1.
         -5    1    3    3    0  502  0.20828896793E+02  0.74741642222E+02  0.20995728260E+03  0.22388458308E+03  0.47000000000E+01 0. -1.
        -11    1    1    2    0    0  0.71911637208E+01 -0.12896310443E+02 -0.85011651942E+01  0.17038118099E+02  0.00000000000E+00 0. -1.
         11    1    1    2    0    0 -0.10169322213E+02 -0.56322935197E+02  0.18074077805E+03  0.18958617301E+03  0.00000000000E+00 0.  1.
<mgrwt>
<rscale>  0 0.13509501E+03</rscale>
<asrwt>0</asrwt>
<pdfrwt beam="2">  1        3 0.61713070E-02 0.14290399E+03</pdfrwt>
<pdfrwt beam="1">  1       -3 0.63410596E-01 0.14290399E+03</pdfrwt>
<totfact> 0.92829486E+02</totfact>
</mgrwt>
</event>
<event>
 7    1  0.5928109E-006  0.1164465E+03  0.7546771E-02  0.1259928E+00
         -2   -1    0    0    0  501 -0.00000000000E+00  0.00000000000E+00  0.10074721983E+03  0.10074721983E+03  0.00000000000E+00 0.  1.
          2   -1    0    0  501    0  0.00000000000E+00 -0.00000000000E+00 -0.20014933895E+03  0.20014933895E+03  0.00000000000E+00 0. -1.
         23    2    1    2    0    0 -0.10767536655E+02 -0.16016120677E+02 -0.15338889085E+03  0.19258229480E+03  0.11483611133E+03 0.  0.
          5    1    3    3  502    0  0.12460718583E+00 -0.60678790005E+02 -0.48014598869E+02  0.77520466897E+02  0.47000000000E+01 0. -1.
         -5    1    3    3    0  502 -0.10892143841E+02  0.44662669328E+02 -0.10537429198E+03  0.11506182790E+03  0.47000000000E+01 0.  1.
        -11    1    1    2    0    0 -0.33619836273E+02 -0.10266062984E+02  0.43057328198E+02  0.55584340886E+02  0.00000000000E+00 0.  1.
         11    1    1    2    0    0  0.44387372928E+02  0.26282183661E+02  0.10929443544E+02  0.52729923095E+02  0.00000000000E+00 0. -1.
<mgrwt>
<rscale>  0 0.11034749E+03</rscale>
<asrwt>0</asrwt>
<pdfrwt beam="2">  1        2 0.30792206E-01 0.11644650E+03</pdfrwt>
<pdfrwt beam="1">  1       -2 0.15499572E-01 0.11644650E+03</pdfrwt>
<totfact> 0.52221067E+03</totfact>
</mgrwt>
</event>
<event>
 7    1  0.5928109E-006  0.1326192E+03  0.7546771E-02  0.1236556E+00
          2   -1    0    0  501    0  0.00000000000E+00  0.00000000000E+00  0.81136709600E+03  0.81136709600E+03  0.00000000000E+00 0.  1.
         -2   -1    0    0    0  501 -0.00000000000E+00 -0.00000000000E+00 -0.16932561118E+02  0.16932561118E+02  0.00000000000E+00 0. -1.
         23    2    1    2    0    0 -0.38809557775E+02  0.21394814006E+02  0.46950654728E+03  0.48787729102E+03  0.12499573316E+03 0.  0.
          5    1    3    3  502    0 -0.60905653140E+02  0.61412752100E+02  0.31274623956E+03  0.32452014585E+03  0.47000000000E+01 0. -1.
         -5    1    3    3    0  502  0.22096095364E+02 -0.40017938093E+02  0.15676030772E+03  0.16335714517E+03  0.47000000000E+01 0. -1.
        -11    1    1    2    0    0  0.28412994295E+02 -0.53949850641E+02  0.14534913612E+03  0.15762060779E+03  0.00000000000E+00 0. -1.
         11    1    1    2    0    0  0.10396563480E+02  0.32555036635E+02  0.17957885148E+03  0.18280175831E+03  0.00000000000E+00 0.  1.
<mgrwt>
<rscale>  0 0.12405317E+03</rscale>
<asrwt>0</asrwt>
<pdfrwt beam="1">  1        2 0.12482568E+00 0.13261920E+03</pdfrwt>
<pdfrwt beam="2">  1       -2 0.26050100E-02 0.13261920E+03</pdfrwt>
<totfact> 0.17294245E+04</totfact>
</mgrwt>
</event>
<event>
 6    1  0.5928109E-006  0.1343830E+03  0.7546771E-02  0.1236883E+00
          2   -1    0    0  501    0  0.00000000000E+00  0.00000000000E+00  0.63533953053E+03  0.63533953053E+03  0.00000000000E+00 0. -1.
         -2   -1    0    0    0  501 -0.00000000000E+00 -0.00000000000E+00 -0.38876578073E+02  0.38876578073E+02  0.00000000000E+00 0.  1.
          5    1    1    2  502    0 -0.41146534005E+02  0.11476423669E+02  0.39534742807E+03  0.39767628097E+03  0.47000000000E+01 0. -1.
         -5    1    1    2    0  502  0.50267075605E+02 -0.44099091623E+02  0.15564056090E+03  0.16946263001E+03  0.47000000000E+01 0.  1.
        -11    1    1    2    0    0 -0.33507795183E+02 -0.19909680999E+02  0.19939261573E+02  0.43780610863E+02  0.00000000000E+00 0. -1.
         11    1    1    2    0    0  0.24387253583E+02  0.52532348953E+02  0.25535701911E+02  0.63296586764E+02  0.00000000000E+00 0.  1.
<mgrwt>
<rscale>  0 0.12384686E+03</rscale>
<asrwt>0</asrwt>
<pdfrwt beam="1">  1        2 0.97744536E-01 0.13438296E+03</pdfrwt>
<pdfrwt beam="2">  1       -2 0.59810125E-02 0.13438296E+03</pdfrwt>
<totfact> 0.67470959E+03</totfact>
</mgrwt>
</event>
<event>
 7    1  0.5928109E-006  0.1295424E+03  0.7546771E-02  0.1243576E+00
          1   -1    0    0  501    0  0.00000000000E+00  0.00000000000E+00  0.15774978082E+03  0.15774978082E+03  0.00000000000E+00 0.  1.
         -1   -1    0    0    0  501 -0.00000000000E+00 -0.00000000000E+00 -0.10971723478E+03  0.10971723478E+03  0.00000000000E+00 0. -1.
         23    2    1    2    0    0  0.33910033541E+02 -0.25536255545E+01  0.96267313715E+02  0.16139587367E+03  0.12499928387E+03 0.  0.
          5    1    3    3  502    0  0.45816339740E+02  0.53308196825E+02  0.39669672162E+02  0.80849698362E+02  0.47000000000E+01 0.  1.
         -5    1    3    3    0  502 -0.11906306199E+02 -0.55861822379E+02  0.56597641552E+02  0.80546175304E+02  0.47000000000E+01 0.  1.
        -11    1    1    2    0    0 -0.84282551080E+01  0.36079753636E+02 -0.51936419338E+02  0.63797929122E+02  0.00000000000E+00 0. -1.
         11    1    1    2    0    0 -0.25481778433E+02 -0.33526128081E+02  0.37016516678E+01  0.42273212810E+02  0.00000000000E+00 0.  1.
<mgrwt>
<rscale>  0 0.11971040E+03</rscale>
<asrwt>0</asrwt>
<pdfrwt beam="1">  1        1 0.24269197E-01 0.12954240E+03</pdfrwt>
<pdfrwt beam="2">  1       -1 0.16879575E-01 0.12954240E+03</pdfrwt>
<totfact> 0.50324820E+03</totfact>
</mgrwt>
</event>
<event>
 7    1  0.5928109E-006  0.1508597E+03  0.7546771E-02  0.1210050E+00
          2   -1    0    0  501    0  0.00000000000E+00  0.00000000000E+00  0.13174852242E+04  0.13174852242E+04  0.00000000000E+00 0. -1.
         -2   -1    0    0    0  501 -0.00000000000E+00 -0.00000000000E+00 -0.15223583874E+02  0.15223583874E+02  0.00000000000E+00 0.  1.
         23    2    1    2    0    0  0.74549186732E+02  0.39702776891E+02  0.91287408577E+03  0.92525549906E+03  0.12499900128E+03 0.  0.
          5    1    3    3  502    0  0.81221724153E+02 -0.10650305071E+01  0.81316198577E+03  0.81722249594E+03  0.47000000000E+01 0.  1.
         -5    1    3    3    0  502 -0.66725374209E+01  0.40767807399E+02  0.99712100005E+02  0.10803300312E+03  0.47000000000E+01 0.  1.
        -11    1    1    2    0    0 -0.67974414804E+02  0.99864164200E+01  0.25241618064E+03  0.26159926955E+03  0.00000000000E+00 0. -1.
         11    1    1    2    0    0 -0.65747719284E+01 -0.49689193312E+02  0.13697137394E+03  0.14585403949E+03  0.00000000000E+00 0.  1.
<mgrwt>
<rscale>  0 0.14246505E+03</rscale>
<asrwt>0</asrwt>
<pdfrwt beam="1">  1        2 0.20268994E+00 0.15085968E+03</pdfrwt>
<pdfrwt beam="2">  1       -2 0.23420909E-02 0.15085968E+03</pdfrwt>
<totfact> 0.10250310E+04</totfact>
</mgrwt>
</event>
<event>
 7    1  0.5928109E-006  0.1635161E+03  0.7546771E-02  0.1191640E+00
          1   -1    0    0  501    0  0.00000000000E+00  0.00000000000E+00  0.92778657839E+02  0.92778657839E+02  0.00000000000E+00 0. -1.
         -1   -1    0    0    0  501 -0.00000000000E+00 -0.00000000000E+00 -0.26405886651E+03  0.26405886651E+03  0.00000000000E+00 0.  1.
         23    2    1    2    0    0  0.62228181131E+02 -0.85088862129E+02 -0.49256304165E+02  0.17077385177E+03  0.12500025585E+03 0.  0.
          5    1    3    3  502    0 -0.73801594879E+01 -0.92501882270E+02 -0.34257706221E+02  0.99029012986E+02  0.47000000000E+01 0.  1.
         -5    1    3    3    0  502  0.69608340619E+02  0.74130201405E+01 -0.14998597944E+02  0.71744838780E+02  0.47000000000E+01 0.  1.
        -11    1    1    2    0    0 -0.69434961083E+02  0.16844908039E+02 -0.69167120777E+02  0.99443729536E+02  0.00000000000E+00 0. -1.
         11    1    1    2    0    0  0.72067799518E+01  0.68243954090E+02 -0.52856783727E+02  0.86619943045E+02  0.00000000000E+00 0.  1.
<mgrwt>
<rscale>  0 0.15742038E+03</rscale>
<asrwt>0</asrwt>
<pdfrwt beam="1">  1        1 0.14273640E-01 0.16351613E+03</pdfrwt>
<pdfrwt beam="2">  1       -1 0.40624440E-01 0.16351613E+03</pdfrwt>
<totfact> 0.23373221E+03</totfact>
</mgrwt>
</event>
<event>
 7    1  0.5928109E-006  0.1258548E+03  0.7546771E-02  0.1248001E+00
          3   -1    0    0  501    0  0.00000000000E+00  0.00000000000E+00  0.62700327369E+02  0.62700327369E+02  0.00000000000E+00 0. -1.
         -3   -1    0    0    0  501 -0.00000000000E+00 -0.00000000000E+00 -0.21304450691E+03  0.21304450691E+03  0.00000000000E+00 0.  1.
         23    2    1    2    0    0 -0.14662010217E+02  0.23699636567E+00 -0.43229210577E+02  0.13307214788E+03  0.12499760471E+03 0.  0.
          5    1    3    3  502    0  0.53199529055E+01  0.12135314819E+01 -0.85641273552E+02  0.85943541312E+02  0.47000000000E+01 0. -1.
         -5    1    3    3    0  502 -0.19981963122E+02 -0.97653511625E+00  0.42412062975E+02  0.47128606566E+02  0.47000000000E+01 0. -1.
        -11    1    1    2    0    0  0.24022536489E+02 -0.32351792270E+02 -0.10090057426E+03  0.10864919055E+03  0.00000000000E+00 0.  1.
         11    1    1    2    0    0 -0.93605262722E+01  0.32114795905E+02 -0.62143947066E+01  0.34023495847E+02  0.00000000000E+00 0. -1.
<mgrwt>
<rscale>  0 0.11707535E+03</rscale>
<asrwt>0</asrwt>
<pdfrwt beam="1">  1        3 0.96462042E-02 0.12585480E+03</pdfrwt>
<pdfrwt beam="2">  1       -3 0.32776078E-01 0.12585480E+03</pdfrwt>
<totfact> 0.16147811E+03</totfact>
</mgrwt>
</event>
<event>
 7    1  0.5928109E-006  0.1201206E+03  0.7546771E-02  0.1256195E+00
          2   -1    0    0  501    0  0.00000000000E+00  0.00000000000E+00  0.12567574444E+04  0.12567574444E+04  0.00000000000E+00 0. -1.
         -2   -1    0    0    0  501 -0.00000000000E+00 -0.00000000000E+00 -0.59598460129E+02  0.59598460129E+02  0.00000000000E+00 0.  1.
         23    2    1    2    0    0  0.14139461996E+02  0.32975992348E+01  0.12163759985E+04  0.12222927319E+04  0.11923990200E+03 0.  0.
          5    1    3    3  502    0  0.54071554602E+02 -0.85207879024E+01  0.10207793497E+04  0.10222567718E+04  0.47000000000E+01 0. -1.
         -5    1    3    3    0  502 -0.39932092606E+02  0.11818387137E+02  0.19559664881E+03  0.20003596007E+03  0.47000000000E+01 0.  1.
        -11    1    1    2    0    0  0.64216692772E+00  0.38297652068E+02 -0.29963132299E+02  0.48630359133E+02  0.00000000000E+00 0.  1.
         11    1    1    2    0    0 -0.14781628924E+02 -0.41595251302E+02  0.10746118038E+02  0.45432813444E+02  0.00000000000E+00 0. -1.
<mgrwt>
<rscale>  0 0.11239668E+03</rscale>
<asrwt>0</asrwt>
<pdfrwt beam="1">  1        2 0.19334728E+00 0.12012058E+03</pdfrwt>
<pdfrwt beam="2">  1       -2 0.91689948E-02 0.12012058E+03</pdfrwt>
<totfact> 0.14197629E+03</totfact>
</mgrwt>
</event>
<event>
 6    1  0.5928109E-006  0.1964681E+03  0.7546771E-02  0.1164217E+00
          2   -1    0    0  501    0  0.00000000000E+00  0.00000000000E+00  0.12773291180E+04  0.12773291180E+04  0.00000000000E+00 0. -1.
         -2   -1    0    0    0  501 -0.00000000000E+00 -0.00000000000E+00 -0.24176285348E+02  0.24176285348E+02  0.00000000000E+00 0.  1.
          5    1    1    2  502    0 -0.84277272992E+02  0.40973513685E+02  0.62333635957E+03  0.63035846526E+03  0.47000000000E+01 0. -1.
         -5    1    1    2    0  502  0.39587172468E+02  0.69835172051E+02  0.18893202951E+03  0.20533265024E+03  0.47000000000E+01 0.  1.
        -11    1    1    2    0    0  0.66360768473E+02 -0.88118056129E+02  0.39581131492E+03  0.41089553469E+03  0.00000000000E+00 0.  1.
         11    1    1    2    0    0 -0.21670667949E+02 -0.22690629607E+02  0.45073128627E+02  0.54918753131E+02  0.00000000000E+00 0. -1.
<mgrwt>
<rscale>  0 0.18375612E+03</rscale>
<asrwt>0</asrwt>
<pdfrwt beam="1">  1        2 0.19651212E+00 0.19646808E+03</pdfrwt>
<pdfrwt beam="2">  1       -2 0.37194295E-02 0.19646808E+03</pdfrwt>
<totfact> 0.54932519E+03</totfact>
</mgrwt>
</event>
<event>
 7    1  0.5928109E-006  0.1672889E+03  0.7546771E-02  0.1187658E+00
          1   -1    0    0  501    0  0.00000000000E+00  0.00000000000E+00  0.13674168142E+04  0.13674168142E+04  0.00000000000E+00 0. -1.
         -1   -1    0    0    0  501 -0.00000000000E+00 -0.00000000000E+00 -0.26241449034E+02  0.26241449034E+02  0.00000000000E+00 0.  1.
         23    2    1    2    0    0  0.17641871537E+02 -0.10977564772E+03  0.11038411055E+04  0.11164455942E+04  0.12499460045E+03 0.  0.
          5    1    3    3  502    0 -0.10454514594E+01  0.44754790432E+01  0.57600154975E+03  0.57603905961E+03  0.47000000000E+01 0.  1.
         -5    1    3    3    0  502  0.18687322997E+02 -0.11425112677E+03  0.52783955572E+03  0.54040653456E+03  0.47000000000E+01 0.  1.
        -11    1    1    2    0    0 -0.50719860669E+01  0.12016219024E+03  0.17202260408E+03  0.20989629182E+03  0.00000000000E+00 0.  1.
         11    1    1    2    0    0 -0.12569885470E+02 -0.10386542521E+02  0.65311655637E+02  0.67316377266E+02  0.00000000000E+00 0. -1.
<mgrwt>
<rscale>  0 0.16092396E+03</rscale>
<asrwt>0</asrwt>
<pdfrwt beam="1">  1        1 0.21037176E+00 0.16728891E+03</pdfrwt>
<pdfrwt beam="2">  1       -1 0.40371471E-02 0.16728891E+03</pdfrwt>
<totfact> 0.21256036E+03</totfact>
</mgrwt>
</event>
<event>
 7    1  0.5928109E-006  0.1726333E+03  0.7546771E-02  0.1181492E+00
         -2   -1    0    0    0  501 -0.00000000000E+00  0.00000000000E+00  0.10324561242E+03  0.10324561242E+03  0.00000000000E+00 0. -1.
          2   -1    0    0  501    0  0.00000000000E+00 -0.00000000000E+00 -0.25486523679E+03  0.25486523679E+03  0.00000000000E+00 0.  1.
         23    2    1    2    0    0  0.74996218593E+02  0.92485790161E+02 -0.10208247424E+03  0.20055695207E+03  0.12499682113E+03 0.  0.
          5    1    3    3  502    0  0.26709026478E+01 -0.19727207710E+01  0.25446416146E+02  0.26088990836E+02  0.47000000000E+01 0.  1.
         -5    1    3    3    0  502  0.72325315945E+02  0.94458510932E+02 -0.12752889038E+03  0.17446796123E+03  0.47000000000E+01 0.  1.
        -11    1    1    2    0    0 -0.57791835738E+02 -0.85841509191E+02  0.12831333059E+01  0.10349061508E+03  0.00000000000E+00 0. -1.
         11    1    1    2    0    0 -0.17204382855E+02 -0.66442809701E+01 -0.50820283436E+02  0.54063282065E+02  0.00000000000E+00 0.  1.
<mgrwt>
<rscale>  0 0.16655206E+03</rscale>
<asrwt>0</asrwt>
<pdfrwt beam="2">  1        2 0.39210036E-01 0.17263331E+03</pdfrwt>
<pdfrwt beam="1">  1       -2 0.15883941E-01 0.17263331E+03</pdfrwt>
<totfact> 0.39575487E+03</totfact>
</mgrwt>
</event>
<event>
 7    1  0.6641347E-006  0.1817457E+03  0.7546771E-02  0.1171713E+00
          1   -1    0    0  501    0  0.00000000000E+00  0.00000000000E+00  0.19246111072E+03  0.19246111072E+03  0.00000000000E+00 0. -1.
         -1   -1    0    0    0  501 -0.00000000000E+00 -0.00000000000E+00 -0.15226637717E+03  0.15226637717E+03  0.00000000000E+00 0.  1.
         23    2    1    2    0    0  0.93108058222E+02 -0.93474335171E+02  0.32634219796E+02  0.18465240198E+03  0.12499982166E+03 0.  0.
          5    1    3    3  502    0  0.31589373852E+02 -0.56015859270E+02 -0.45013722955E+02  0.78638351231E+02  0.47000000000E+01 0. -1.
         -5    1    3    3    0  502  0.61518684370E+02 -0.37458475901E+02  0.77647942751E+02  0.10601405075E+03  0.47000000000E+01 0. -1.
        -11    1    1    2    0    0  0.11519628787E+02  0.99493192385E+01  0.20544318923E+02  0.25568727788E+02  0.00000000000E+00 0. -1.
         11    1    1    2    0    0 -0.10462768701E+03  0.83525015933E+02 -0.12983805168E+02  0.13450635811E+03  0.00000000000E+00 0.  1.
<mgrwt>
<rscale>  0 0.17601833E+03</rscale>
<asrwt>0</asrwt>
<pdfrwt beam="1">  1        1 0.29609402E-01 0.18174575E+03</pdfrwt>
<pdfrwt beam="2">  1       -1 0.23425596E-01 0.18174575E+03</pdfrwt>
<totfact> 0.23517764E+03</totfact>
</mgrwt>
</event>
<event>
 7    1  0.5928109E-006  0.1587087E+03  0.7546771E-02  0.1198772E+00
         -2   -1    0    0    0  501 -0.00000000000E+00  0.00000000000E+00  0.12630886184E+03  0.12630886184E+03  0.00000000000E+00 0.  1.
          2   -1    0    0  501    0  0.00000000000E+00 -0.00000000000E+00 -0.21542552055E+03  0.21542552055E+03  0.00000000000E+00 0. -1.
         23    2    1    2    0    0  0.15538655913E+02 -0.96533878560E+02 -0.12887734693E+03  0.20444519054E+03  0.12501290271E+03 0.  0.
          5    1    3    3  502    0  0.55938313076E+01 -0.12559171622E+03 -0.11489212448E+03  0.17037271025E+03  0.47000000000E+01 0.  1.
         -5    1    3    3    0  502  0.99448246054E+01  0.29057837658E+02 -0.13985222445E+02  0.34072480283E+02  0.47000000000E+01 0.  1.
        -11    1    1    2    0    0 -0.24750649853E+02  0.43484300251E+02  0.61447911809E+02  0.79242191427E+02  0.00000000000E+00 0.  1.
         11    1    1    2    0    0  0.92119939399E+01  0.53049578309E+02 -0.21687223596E+02  0.58047000425E+02  0.00000000000E+00 0. -1.
<mgrwt>
<rscale>  0 0.15139239E+03</rscale>
<asrwt>0</asrwt>
<pdfrwt beam="2">  1        2 0.33142388E-01 0.15870874E+03</pdfrwt>
<pdfrwt beam="1">  1       -2 0.19432133E-01 0.15870874E+03</pdfrwt>
<totfact> 0.33718604E+03</totfact>
</mgrwt>
</event>
<event>
 7    1  0.5928109E-006  0.1382482E+03  0.7546771E-02  0.1227767E+00
          4   -1    0    0  501    0  0.00000000000E+00  0.00000000000E+00  0.52276913785E+02  0.52276913785E+02  0.00000000000E+00 0.  1.
         -4   -1    0    0    0  501 -0.00000000000E+00 -0.00000000000E+00 -0.56680504808E+03  0.56680504808E+03  0.00000000000E+00 0. -1.
         23    2    1    2    0    0 -0.48822253029E+02  0.33209350763E+02 -0.57710976510E+02  0.14981026446E+03  0.12500434056E+03 0.  0.
          5    1    3    3  502    0 -0.83939211570E+02  0.14140388208E+02 -0.67103330724E+02  0.10849280535E+03  0.47000000000E+01 0. -1.
         -5    1    3    3    0  502  0.35116958542E+02  0.19068962555E+02  0.93923542141E+01  0.41317459116E+02  0.47000000000E+01 0. -1.
        -11    1    1    2    0    0  0.21329233966E+02 -0.63019717941E+02 -0.26614551242E+03  0.27433529640E+03  0.00000000000E+00 0. -1.
         11    1    1    2    0    0  0.27493019063E+02  0.29810367178E+02 -0.19067164536E+03  0.19493640100E+03  0.00000000000E+00 0.  1.
<mgrwt>
<rscale>  0 0.12979026E+03</rscale>
<asrwt>0</asrwt>
<pdfrwt beam="1">  1        4 0.80426019E-02 0.13824818E+03</pdfrwt>
<pdfrwt beam="2">  1       -4 0.87200779E-01 0.13824818E+03</pdfrwt>
<totfact> 0.21479388E+02</totfact>
</mgrwt>
</event>
<event>
 7    1  0.5928109E-006  0.1250922E+03  0.7546771E-02  0.1251666E+00
          1   -1    0    0  501    0  0.00000000000E+00  0.00000000000E+00  0.10025144681E+03  0.10025144681E+03  0.00000000000E+00 0. -1.
         -1   -1    0    0    0  501 -0.00000000000E+00 -0.00000000000E+00 -0.16970421362E+03  0.16970421362E+03  0.00000000000E+00 0.  1.
         23    2    1    2    0    0 -0.41658343811E+01  0.25826614753E+01  0.37590195299E+02  0.13061806371E+03  0.12499612581E+03 0.  0.
          5    1    3    3  502    0 -0.28692059139E+01  0.19503798595E+01 -0.46258224137E+02  0.46625632698E+02  0.47000000000E+01 0.  1.
         -5    1    3    3    0  502 -0.12966284671E+01  0.63228161575E+00  0.83848419436E+02  0.83992431012E+02  0.47000000000E+01 0.  1.
        -11    1    1    2    0    0 -0.20983782008E+02  0.15695703554E+02 -0.10495556941E+03  0.10817738104E+03  0.00000000000E+00 0.  1.
         11    1    1    2    0    0  0.25149616389E+02 -0.18278365029E+02 -0.20873926986E+01  0.31160215676E+02  0.00000000000E+00 0. -1.
<mgrwt>
<rscale>  0 0.11495153E+03</rscale>
<asrwt>0</asrwt>
<pdfrwt beam="1">  1        1 0.15423300E-01 0.12509219E+03</pdfrwt>
<pdfrwt beam="2">  1       -1 0.26108340E-01 0.12509219E+03</pdfrwt>
<totfact> 0.44253097E+03</totfact>
</mgrwt>
</event>
<event>
 7    1  0.5928109E-006  0.1345939E+03  0.7546771E-02  0.1233170E+00
         -1   -1    0    0    0  501 -0.00000000000E+00  0.00000000000E+00  0.13445405429E+03  0.13445405429E+03  0.00000000000E+00 0.  1.
          1   -1    0    0  501    0  0.00000000000E+00 -0.00000000000E+00 -0.10687877624E+03  0.10687877624E+03  0.00000000000E+00 0. -1.
         23    2    1    2    0    0  0.17742586105E+02  0.46641163908E+02  0.26725326035E+02  0.13722153259E+03  0.12500123368E+03 0.  0.
          5    1    3    3  502    0  0.49057180785E+02  0.35604513617E+02  0.63185158976E+02  0.87685475943E+02  0.47000000000E+01 0.  1.
         -5    1    3    3    0  502 -0.31314594680E+02  0.11036650291E+02 -0.36459832941E+02  0.49536056643E+02  0.47000000000E+01 0.  1.
        -11    1    1    2    0    0 -0.24158683378E+02 -0.34876659129E+02 -0.41707462994E+02  0.59493998050E+02  0.00000000000E+00 0. -1.
         11    1    1    2    0    0  0.64160972734E+01 -0.11764504779E+02  0.42557415018E+02  0.44617299895E+02  0.00000000000E+00 0.  1.
<mgrwt>
<rscale>  0 0.12622337E+03</rscale>
<asrwt>0</asrwt>
<pdfrwt beam="2">  1        1 0.16442889E-01 0.13459386E+03</pdfrwt>
<pdfrwt beam="1">  1       -1 0.20685239E-01 0.13459386E+03</pdfrwt>
<totfact> 0.59825174E+03</totfact>
</mgrwt>
</event>
<event>
 7    1  0.5928109E-006  0.3367878E+03  0.7546771E-02  0.1069386E+00
         -2   -1    0    0    0  501 -0.00000000000E+00  0.00000000000E+00  0.21697534691E+03  0.21697534691E+03  0.00000000000E+00 0.  1.
          2   -1    0    0  501    0  0.00000000000E+00 -0.00000000000E+00 -0.50652760132E+03  0.50652760132E+03  0.00000000000E+00 0. -1.
         23    2    1    2    0    0 -0.18097968026E+03 -0.25503763288E+03 -0.13289429561E+03  0.36205926012E+03  0.12501270008E+03 0.  0.
          5    1    3    3  502    0 -0.10368805760E+03 -0.19635723943E+03 -0.36287818364E+02  0.22504727176E+03  0.47000000000E+01 0. -1.
         -5    1    3    3    0  502 -0.77291622657E+02 -0.58680393454E+02 -0.96606477249E+02  0.13701198836E+03  0.47000000000E+01 0. -1.
        -11    1    1    2    0    0  0.14542063156E+03  0.12803575618E+03 -0.89021652055E+02  0.21322563044E+03  0.00000000000E+00 0.  1.
         11    1    1    2    0    0  0.35559048696E+02  0.12700187670E+03 -0.67636306735E+02  0.14821805766E+03  0.00000000000E+00 0. -1.
<mgrwt>
<rscale>  0 0.33398855E+03</rscale>
<asrwt>0</asrwt>
<pdfrwt beam="2">  1        2 0.77927323E-01 0.33678779E+03</pdfrwt>
<pdfrwt beam="1">  1       -2 0.33380823E-01 0.33678779E+03</pdfrwt>
<totfact> 0.51654516E+02</totfact>
</mgrwt>
</event>
<event>
 7    1  0.5928109E-006  0.1279506E+03  0.7546771E-02  0.1245996E+00
          1   -1    0    0  501    0  0.00000000000E+00  0.00000000000E+00  0.20927504082E+03  0.20927504082E+03  0.00000000000E+00 0. -1.
         -1   -1    0    0    0  501 -0.00000000000E+00 -0.00000000000E+00 -0.58952583618E+02  0.58952583618E+02  0.00000000000E+00 0.  1.
         23    2    1    2    0    0  0.29137315762E+01  0.27171350498E+02  0.98211290161E+02  0.16129728771E+03  0.12499834154E+03 0.  0.
          5    1    3    3  502    0 -0.26417491259E+02  0.57072646192E+02  0.10098261060E+03  0.11905775251E+03  0.47000000000E+01 0. -1.
         -5    1    3    3    0  502  0.29331222836E+02 -0.29901295694E+02 -0.27713204407E+01  0.42239535204E+02  0.47000000000E+01 0. -1.
        -11    1    1    2    0    0 -0.33298264544E+02  0.62890262885E+01 -0.48322761240E+01  0.34229770169E+02  0.00000000000E+00 0.  1.
         11    1    1    2    0    0  0.30384532968E+02 -0.33460376787E+02  0.56943443163E+02  0.72700566557E+02  0.00000000000E+00 0. -1.
<mgrwt>
<rscale>  0 0.11825980E+03</rscale>
<asrwt>0</asrwt>
<pdfrwt beam="1">  1        1 0.32196160E-01 0.12795061E+03</pdfrwt>
<pdfrwt beam="2">  1       -1 0.90696284E-02 0.12795061E+03</pdfrwt>
<totfact> 0.92315657E+03</totfact>
</mgrwt>
</event>
<event>
 7    1  0.5928109E-006  0.1449728E+03  0.7546771E-02  0.1217434E+00
         -1   -1    0    0    0  501 -0.00000000000E+00  0.00000000000E+00  0.12558224881E+02  0.12558224881E+02  0.00000000000E+00 0.  1.
          1   -1    0    0  501    0  0.00000000000E+00 -0.00000000000E+00 -0.16621894731E+04  0.16621894731E+04  0.00000000000E+00 0. -1.
         23    2    1    2    0    0  0.45348389863E+02 -0.55783998305E+02 -0.12605357369E+04  0.12688449357E+04  0.12589200036E+03 0.  0.
          5    1    3    3  502    0  0.44801408413E+02 -0.64496676022E+02 -0.12550511844E+04  0.12575144344E+04  0.47000000000E+01 0. -1.
         -5    1    3    3    0  502  0.54698144978E+00  0.87126777169E+01 -0.54845525836E+01  0.11330501258E+02  0.47000000000E+01 0.  1.
        -11    1    1    2    0    0  0.72412950267E+00 -0.21968020285E+02 -0.12109466551E+03  0.12307329643E+03  0.00000000000E+00 0. -1.
         11    1    1    2    0    0 -0.46072519365E+02  0.77752018590E+02 -0.26800084574E+03  0.28282946585E+03  0.00000000000E+00 0.  1.
<mgrwt>
<rscale>  0 0.13699284E+03</rscale>
<asrwt>0</asrwt>
<pdfrwt beam="2">  1        1 0.25572160E+00 0.14497285E+03</pdfrwt>
<pdfrwt beam="1">  1       -1 0.19320335E-02 0.14497285E+03</pdfrwt>
<totfact> 0.39962760E+03</totfact>
</mgrwt>
</event>
<event>
 7    1  0.5928109E-006  0.1434047E+03  0.7546771E-02  0.1219994E+00
         -2   -1    0    0    0  501 -0.00000000000E+00  0.00000000000E+00  0.63555170161E+02  0.63555170161E+02  0.00000000000E+00 0.  1.
          2   -1    0    0  501    0  0.00000000000E+00 -0.00000000000E+00 -0.62579215291E+03  0.62579215291E+03  0.00000000000E+00 0. -1.
         23    2    1    2    0    0 -0.69833330039E+02  0.81227324608E+01 -0.55797104444E+03  0.57610467287E+03  0.12498893914E+03 0.  0.
          5    1    3    3  502    0  0.88536574438E-01 -0.24554878619E+02 -0.39425482348E+03  0.39504671336E+03  0.47000000000E+01 0. -1.
         -5    1    3    3    0  502 -0.69921866613E+02  0.32677611080E+02 -0.16371622096E+03  0.18105795951E+03  0.47000000000E+01 0. -1.
        -11    1    1    2    0    0 -0.14219968045E+02 -0.22608830781E+02  0.58810293912E+01  0.27348733557E+02  0.00000000000E+00 0.  1.
         11    1    1    2    0    0  0.84053298084E+02  0.14486098320E+02 -0.10146967708E+02  0.85893916647E+02  0.00000000000E+00 0. -1.
<mgrwt>
<rscale>  0 0.13515993E+03</rscale>
<asrwt>0</asrwt>
<pdfrwt beam="2">  1        2 0.96275715E-01 0.14340470E+03</pdfrwt>
<pdfrwt beam="1">  1       -2 0.97777186E-02 0.14340470E+03</pdfrwt>
<totfact> 0.32282641E+03</totfact>
</mgrwt>
</event>
<event>
 7    1  0.5928109E-006  0.1486299E+03  0.7546771E-02  0.1211512E+00
         -1   -1    0    0    0  501 -0.00000000000E+00  0.00000000000E+00  0.31301379448E+02  0.31301379448E+02  0.00000000000E+00 0.  1.
          1   -1    0    0  501    0  0.00000000000E+00 -0.00000000000E+00 -0.69305976674E+03  0.69305976674E+03  0.00000000000E+00 0. -1.
         23    2    1    2    0    0 -0.74379367919E+02  0.30745391267E+02 -0.50225094311E+03  0.52378131478E+03  0.12495313685E+03 0.  0.
          5    1    3    3  502    0 -0.59159444103E+02  0.62268769186E+02 -0.17888526278E+03  0.19849248520E+03  0.47000000000E+01 0. -1.
         -5    1    3    3    0  502 -0.15219923816E+02 -0.31523377920E+02 -0.32336568033E+03  0.32528882958E+03  0.47000000000E+01 0. -1.
        -11    1    1    2    0    0  0.17393702462E+02  0.30599801355E+02 -0.29411124678E+02  0.45868322219E+02  0.00000000000E+00 0.  1.
         11    1    1    2    0    0  0.56985665457E+02 -0.61345192622E+02 -0.13009631951E+03  0.15471150919E+03  0.00000000000E+00 0. -1.
<mgrwt>
<rscale>  0 0.14135931E+03</rscale>
<asrwt>0</asrwt>
<pdfrwt beam="2">  1        1 0.10662457E+00 0.14862993E+03</pdfrwt>
<pdfrwt beam="1">  1       -1 0.48155973E-02 0.14862993E+03</pdfrwt>
<totfact> 0.51826063E+03</totfact>
</mgrwt>
</event>
<event>
 7    1  0.5928109E-006  0.1457653E+03  0.7546771E-02  0.1215549E+00
         -3   -1    0    0    0  501 -0.00000000000E+00  0.00000000000E+00  0.12605880220E+03  0.12605880220E+03  0.00000000000E+00 0.  1.
          3   -1    0    0  501    0  0.00000000000E+00 -0.00000000000E+00 -0.13901550999E+03  0.13901550999E+03  0.00000000000E+00 0. -1.
         23    2    1    2    0    0 -0.40125461823E+02 -0.63339636517E+02 -0.16428092534E+02  0.14668807735E+03  0.12500219027E+03 0.  0.
          5    1    3    3  502    0 -0.77563077759E+02 -0.12268796068E+02  0.70641004135E+01  0.78984466214E+02  0.47000000000E+01 0.  1.
         -5    1    3    3    0  502  0.37437615936E+02 -0.51070840449E+02 -0.23492192948E+02  0.67703611134E+02  0.47000000000E+01 0.  1.
        -11    1    1    2    0    0 -0.37641431862E+01 -0.16593981525E+02  0.19411198740E+02  0.25813245307E+02  0.00000000000E+00 0.  1.
         11    1    1    2    0    0  0.43889605009E+02  0.79933618042E+02 -0.15939813991E+02  0.92572989533E+02  0.00000000000E+00 0. -1.
<mgrwt>
<rscale>  0 0.13836273E+03</rscale>
<asrwt>0</asrwt>
<pdfrwt beam="2">  1        3 0.21387002E-01 0.14576526E+03</pdfrwt>
<pdfrwt beam="1">  1       -3 0.19393662E-01 0.14576526E+03</pdfrwt>
<totfact> 0.10996971E+03</totfact>
</mgrwt>
</event>
<event>
 7    1  0.5928109E-006  0.1363897E+03  0.7546771E-02  0.1230731E+00
         -2   -1    0    0    0  501 -0.00000000000E+00  0.00000000000E+00  0.60795193052E+02  0.60795193052E+02  0.00000000000E+00 0.  1.
          2   -1    0    0  501    0  0.00000000000E+00 -0.00000000000E+00 -0.40548787572E+03  0.40548787572E+03  0.00000000000E+00 0. -1.
         23    2    1    2    0    0 -0.82572437443E+01  0.53920467687E+02 -0.33371809280E+03  0.36051342062E+03  0.12500624813E+03 0.  0.
          5    1    3    3  502    0 -0.43196020795E+02  0.25830352783E+01 -0.26173564275E+03  0.26533036948E+03  0.47000000000E+01 0. -1.
         -5    1    3    3    0  502  0.34938777051E+02  0.51337432409E+02 -0.71982450054E+02  0.95183051138E+02  0.47000000000E+01 0. -1.
        -11    1    1    2    0    0 -0.19747201509E+02 -0.70117856591E+02 -0.78998194424E+01  0.73272593291E+02  0.00000000000E+00 0. -1.
         11    1    1    2    0    0  0.28004445253E+02  0.16197388904E+02 -0.30747704179E+01  0.32497054857E+02  0.00000000000E+00 0.  1.
<mgrwt>
<rscale>  0 0.12781709E+03</rscale>
<asrwt>0</asrwt>
<pdfrwt beam="2">  1        2 0.62382749E-01 0.13638974E+03</pdfrwt>
<pdfrwt beam="1">  1       -2 0.93531068E-02 0.13638974E+03</pdfrwt>
<totfact> 0.55747868E+03</totfact>
</mgrwt>
</event>
<event>
 7    1  0.5928109E-006  0.1273540E+03  0.7546771E-02  0.1244868E+00
          2   -1    0    0  501    0  0.00000000000E+00  0.00000000000E+00  0.76471408474E+03  0.76471408474E+03  0.00000000000E+00 0. -1.
         -2   -1    0    0    0  501 -0.00000000000E+00 -0.00000000000E+00 -0.56945548883E+02  0.56945548883E+02  0.00000000000E+00 0.  1.
         23    2    1    2    0    0  0.22066279115E+02  0.23781122488E+02  0.71335402172E+03  0.72463301470E+03  0.12315268257E+03 0.  0.
          5    1    3    3  502    0  0.55338350279E+02  0.29620133189E+02  0.64673915139E+03  0.64979481780E+03  0.47000000000E+01 0. -1.
         -5    1    3    3    0  502 -0.33272071164E+02 -0.58390107009E+01  0.66614870335E+02  0.74838196900E+02  0.47000000000E+01 0.  1.
        -11    1    1    2    0    0  0.35788022183E+02 -0.12510530592E+02 -0.29362566748E+01  0.38025222033E+02  0.00000000000E+00 0. -1.
         11    1    1    2    0    0 -0.57854301298E+02 -0.11270591896E+02 -0.26492291851E+01  0.59001396895E+02  0.00000000000E+00 0.  1.
<mgrwt>
<rscale>  0 0.11893290E+03</rscale>
<asrwt>0</asrwt>
<pdfrwt beam="1">  1        2 0.11764831E+00 0.12735402E+03</pdfrwt>
<pdfrwt beam="2">  1       -2 0.87608542E-02 0.12735402E+03</pdfrwt>
<totfact> 0.30102548E+03</totfact>
</mgrwt>
</event>
<event>
 7    1  0.5928109E-006  0.1359132E+03  0.7546771E-02  0.1236275E+00
          2   -1    0    0  501    0  0.00000000000E+00  0.00000000000E+00  0.42937373328E+03  0.42937373328E+03  0.00000000000E+00 0.  1.
         -2   -1    0    0    0  501 -0.00000000000E+00 -0.00000000000E+00 -0.37352684830E+02  0.37352684830E+02  0.00000000000E+00 0. -1.
         23    2    1    2    0    0  0.19596892619E+02 -0.49629878037E+02  0.31982756428E+03  0.34750837955E+03  0.12500095994E+03 0.  0.
          5    1    3    3  502    0  0.24311953622E+02 -0.64466014796E+02  0.32354050992E+03  0.33082848987E+03  0.47000000000E+01 0. -1.
         -5    1    3    3    0  502 -0.47150610027E+01  0.14836136759E+02 -0.37129456384E+01  0.16679889673E+02  0.47000000000E+01 0. -1.
        -11    1    1    2    0    0 -0.16376840415E+02  0.86749230733E+01  0.75749001980E+02  0.77983116719E+02  0.00000000000E+00 0.  1.
         11    1    1    2    0    0 -0.32200522046E+01  0.40954954964E+02 -0.35555178149E+01  0.41234921841E+02  0.00000000000E+00 0. -1.
<mgrwt>
<rscale>  0 0.12423183E+03</rscale>
<asrwt>0</asrwt>
<pdfrwt beam="1">  1        2 0.66057494E-01 0.13591322E+03</pdfrwt>
<pdfrwt beam="2">  1       -2 0.57465672E-02 0.13591322E+03</pdfrwt>
<totfact> 0.11076616E+04</totfact>
</mgrwt>
</event>
<event>
 7    1  0.5928109E-006  0.1177789E+03  0.7546771E-02  0.1260640E+00
          2   -1    0    0  501    0  0.00000000000E+00  0.00000000000E+00  0.73683105853E+02  0.73683105853E+02  0.00000000000E+00 0. -1.
         -2   -1    0    0    0  501 -0.00000000000E+00 -0.00000000000E+00 -0.16722206689E+03  0.16722206689E+03  0.00000000000E+00 0.  1.
         23    2    1    2    0    0  0.12435721076E+01 -0.16458228495E+02 -0.95316972638E+01  0.11816399520E+03  0.11661670872E+03 0.  0.
          5    1    3    3  502    0  0.62147024953E+01 -0.26893088599E+02  0.50017812833E+02  0.57321307923E+02  0.47000000000E+01 0. -1.
         -5    1    3    3    0  502 -0.49711303877E+01  0.10434860103E+02 -0.59549510096E+02  0.60842687280E+02  0.47000000000E+01 0.  1.
        -11    1    1    2    0    0  0.11191505451E+00 -0.33380108378E+02 -0.12660434615E+02  0.35700570933E+02  0.00000000000E+00 0. -1.
         11    1    1    2    0    0 -0.13554871621E+01  0.49838336874E+02 -0.71346829161E+02  0.87040606611E+02  0.00000000000E+00 0.  1.
<mgrwt>
<rscale>  0 0.10996194E+03</rscale>
<asrwt>0</asrwt>
<pdfrwt beam="1">  1        2 0.11335862E-01 0.11777893E+03</pdfrwt>
<pdfrwt beam="2">  1       -2 0.25726472E-01 0.11777893E+03</pdfrwt>
<totfact> 0.69207779E+03</totfact>
</mgrwt>
</event>
<event>
 7    1  0.5928109E-006  0.1720435E+03  0.7546771E-02  0.1177612E+00
          2   -1    0    0  501    0  0.00000000000E+00  0.00000000000E+00  0.43778601049E+03  0.43778601049E+03  0.00000000000E+00 0.  1.
         -2   -1    0    0    0  501 -0.00000000000E+00 -0.00000000000E+00 -0.89369042149E+02  0.89369042149E+02  0.00000000000E+00 0. -1.
         23    2    1    2    0    0  0.63452715499E+02 -0.86820537121E+02  0.30962399973E+03  0.35079217363E+03  0.12499630034E+03 0.  0.
          5    1    3    3  502    0  0.87292164131E+01 -0.75340677086E+02  0.65564509181E+02  0.10036539098E+03  0.47000000000E+01 0.  1.
         -5    1    3    3    0  502  0.54723499086E+02 -0.11479860035E+02  0.24405949055E+03  0.25042678265E+03  0.47000000000E+01 0.  1.
        -11    1    1    2    0    0 -0.77995081550E+01 -0.27993751361E+02  0.39167686697E+02  0.48770791709E+02  0.00000000000E+00 0.  1.
         11    1    1    2    0    0 -0.55653207344E+02  0.11481428848E+03 -0.37471809005E+00  0.12759208730E+03  0.00000000000E+00 0. -1.
<mgrwt>
<rscale>  0 0.17022610E+03</rscale>
<asrwt>0</asrwt>
<pdfrwt beam="1">  1        2 0.67351693E-01 0.17204351E+03</pdfrwt>
<pdfrwt beam="2">  1       -2 0.13749084E-01 0.17204351E+03</pdfrwt>
<totfact> 0.28071272E+03</totfact>
</mgrwt>
</event>
<event>
 7    1  0.5928109E-006  0.1441700E+03  0.7546771E-02  0.1217928E+00
          1   -1    0    0  501    0  0.00000000000E+00  0.00000000000E+00  0.33332817388E+02  0.33332817388E+02  0.00000000000E+00 0. -1.
         -1   -1    0    0    0  501 -0.00000000000E+00 -0.00000000000E+00 -0.51866345536E+03  0.51866345536E+03  0.00000000000E+00 0.  1.
         23    2    1    2    0    0 -0.43600353285E+02 -0.56998909585E+02 -0.23048971182E+03  0.27186486224E+03  0.12504051169E+03 0.  0.
          5    1    3    3  502    0 -0.39856598511E+02 -0.16480837430E+02 -0.61527987678E+01  0.43819098347E+02  0.47000000000E+01 0. -1.
         -5    1    3    3    0  502 -0.37437547740E+01 -0.40518072155E+02 -0.22433691305E+03  0.22804576389E+03  0.47000000000E+01 0. -1.
        -11    1    1    2    0    0  0.34235107790E+02  0.49627437323E+02 -0.26017839611E+03  0.26707250503E+03  0.00000000000E+00 0.  1.
         11    1    1    2    0    0  0.93652454952E+01  0.73714722624E+01  0.53374699659E+01  0.13058905472E+02  0.00000000000E+00 0. -1.
<mgrwt>
<rscale>  0 0.13663668E+03</rscale>
<asrwt>0</asrwt>
<pdfrwt beam="1">  1        1 0.51281258E-02 0.14417002E+03</pdfrwt>
<pdfrwt beam="2">  1       -1 0.79794376E-01 0.14417002E+03</pdfrwt>
<totfact> 0.25558378E+03</totfact>
</mgrwt>
</event>
<event>
 7    1  0.5928109E-006  0.1826250E+03  0.7546771E-02  0.1170943E+00
          4   -1    0    0  501    0  0.00000000000E+00  0.00000000000E+00  0.51194066603E+03  0.51194066603E+03  0.00000000000E+00 0. -1.
         -4   -1    0    0    0  501 -0.00000000000E+00 -0.00000000000E+00 -0.57656085629E+02  0.57656085629E+02  0.00000000000E+00 0.  1.
         23    2    1    2    0    0  0.11092099410E+03  0.73665869112E+02  0.25845279634E+03  0.31646446227E+03  0.12498712229E+03 0.  0.
          5    1    3    3  502    0  0.36318796975E+02 -0.29920824859E+02  0.34130618932E+02  0.58320664628E+02  0.47000000000E+01 0. -1.
         -5    1    3    3    0  502  0.74602197129E+02  0.10358669397E+03  0.22432217741E+03  0.25814379764E+03  0.47000000000E+01 0. -1.
        -11    1    1    2    0    0 -0.32265808913E+01 -0.31395162097E+02  0.80485439059E+01  0.32570632268E+02  0.00000000000E+00 0.  1.
         11    1    1    2    0    0 -0.10769441321E+03 -0.42270707015E+02  0.18778324016E+03  0.22056165712E+03  0.00000000000E+00 0. -1.
<mgrwt>
<rscale>  0 0.17679359E+03</rscale>
<asrwt>0</asrwt>
<pdfrwt beam="1">  1        4 0.78760100E-01 0.18262505E+03</pdfrwt>
<pdfrwt beam="2">  1       -4 0.88701673E-02 0.18262505E+03</pdfrwt>
<totfact> 0.23978330E+02</totfact>
</mgrwt>
</event>
<event>
 7    1  0.5928109E-006  0.1948695E+03  0.7546771E-02  0.1159146E+00
          1   -1    0    0  501    0  0.00000000000E+00  0.00000000000E+00  0.14686491680E+04  0.14686491680E+04  0.00000000000E+00 0. -1.
         -1   -1    0    0    0  501 -0.00000000000E+00 -0.00000000000E+00 -0.33756810578E+02  0.33756810578E+02  0.00000000000E+00 0.  1.
         23    2    1    2    0    0  0.14922485560E+03  0.90457917758E+01  0.11682105656E+04  0.11843521673E+04  0.12499698686E+03 0.  0.
          5    1    3    3  502    0  0.13258139347E+03  0.54971365813E+01  0.54677984280E+03  0.56267071267E+03  0.47000000000E+01 0. -1.
         -5    1    3    3    0  502  0.16643462125E+02  0.35486551945E+01  0.62143072281E+03  0.62168145463E+03  0.47000000000E+01 0. -1.
        -11    1    1    2    0    0 -0.68068378892E+02 -0.28057301814E+02  0.19386220791E+03  0.20737182076E+03  0.00000000000E+00 0. -1.
         11    1    1    2    0    0 -0.81156476703E+02  0.19011510038E+02  0.72819583917E+02  0.11068199053E+03  0.00000000000E+00 0.  1.
<mgrwt>
<rscale>  0 0.18924252E+03</rscale>
<asrwt>0</asrwt>
<pdfrwt beam="1">  1        1 0.22594598E+00 0.19486952E+03</pdfrwt>
<pdfrwt beam="2">  1       -1 0.51933566E-02 0.19486952E+03</pdfrwt>
<totfact> 0.12528814E+03</totfact>
</mgrwt>
</event>
<event>
 7    1  0.5928109E-006  0.1387168E+03  0.7546771E-02  0.1226585E+00
         -1   -1    0    0    0  501 -0.00000000000E+00  0.00000000000E+00  0.81043976419E+02  0.81043976419E+02  0.00000000000E+00 0.  1.
          1   -1    0    0  501    0  0.00000000000E+00 -0.00000000000E+00 -0.21247283267E+03  0.21247283267E+03  0.00000000000E+00 0. -1.
         23    2    1    2    0    0 -0.59098964633E+02  0.48306792555E+01 -0.12098758360E+03  0.18406616579E+03  0.12540468461E+03 0.  0.
          5    1    3    3  502    0 -0.11055169981E+02  0.57497770267E+02 -0.86944168972E+02  0.10492658809E+03  0.47000000000E+01 0.  1.
         -5    1    3    3    0  502 -0.48043794652E+02 -0.52667091012E+02 -0.34043414630E+02  0.79139577709E+02  0.47000000000E+01 0.  1.
        -11    1    1    2    0    0  0.57600103003E+02  0.21044210306E+02 -0.37580781890E+02  0.71923193900E+02  0.00000000000E+00 0. -1.
         11    1    1    2    0    0  0.14988616300E+01 -0.25874889561E+02  0.27139509242E+02  0.37527449393E+02  0.00000000000E+00 0.  1.
<mgrwt>
<rscale>  0 0.13058856E+03</rscale>
<asrwt>0</asrwt>
<pdfrwt beam="2">  1        1 0.32688128E-01 0.13871683E+03</pdfrwt>
<pdfrwt beam="1">  1       -1 0.12468304E-01 0.13871683E+03</pdfrwt>
<totfact> 0.55966481E+03</totfact>
</mgrwt>
</event>
<event>
 7    1  0.5928109E-006  0.1789670E+03  0.7546771E-02  0.1176693E+00
         -1   -1    0    0    0  501 -0.00000000000E+00  0.00000000000E+00  0.16390006491E+03  0.16390006491E+03  0.00000000000E+00 0.  1.
          1   -1    0    0  501    0  0.00000000000E+00 -0.00000000000E+00 -0.16478335763E+03  0.16478335763E+03  0.00000000000E+00 0. -1.
         23    2    1    2    0    0 -0.89826514347E+02 -0.91294040190E+02  0.46133341724E+01  0.17902649575E+03  0.12500319546E+03 0.  0.
          5    1    3    3  502    0 -0.44540691132E+02 -0.98596772557E+02  0.45439169119E+02  0.11743936655E+03  0.47000000000E+01 0.  1.
         -5    1    3    3    0  502 -0.45285823216E+02  0.73027323675E+01 -0.40825834947E+02  0.61587129203E+02  0.47000000000E+01 0.  1.
        -11    1    1    2    0    0  0.36609083830E+02  0.43548336016E+02 -0.40712107938E+02  0.69958261281E+02  0.00000000000E+00 0. -1.
         11    1    1    2    0    0  0.53217430517E+02  0.47745704174E+02  0.35215481049E+02  0.79698665506E+02  0.00000000000E+00 0.  1.
<mgrwt>
<rscale>  0 0.17111210E+03</rscale>
<asrwt>0</asrwt>
<pdfrwt beam="2">  1        1 0.25351286E-01 0.17896705E+03</pdfrwt>
<pdfrwt beam="1">  1       -1 0.25215395E-01 0.17896705E+03</pdfrwt>
<totfact> 0.25312705E+03</totfact>
</mgrwt>
</event>
<event>
 7    1  0.5928109E-006  0.1962310E+03  0.7546771E-02  0.1157657E+00
          1   -1    0    0  501    0  0.00000000000E+00  0.00000000000E+00  0.21268850679E+04  0.21268850679E+04  0.00000000000E+00 0. -1.
         -1   -1    0    0    0  501 -0.00000000000E+00 -0.00000000000E+00 -0.18588324416E+02  0.18588324416E+02  0.00000000000E+00 0.  1.
         23    2    1    2    0    0  0.13056958723E+03 -0.76373992617E+02  0.14838065375E+04  0.14967259147E+04  0.12500087595E+03 0.  0.
          5    1    3    3  502    0  0.48165471150E+02 -0.93660719836E+02  0.10086172717E+04  0.10141119927E+04  0.47000000000E+01 0.  1.
         -5    1    3    3    0  502  0.82404116084E+02  0.17286727219E+02  0.47518926586E+03  0.48261392197E+03  0.47000000000E+01 0.  1.
        -11    1    1    2    0    0 -0.11515466537E+03  0.36911232990E+02  0.54920189609E+03  0.56235732301E+03  0.00000000000E+00 0. -1.
         11    1    1    2    0    0 -0.15414921866E+02  0.39462759627E+02  0.75288309835E+02  0.86390154598E+02  0.00000000000E+00 0.  1.
<mgrwt>
<rscale>  0 0.19089507E+03</rscale>
<asrwt>0</asrwt>
<pdfrwt beam="1">  1        1 0.32721290E+00 0.19623104E+03</pdfrwt>
<pdfrwt beam="2">  1       -1 0.28597439E-02 0.19623104E+03</pdfrwt>
<totfact> 0.11370587E+03</totfact>
</mgrwt>
</event>
<event>
 7    1  0.5928109E-006  0.1568013E+03  0.7546771E-02  0.1200184E+00
         -2   -1    0    0    0  501 -0.00000000000E+00  0.00000000000E+00  0.10547431636E+03  0.10547431636E+03  0.00000000000E+00 0.  1.
          2   -1    0    0  501    0  0.00000000000E+00 -0.00000000000E+00 -0.20726831250E+03  0.20726831250E+03  0.00000000000E+00 0. -1.
         23    2    1    2    0    0 -0.88313552771E+02 -0.34061663795E+02 -0.88194318559E+02  0.17990241221E+03  0.12500863789E+03 0.  0.
          5    1    3    3  502    0 -0.91115422837E+01  0.37712265526E+02  0.31726777701E+01  0.39209578653E+02  0.47000000000E+01 0.  1.
         -5    1    3    3    0  502 -0.79202010487E+02 -0.71773929321E+02 -0.91366996329E+02  0.14069283355E+03  0.47000000000E+01 0.  1.
        -11    1    1    2    0    0  0.87559248866E+02  0.58980723116E+02 -0.19162773290E+02  0.10729659660E+03  0.00000000000E+00 0. -1.
         11    1    1    2    0    0  0.75430390507E+00 -0.24919059321E+02  0.55630957019E+01  0.25543620057E+02  0.00000000000E+00 0.  1.
<mgrwt>
<rscale>  0 0.15023552E+03</rscale>
<asrwt>0</asrwt>
<pdfrwt beam="2">  1        2 0.31887433E-01 0.15680128E+03</pdfrwt>
<pdfrwt beam="1">  1       -2 0.16226818E-01 0.15680128E+03</pdfrwt>
<totfact> 0.47492413E+03</totfact>
</mgrwt>
</event>
<event>
 7    1  0.9377864E-006  0.1616033E+03  0.7546771E-02  0.1194374E+00
          1   -1    0    0  501    0  0.00000000000E+00  0.00000000000E+00  0.91226756794E+03  0.91226756794E+03  0.00000000000E+00 0. -1.
         -1   -1    0    0    0  501 -0.00000000000E+00 -0.00000000000E+00 -0.26714424180E+02  0.26714424180E+02  0.00000000000E+00 0.  1.
         23    2    1    2    0    0  0.79303542929E+02  0.64821709720E+02  0.61272311023E+03  0.63367596667E+03  0.12499885983E+03 0.  0.
          5    1    3    3  502    0  0.59907296811E+02  0.55118332243E+02  0.15261302728E+03  0.17303104015E+03  0.47000000000E+01 0. -1.
         -5    1    3    3    0  502  0.19396246118E+02  0.97033774769E+01  0.46011008295E+03  0.46064492652E+03  0.47000000000E+01 0. -1.
        -11    1    1    2    0    0 -0.41347543857E+02 -0.60957041789E+02  0.80027043582E+02  0.10876446125E+03  0.00000000000E+00 0.  1.
         11    1    1    2    0    0 -0.37955999073E+02 -0.38646679314E+01  0.19280298995E+03  0.19654156420E+03  0.00000000000E+00 0. -1.
<mgrwt>
<rscale>  0 0.15507318E+03</rscale>
<asrwt>0</asrwt>
<pdfrwt beam="1">  1        1 0.14034883E+00 0.16160328E+03</pdfrwt>
<pdfrwt beam="2">  1       -1 0.41099121E-02 0.16160328E+03</pdfrwt>
<totfact> 0.43358325E+03</totfact>
</mgrwt>
</event>
<event>
 7    1  0.5928109E-006  0.1971775E+03  0.7546771E-02  0.1156753E+00
         -1   -1    0    0    0  501 -0.00000000000E+00  0.00000000000E+00  0.54567579724E+02  0.54567579724E+02  0.00000000000E+00 0.  1.
          1   -1    0    0  501    0  0.00000000000E+00 -0.00000000000E+00 -0.66982709640E+03  0.66982709640E+03  0.00000000000E+00 0. -1.
         23    2    1    2    0    0 -0.83336312412E+02  0.12769324931E+03 -0.39836281106E+03  0.44449059948E+03  0.12501382683E+03 0.  0.
          5    1    3    3  502    0 -0.10812474767E+03  0.12173574976E+03 -0.28559447695E+03  0.32878085268E+03  0.47000000000E+01 0. -1.
         -5    1    3    3    0  502  0.24788435262E+02  0.59574995525E+01 -0.11276833411E+03  0.11570974679E+03  0.47000000000E+01 0. -1.
        -11    1    1    2    0    0  0.38329855142E+01 -0.31932719967E+02 -0.11389373043E+03  0.11834767515E+03  0.00000000000E+00 0. -1.
         11    1    1    2    0    0  0.79503326898E+02 -0.95760529345E+02 -0.10300297519E+03  0.16155640150E+03  0.00000000000E+00 0.  1.
<mgrwt>
<rscale>  0 0.19190651E+03</rscale>
<asrwt>0</asrwt>
<pdfrwt beam="2">  1        1 0.10305032E+00 0.19717749E+03</pdfrwt>
<pdfrwt beam="1">  1       -1 0.83950123E-02 0.19717749E+03</pdfrwt>
<totfact> 0.23836443E+03</totfact>
</mgrwt>
</event>
<event>
 7    1  0.5928109E-006  0.1269969E+03  0.7546771E-02  0.1247823E+00
          3   -1    0    0  501    0  0.00000000000E+00  0.00000000000E+00  0.20950669954E+03  0.20950669954E+03  0.00000000000E+00 0. -1.
         -3   -1    0    0    0  501 -0.00000000000E+00 -0.00000000000E+00 -0.58018448183E+02  0.58018448183E+02  0.00000000000E+00 0.  1.
         23    2    1    2    0    0 -0.17652259001E+02 -0.13890626310E+02  0.10280833721E+03  0.16339454792E+03  0.12499468926E+03 0.  0.
          5    1    3    3  502    0 -0.29290231421E+02 -0.58738501547E+02  0.95911978584E+02  0.11631563462E+03  0.47000000000E+01 0. -1.
         -5    1    3    3    0  502  0.11637972420E+02  0.44847875237E+02  0.68963586301E+01  0.47078913302E+02  0.47000000000E+01 0. -1.
        -11    1    1    2    0    0  0.46737128850E+02  0.30466566039E+02  0.42390925693E+02  0.70068262719E+02  0.00000000000E+00 0.  1.
         11    1    1    2    0    0 -0.29084869850E+02 -0.16575939729E+02  0.62889884539E+01  0.34062337088E+02  0.00000000000E+00 0. -1.
<mgrwt>
<rscale>  0 0.11717973E+03</rscale>
<asrwt>0</asrwt>
<pdfrwt beam="1">  1        3 0.32231800E-01 0.12699695E+03</pdfrwt>
<pdfrwt beam="2">  1       -3 0.89259152E-02 0.12699695E+03</pdfrwt>
<totfact> 0.18956910E+03</totfact>
</mgrwt>
</event>
<event>
 7    1  0.5928109E-006  0.1270458E+03  0.7546771E-02  0.1248524E+00
         -1   -1    0    0    0  501 -0.00000000000E+00  0.00000000000E+00  0.21052490528E+03  0.21052490528E+03  0.00000000000E+00 0.  1.
          1   -1    0    0  501    0  0.00000000000E+00 -0.00000000000E+00 -0.81324914139E+02  0.81324914139E+02  0.00000000000E+00 0. -1.
         23    2    1    2    0    0 -0.16823443667E+02 -0.15295803167E+02 -0.81146394942E+01  0.12730463570E+03  0.12499453206E+03 0.  0.
          5    1    3    3  502    0 -0.64794884167E+02  0.40040391172E+01  0.20217636036E+02  0.68156086671E+02  0.47000000000E+01 0.  1.
         -5    1    3    3    0  502  0.47971440500E+02 -0.19299842284E+02 -0.28332275530E+02  0.59148549032E+02  0.47000000000E+01 0.  1.
        -11    1    1    2    0    0  0.17454297006E+02 -0.14622599724E+02 -0.12322819361E+01  0.22803320491E+02  0.00000000000E+00 0. -1.
         11    1    1    2    0    0 -0.63085333884E+00  0.29918402890E+02  0.13854691257E+03  0.14174186322E+03  0.00000000000E+00 0.  1.
<mgrwt>
<rscale>  0 0.11676907E+03</rscale>
<asrwt>0</asrwt>
<pdfrwt beam="2">  1        1 0.12511525E-01 0.12704575E+03</pdfrwt>
<pdfrwt beam="1">  1       -1 0.32388447E-01 0.12704575E+03</pdfrwt>
<totfact> 0.40544425E+03</totfact>
</mgrwt>
</event>
<event>
 7    1  0.5928109E-006  0.2120776E+03  0.7546771E-02  0.1143597E+00
         -3   -1    0    0    0  501 -0.00000000000E+00  0.00000000000E+00  0.37496066123E+02  0.37496066123E+02  0.00000000000E+00 0.  1.
          3   -1    0    0  501    0  0.00000000000E+00 -0.00000000000E+00 -0.11169500045E+04  0.11169500045E+04  0.00000000000E+00 0. -1.
         23    2    1    2    0    0 -0.14695240894E+03  0.88136846172E+02 -0.63327661675E+03  0.66784441903E+03  0.12495511420E+03 0.  0.
          5    1    3    3  502    0 -0.28204884270E+02  0.31014534183E+02 -0.37968786586E+03  0.38202405986E+03  0.47000000000E+01 0.  1.
         -5    1    3    3    0  502 -0.11874752467E+03  0.57122311989E+02 -0.25358875089E+03  0.28582035917E+03  0.47000000000E+01 0.  1.
        -11    1    1    2    0    0  0.15229339270E+03 -0.60471883394E+02 -0.35143723695E+03  0.38776056744E+03  0.00000000000E+00 0. -1.
         11    1    1    2    0    0 -0.53409837587E+01 -0.27664962778E+02 -0.94740084694E+02  0.98841084175E+02  0.00000000000E+00 0.  1.
<mgrwt>
<rscale>  0 0.20745492E+03</rscale>
<asrwt>0</asrwt>
<pdfrwt beam="2">  1        3 0.17183844E+00 0.21207757E+03</pdfrwt>
<pdfrwt beam="1">  1       -3 0.57686261E-02 0.21207757E+03</pdfrwt>
<totfact> 0.10804482E+02</totfact>
</mgrwt>
</event>
<event>
 7    1  0.5928109E-006  0.1342322E+03  0.7546771E-02  0.1241528E+00
         -1   -1    0    0    0  501 -0.00000000000E+00  0.00000000000E+00  0.28250332102E+02  0.28250332102E+02  0.00000000000E+00 0.  1.
          1   -1    0    0  501    0  0.00000000000E+00 -0.00000000000E+00 -0.74085915029E+03  0.74085915029E+03  0.00000000000E+00 0. -1.
         23    2    1    2    0    0 -0.48230663506E+02  0.81680870043E+01 -0.64202901006E+03  0.65591122506E+03  0.12500148342E+03 0.  0.
          5    1    3    3  502    0 -0.32881428710E+02 -0.51720000448E+02 -0.44850679963E+03  0.45269922257E+03  0.47000000000E+01 0.  1.
         -5    1    3    3    0  502 -0.15349234796E+02  0.59888087452E+02 -0.19352221043E+03  0.20321200249E+03  0.47000000000E+01 0.  1.
        -11    1    1    2    0    0  0.31148728333E+02 -0.16598647739E+01  0.82591774026E+01  0.32267823589E+02  0.00000000000E+00 0.  1.
         11    1    1    2    0    0  0.17081935173E+02 -0.65082222304E+01 -0.78838985529E+02  0.80930433738E+02  0.00000000000E+00 0. -1.
<mgrwt>
<rscale>  0 0.12095643E+03</rscale>
<asrwt>0</asrwt>
<pdfrwt beam="2">  1        1 0.11397831E+00 0.13423221E+03</pdfrwt>
<pdfrwt beam="1">  1       -1 0.43462056E-02 0.13423221E+03</pdfrwt>
<totfact> 0.54503142E+03</totfact>
</mgrwt>
</event>
<event>
 7    1  0.5928109E-006  0.2089630E+03  0.7546771E-02  0.1146288E+00
          2   -1    0    0  501    0  0.00000000000E+00  0.00000000000E+00  0.20014764190E+03  0.20014764190E+03  0.00000000000E+00 0. -1.
         -2   -1    0    0    0  501 -0.00000000000E+00 -0.00000000000E+00 -0.26828800347E+03  0.26828800347E+03  0.00000000000E+00 0.  1.
         23    2    1    2    0    0 -0.13701053015E+03 -0.96271282020E+02  0.83540554401E+02  0.22504344549E+03  0.12500193205E+03 0.  0.
          5    1    3    3  502    0  0.18258372251E+02 -0.32237870374E+02 -0.12175884140E+00  0.37346395659E+02  0.47000000000E+01 0.  1.
         -5    1    3    3    0  502 -0.15526890240E+03 -0.64033411646E+02  0.83662313243E+02  0.18769704984E+03  0.47000000000E+01 0.  1.
        -11    1    1    2    0    0 -0.93314246432E+01  0.25995233818E+02 -0.27760527940E+02  0.39159603913E+02  0.00000000000E+00 0.  1.
         11    1    1    2    0    0  0.14634195479E+03  0.70276048202E+02 -0.12392038804E+03  0.20423259596E+03  0.00000000000E+00 0. -1.
<mgrwt>
<rscale>  0 0.20414538E+03</rscale>
<asrwt>0</asrwt>
<pdfrwt beam="1">  1        2 0.30791945E-01 0.20896298E+03</pdfrwt>
<pdfrwt beam="2">  1       -2 0.41275078E-01 0.20896298E+03</pdfrwt>
<totfact> 0.95216857E+02</totfact>
</mgrwt>
</event>
<event>
 7    1  0.5928109E-006  0.2018695E+03  0.7546771E-02  0.1152325E+00
         -1   -1    0    0    0  501 -0.00000000000E+00  0.00000000000E+00  0.87527183011E+03  0.87527183011E+03  0.00000000000E+00 0.  1.
          1   -1    0    0  501    0  0.00000000000E+00 -0.00000000000E+00 -0.42300010268E+02  0.42300010268E+02  0.00000000000E+00 0. -1.
         23    2    1    2    0    0 -0.92942139945E+02  0.12840772124E+03  0.44003171826E+03  0.48412725801E+03  0.12499801848E+03 0.  0.
          5    1    3    3  502    0 -0.29910525552E+02  0.13485073028E+03  0.29336372229E+03  0.32428956590E+03  0.47000000000E+01 0.  1.
         -5    1    3    3    0  502 -0.63031614393E+02 -0.64430090356E+01  0.14666799596E+03  0.15983769211E+03  0.47000000000E+01 0.  1.
        -11    1    1    2    0    0  0.15731075406E+01 -0.71258086211E+02  0.11445291060E+03  0.13483196306E+03  0.00000000000E+00 0. -1.
         11    1    1    2    0    0  0.91369032405E+02 -0.57149635031E+02  0.27848719098E+03  0.29861261930E+03  0.00000000000E+00 0.  1.
<mgrwt>
<rscale>  0 0.19696482E+03</rscale>
<asrwt>0</asrwt>
<pdfrwt beam="2">  1        1 0.65076946E-02 0.20186948E+03</pdfrwt>
<pdfrwt beam="1">  1       -1 0.13465719E+00 0.20186948E+03</pdfrwt>
<totfact> 0.57488206E+02</totfact>
</mgrwt>
</event>
<event>
 7    1  0.5928109E-006  0.1393561E+03  0.7546771E-02  0.1227471E+00
         -2   -1    0    0    0  501 -0.00000000000E+00  0.00000000000E+00  0.53198512101E+02  0.53198512101E+02  0.00000000000E+00 0.  1.
          2   -1    0    0  501    0  0.00000000000E+00 -0.00000000000E+00 -0.28354593375E+03  0.28354593375E+03  0.00000000000E+00 0. -1.
         23    2    1    2    0    0  0.12650959201E+01 -0.61600858796E+02 -0.14426777829E+03  0.20058242584E+03  0.12499540563E+03 0.  0.
          5    1    3    3  502    0  0.46122132004E+02 -0.16655198094E+02 -0.12452996676E+03  0.13391956282E+03  0.47000000000E+01 0.  1.
         -5    1    3    3    0  502 -0.44857036083E+02 -0.44945660702E+02 -0.19737811534E+02  0.66662863022E+02  0.47000000000E+01 0.  1.
        -11    1    1    2    0    0 -0.12258445561E+02 -0.69764733674E+01  0.10228436375E+02  0.17423018651E+02  0.00000000000E+00 0.  1.
         11    1    1    2    0    0  0.10993349641E+02  0.68577332163E+02 -0.96308079735E+02  0.11873900137E+03  0.00000000000E+00 0. -1.
<mgrwt>
<rscale>  0 0.12998949E+03</rscale>
<asrwt>0</asrwt>
<pdfrwt beam="2">  1        2 0.43622452E-01 0.13935608E+03</pdfrwt>
<pdfrwt beam="1">  1       -2 0.81843863E-02 0.13935608E+03</pdfrwt>
<totfact> 0.10048601E+04</totfact>
</mgrwt>
</event>
<event>
 7    1  0.5928109E-006  0.1636161E+03  0.7546771E-02  0.1191635E+00
         -2   -1    0    0    0  501 -0.00000000000E+00  0.00000000000E+00  0.11580432397E+03  0.11580432397E+03  0.00000000000E+00 0. -1.
          2   -1    0    0  501    0  0.00000000000E+00 -0.00000000000E+00 -0.21053429344E+03  0.21053429344E+03  0.00000000000E+00 0.  1.
         23    2    1    2    0    0  0.94971905822E+02 -0.46122250242E+02 -0.88410881057E+02  0.18597505479E+03  0.12499324882E+03 0.  0.
          5    1    3    3  502    0 -0.19472955870E+02 -0.41199130776E+02 -0.94725057217E+01  0.46780153395E+02  0.47000000000E+01 0. -1.
         -5    1    3    3    0  502  0.11444486169E+03 -0.49231194657E+01 -0.78938375336E+02  0.13919490139E+03  0.47000000000E+01 0. -1.
        -11    1    1    2    0    0 -0.32130408887E+02 -0.28211838509E+02  0.80208932332E+00  0.42765808242E+02  0.00000000000E+00 0.  1.
         11    1    1    2    0    0 -0.62841496935E+02  0.74334088751E+02 -0.71211777439E+01  0.97597754379E+02  0.00000000000E+00 0. -1.
<mgrwt>
<rscale>  0 0.15742476E+03</rscale>
<asrwt>0</asrwt>
<pdfrwt beam="2">  1        2 0.32389891E-01 0.16361613E+03</pdfrwt>
<pdfrwt beam="1">  1       -2 0.17816050E-01 0.16361613E+03</pdfrwt>
<totfact> 0.40064188E+03</totfact>
</mgrwt>
</event>
<event>
 7    1  0.5928109E-006  0.1302829E+03  0.7546771E-02  0.1241228E+00
         -2   -1    0    0    0  501 -0.00000000000E+00  0.00000000000E+00  0.10673995703E+03  0.10673995703E+03  0.00000000000E+00 0.  1.
          2   -1    0    0  501    0  0.00000000000E+00 -0.00000000000E+00 -0.14753189004E+03  0.14753189004E+03  0.00000000000E+00 0. -1.
         23    2    1    2    0    0  0.34403406461E+02  0.13137784323E+02 -0.75868095883E+02  0.15076340885E+03  0.12496976323E+03 0.  0.
          5    1    3    3  502    0 -0.19609186961E+02 -0.45711040950E+02 -0.34222467783E+02  0.60558127275E+02  0.47000000000E+01 0.  1.
         -5    1    3    3    0  502  0.54012593422E+02  0.58848825273E+02 -0.41645628100E+02  0.90205281575E+02  0.47000000000E+01 0.  1.
        -11    1    1    2    0    0  0.79396472194E+01 -0.42554446913E+02  0.27781092857E+02  0.51436446906E+02  0.00000000000E+00 0.  1.
         11    1    1    2    0    0 -0.42343053680E+02  0.29416662590E+02  0.72950700187E+01  0.52071991314E+02  0.00000000000E+00 0. -1.
<mgrwt>
<rscale>  0 0.12114001E+03</rscale>
<asrwt>0</asrwt>
<pdfrwt beam="2">  1        2 0.22697214E-01 0.13028291E+03</pdfrwt>
<pdfrwt beam="1">  1       -2 0.16421532E-01 0.13028291E+03</pdfrwt>
<totfact> 0.66816601E+03</totfact>
</mgrwt>
</event>
<event>
 7    1  0.5928109E-006  0.1445222E+03  0.7546771E-02  0.1218053E+00
          1   -1    0    0  501    0  0.00000000000E+00  0.00000000000E+00  0.10062573149E+04  0.10062573149E+04  0.00000000000E+00 0. -1.
         -1   -1    0    0    0  501 -0.00000000000E+00 -0.00000000000E+00 -0.19573238389E+02  0.19573238389E+02  0.00000000000E+00 0.  1.
         23    2    1    2    0    0 -0.71518400936E+02 -0.12088751675E+02  0.73466776174E+03  0.74874788211E+03  0.12500260489E+03 0.  0.
          5    1    3    3  502    0 -0.14206100683E+01  0.87233849285E+01 -0.41823058224E+00  0.10019006657E+02  0.47000000000E+01 0.  1.
         -5    1    3    3    0  502 -0.70097790868E+02 -0.20812136604E+02  0.73508599232E+03  0.73872887545E+03  0.47000000000E+01 0.  1.
        -11    1    1    2    0    0  0.40366296084E+02  0.35501682556E+02  0.22051624653E+03  0.22697405646E+03  0.00000000000E+00 0. -1.
         11    1    1    2    0    0  0.31152104853E+02 -0.23412930881E+02  0.31500068225E+02  0.50108614702E+02  0.00000000000E+00 0.  1.
<mgrwt>
<rscale>  0 0.13654616E+03</rscale>
<asrwt>0</asrwt>
<pdfrwt beam="1">  1        1 0.15480878E+00 0.14452222E+03</pdfrwt>
<pdfrwt beam="2">  1       -1 0.30112682E-02 0.14452222E+03</pdfrwt>
<totfact> 0.57938722E+03</totfact>
</mgrwt>
</event>
<event>
 7    1  0.5928109E-006  0.1864861E+03  0.7546771E-02  0.1167865E+00
         -2   -1    0    0    0  501 -0.00000000000E+00  0.00000000000E+00  0.12377123407E+03  0.12377123407E+03  0.00000000000E+00 0.  1.
          2   -1    0    0  501    0  0.00000000000E+00 -0.00000000000E+00 -0.26214479606E+03  0.26214479606E+03  0.00000000000E+00 0. -1.
         23    2    1    2    0    0 -0.31402800672E+01 -0.13837824462E+03 -0.12334366849E+03  0.22358602516E+03  0.12497459801E+03 0.  0.
          5    1    3    3  502    0  0.18167137113E+02 -0.15610305573E+03 -0.11304289107E+03  0.19364657007E+03  0.47000000000E+01 0.  1.
         -5    1    3    3    0  502 -0.21307417180E+02  0.17724811107E+02 -0.10300777419E+02  0.29939455090E+02  0.47000000000E+01 0.  1.
        -11    1    1    2    0    0 -0.30044474414E+02  0.10968200688E+03 -0.26941502701E+02  0.11687025988E+03  0.00000000000E+00 0. -1.
         11    1    1    2    0    0  0.33184754481E+02  0.28696237738E+02  0.11911609194E+02  0.45459745093E+02  0.00000000000E+00 0.  1.
<mgrwt>
<rscale>  0 0.17993560E+03</rscale>
<asrwt>0</asrwt>
<pdfrwt beam="2">  1        2 0.40329969E-01 0.18648606E+03</pdfrwt>
<pdfrwt beam="1">  1       -2 0.19041728E-01 0.18648606E+03</pdfrwt>
<totfact> 0.28449748E+03</totfact>
</mgrwt>
</event>
<event>
 7    1  0.5928109E-006  0.1710729E+03  0.7546771E-02  0.1181867E+00
         -1   -1    0    0    0  501 -0.00000000000E+00  0.00000000000E+00  0.44314632528E+02  0.44314632528E+02  0.00000000000E+00 0.  1.
          1   -1    0    0  501    0  0.00000000000E+00 -0.00000000000E+00 -0.59191913362E+03  0.59191913362E+03  0.00000000000E+00 0. -1.
         23    2    1    2    0    0  0.10250837038E+03  0.55812767529E+02 -0.30603331901E+03  0.35060283231E+03  0.12507167009E+03 0.  0.
          5    1    3    3  502    0  0.87324726503E+02 -0.22923461519E+02 -0.15094321243E+03  0.17594611768E+03  0.47000000000E+01 0.  1.
         -5    1    3    3    0  502  0.15183643879E+02  0.78736229049E+02 -0.15509010658E+03  0.17465671463E+03  0.47000000000E+01 0.  1.
        -11    1    1    2    0    0 -0.85415577071E+02 -0.83131383332E+02 -0.17590142957E+03  0.21248049470E+03  0.00000000000E+00 0.  1.
         11    1    1    2    0    0 -0.17092793311E+02  0.27318615802E+02 -0.65669752506E+02  0.73150439142E+02  0.00000000000E+00 0. -1.
<mgrwt>
<rscale>  0 0.16620283E+03</rscale>
<asrwt>0</asrwt>
<pdfrwt beam="2">  1        1 0.91064477E-01 0.17107295E+03</pdfrwt>
<pdfrwt beam="1">  1       -1 0.68176361E-02 0.17107295E+03</pdfrwt>
<totfact> 0.38670476E+03</totfact>
</mgrwt>
</event>
<event>
 7    1  0.5928109E-006  0.1426441E+03  0.7546771E-02  0.1219787E+00
          4   -1    0    0  501    0  0.00000000000E+00  0.00000000000E+00  0.18229590611E+03  0.18229590611E+03  0.00000000000E+00 0. -1.
         -4   -1    0    0    0  501 -0.00000000000E+00 -0.00000000000E+00 -0.91518279660E+02  0.91518279660E+02  0.00000000000E+00 0.  1.
         23    2    1    2    0    0  0.62518109878E+02 -0.28807387152E+02  0.55537759883E+02  0.15307447586E+03  0.12493587463E+03 0.  0.
          5    1    3    3  502    0 -0.10064912051E+02  0.22711523232E+02  0.58671498186E+02  0.63887013090E+02  0.47000000000E+01 0.  1.
         -5    1    3    3    0  502  0.72583021929E+02 -0.51518910384E+02 -0.31337383032E+01  0.89187462769E+02  0.47000000000E+01 0.  1.
        -11    1    1    2    0    0 -0.44602066526E+02 -0.30166022581E+02  0.16815208466E+02  0.56409968024E+02  0.00000000000E+00 0.  1.
         11    1    1    2    0    0 -0.17916043352E+02  0.58973409733E+02  0.18424658099E+02  0.64329741885E+02  0.00000000000E+00 0. -1.
<mgrwt>
<rscale>  0 0.13530679E+03</rscale>
<asrwt>0</asrwt>
<pdfrwt beam="1">  1        4 0.28045524E-01 0.14264415E+03</pdfrwt>
<pdfrwt beam="2">  1       -4 0.14079735E-01 0.14264415E+03</pdfrwt>
<totfact> 0.84939234E+02</totfact>
</mgrwt>
</event>
<event>
 7    1  0.5928109E-006  0.3819018E+03  0.7546771E-02  0.1051154E+00
         -2   -1    0    0    0  501 -0.00000000000E+00  0.00000000000E+00  0.43372834277E+03  0.43372834277E+03  0.00000000000E+00 0.  1.
          2   -1    0    0  501    0  0.00000000000E+00 -0.00000000000E+00 -0.54233972647E+03  0.54233972647E+03  0.00000000000E+00 0. -1.
         23    2    1    2    0    0 -0.33808766604E+03 -0.12616868972E+03 -0.36180306593E+03  0.52607076544E+03  0.12500873385E+03 0.  0.
          5    1    3    3  502    0 -0.60102572425E+02 -0.37320955697E+02 -0.14850517745E+03  0.16456321179E+03  0.47000000000E+01 0. -1.
         -5    1    3    3    0  502 -0.27798509361E+03 -0.88847734025E+02 -0.21329788848E+03  0.36150755365E+03  0.47000000000E+01 0. -1.
        -11    1    1    2    0    0  0.11052000159E+03  0.58474978571E+02  0.13762356551E+03  0.18594149525E+03  0.00000000000E+00 0. -1.
         11    1    1    2    0    0  0.22756766445E+03  0.67693711151E+02  0.11556811672E+03  0.26405580855E+03  0.00000000000E+00 0.  1.
<mgrwt>
<rscale>  0 0.37940450E+03</rscale>
<asrwt>0</asrwt>
<pdfrwt beam="2">  1        2 0.83436881E-01 0.38190181E+03</pdfrwt>
<pdfrwt beam="1">  1       -2 0.66727437E-01 0.38190181E+03</pdfrwt>
<totfact> 0.11976414E+02</totfact>
</mgrwt>
</event>
<event>
 7    1  0.5928109E-006  0.1425048E+03  0.7546771E-02  0.1221661E+00
         -1   -1    0    0    0  501 -0.00000000000E+00  0.00000000000E+00  0.88194025546E+02  0.88194025546E+02  0.00000000000E+00 0.  1.
          1   -1    0    0  501    0  0.00000000000E+00 -0.00000000000E+00 -0.20421729963E+03  0.20421729963E+03  0.00000000000E+00 0. -1.
         23    2    1    2    0    0 -0.51099167959E+02 -0.45549394563E+02 -0.11153297143E+03  0.18096190478E+03  0.12498693914E+03 0.  0.
          5    1    3    3  502    0 -0.18269015829E+02 -0.50920209830E+02  0.96983357759E+01  0.55161330888E+02  0.47000000000E+01 0.  1.
         -5    1    3    3    0  502 -0.32830152131E+02  0.53708152674E+01 -0.12123130721E+03  0.12580057390E+03  0.47000000000E+01 0.  1.
        -11    1    1    2    0    0  0.56982930559E+02  0.66989457093E+02  0.29740863445E+01  0.87997084760E+02  0.00000000000E+00 0. -1.
         11    1    1    2    0    0 -0.58837625997E+01 -0.21440062530E+02 -0.74643890005E+01  0.23452335636E+02  0.00000000000E+00 0.  1.
<mgrwt>
<rscale>  0 0.13398411E+03</rscale>
<asrwt>0</asrwt>
<pdfrwt beam="2">  1        1 0.31418046E-01 0.14250476E+03</pdfrwt>
<pdfrwt beam="1">  1       -1 0.13568312E-01 0.14250476E+03</pdfrwt>
<totfact> 0.51642643E+03</totfact>
</mgrwt>
</event>
<event>
 7    1  0.5928109E-006  0.1811365E+03  0.7546771E-02  0.1171574E+00
          2   -1    0    0  501    0  0.00000000000E+00  0.00000000000E+00  0.29617156864E+03  0.29617156864E+03  0.00000000000E+00 0. -1.
         -2   -1    0    0    0  501 -0.00000000000E+00 -0.00000000000E+00 -0.10624411330E+03  0.10624411330E+03  0.00000000000E+00 0.  1.
         23    2    1    2    0    0  0.52369087565E+02 -0.12014554766E+03  0.15088829403E+03  0.23574924297E+03  0.12503181326E+03 0.  0.
          5    1    3    3  502    0  0.73509185130E+02 -0.99079501577E+02  0.54896010013E+02  0.13511480247E+03  0.47000000000E+01 0. -1.
         -5    1    3    3    0  502 -0.21140097565E+02 -0.21066046086E+02  0.95992284021E+02  0.10063444050E+03  0.47000000000E+01 0. -1.
        -11    1    1    2    0    0 -0.46883182513E+02  0.16622039820E+02 -0.11918709055E+02  0.51150568285E+02  0.00000000000E+00 0.  1.
         11    1    1    2    0    0 -0.54859050524E+01  0.10352350784E+03  0.50957870358E+02  0.11551587069E+03  0.00000000000E+00 0. -1.
<mgrwt>
<rscale>  0 0.17615832E+03</rscale>
<asrwt>0</asrwt>
<pdfrwt beam="1">  1        2 0.45564856E-01 0.18113649E+03</pdfrwt>
<pdfrwt beam="2">  1       -2 0.16345248E-01 0.18113649E+03</pdfrwt>
<totfact> 0.32209401E+03</totfact>
</mgrwt>
</event>
<event>
 7    1  0.5928109E-006  0.1257684E+03  0.7546771E-02  0.1248317E+00
         -1   -1    0    0    0  501 -0.00000000000E+00  0.00000000000E+00  0.14683415027E+03  0.14683415027E+03  0.00000000000E+00 0.  1.
          1   -1    0    0  501    0  0.00000000000E+00 -0.00000000000E+00 -0.85804207596E+02  0.85804207596E+02  0.00000000000E+00 0. -1.
         23    2    1    2    0    0  0.13852740006E+02 -0.12478490977E+01  0.10883928072E+02  0.12623844452E+03  0.12499691777E+03 0.  0.
          5    1    3    3  502    0  0.40935174297E+02 -0.52274758745E+02  0.14657821431E+02  0.68156295569E+02  0.47000000000E+01 0.  1.
         -5    1    3    3    0  502 -0.27082434291E+02  0.51026909648E+02 -0.37738933590E+01  0.58082148948E+02  0.47000000000E+01 0.  1.
        -11    1    1    2    0    0  0.15295813840E+02 -0.32097275972E+02  0.50918596407E+02  0.62103949197E+02  0.00000000000E+00 0.  1.
         11    1    1    2    0    0 -0.29148553845E+02  0.33345125069E+02 -0.77258180874E+00  0.44295964148E+02  0.00000000000E+00 0. -1.
<mgrwt>
<rscale>  0 0.11689014E+03</rscale>
<asrwt>0</asrwt>
<pdfrwt beam="2">  1        1 0.13200647E-01 0.12576838E+03</pdfrwt>
<pdfrwt beam="1">  1       -1 0.22589869E-01 0.12576838E+03</pdfrwt>
<totfact> 0.68609111E+03</totfact>
</mgrwt>
</event>
<event>
 7    1  0.5928109E-006  0.1363778E+03  0.7546771E-02  0.1228831E+00
         -1   -1    0    0    0  501 -0.00000000000E+00  0.00000000000E+00  0.12389135670E+03  0.12389135670E+03  0.00000000000E+00 0.  1.
          1   -1    0    0  501    0  0.00000000000E+00 -0.00000000000E+00 -0.12418236094E+03  0.12418236094E+03  0.00000000000E+00 0. -1.
         23    2    1    2    0    0 -0.43418551918E+02  0.32967351192E+02 -0.16758795611E+02  0.13740363912E+03  0.12500754345E+03 0.  0.
          5    1    3    3  502    0 -0.64038354218E+02  0.69068865191E+02 -0.15297985683E+02  0.95538145867E+02  0.47000000000E+01 0.  1.
         -5    1    3    3    0  502  0.20619802300E+02 -0.36101513999E+02 -0.14608099284E+01  0.41865493256E+02  0.47000000000E+01 0.  1.
        -11    1    1    2    0    0  0.46597262585E+02 -0.50876629528E+02  0.40905679823E+02  0.80206053103E+02  0.00000000000E+00 0.  1.
         11    1    1    2    0    0 -0.31787106667E+01  0.17909278336E+02 -0.24437888454E+02  0.30464025409E+02  0.00000000000E+00 0. -1.
<mgrwt>
<rscale>  0 0.12907728E+03</rscale>
<asrwt>0</asrwt>
<pdfrwt beam="2">  1        1 0.19104979E-01 0.13637779E+03</pdfrwt>
<pdfrwt beam="1">  1       -1 0.19060209E-01 0.13637779E+03</pdfrwt>
<totfact> 0.56337548E+03</totfact>
</mgrwt>
</event>
<event>
 7    1  0.5928109E-006  0.1267579E+03  0.7546771E-02  0.1246463E+00
         -2   -1    0    0    0  501 -0.00000000000E+00  0.00000000000E+00  0.11109066827E+03  0.11109066827E+03  0.00000000000E+00 0.  1.
          2   -1    0    0  501    0  0.00000000000E+00 -0.00000000000E+00 -0.11496216319E+03  0.11496216319E+03  0.00000000000E+00 0. -1.
         23    2    1    2    0    0  0.83923263600E+01  0.19299299916E+02 -0.23486086010E+02  0.12891531038E+03  0.12499866757E+03 0.  0.
          5    1    3    3  502    0 -0.17934185413E+02  0.49175829907E+02 -0.56362589614E+02  0.77063147882E+02  0.47000000000E+01 0.  1.
         -5    1    3    3    0  502  0.26326511773E+02 -0.29876529991E+02  0.32876503604E+02  0.51852162497E+02  0.47000000000E+01 0.  1.
        -11    1    1    2    0    0  0.24989092875E+02 -0.44184725144E+02  0.22236536623E+02  0.55418483016E+02  0.00000000000E+00 0. -1.
         11    1    1    2    0    0 -0.33381419235E+02  0.24885425228E+02 -0.26219455369E+01  0.41719038068E+02  0.00000000000E+00 0.  1.
<mgrwt>
<rscale>  0 0.11798264E+03</rscale>
<asrwt>0</asrwt>
<pdfrwt beam="2">  1        2 0.17686487E-01 0.12675788E+03</pdfrwt>
<pdfrwt beam="1">  1       -2 0.17090872E-01 0.12675788E+03</pdfrwt>
<totfact> 0.82716103E+03</totfact>
</mgrwt>
</event>
<event>
 7    1  0.5928109E-006  0.1140067E+03  0.7546771E-02  0.1261645E+00
          2   -1    0    0  501    0  0.00000000000E+00  0.00000000000E+00  0.23107557755E+03  0.23107557755E+03  0.00000000000E+00 0. -1.
         -2   -1    0    0    0  501 -0.00000000000E+00 -0.00000000000E+00 -0.49569381203E+02  0.49569381203E+02  0.00000000000E+00 0.  1.
         23    2    1    2    0    0 -0.26561057929E+02 -0.27858401115E+01  0.12242445397E+03  0.16728799300E+03  0.11083444848E+03 0.  0.
          5    1    3    3  502    0 -0.36945544908E+02 -0.45664207127E+02  0.10340359988E+03  0.11901507287E+03  0.47000000000E+01 0. -1.
         -5    1    3    3    0  502  0.10384486980E+02  0.42878367015E+02  0.19020854082E+02  0.48272920128E+02  0.47000000000E+01 0.  1.
        -11    1    1    2    0    0 -0.15717718871E+02 -0.19754906789E+02  0.60361221743E+02  0.65427670898E+02  0.00000000000E+00 0. -1.
         11    1    1    2    0    0  0.42278776800E+02  0.22540746901E+02 -0.12794793582E+01  0.47929294862E+02  0.00000000000E+00 0.  1.
<mgrwt>
<rscale>  0 0.10942141E+03</rscale>
<asrwt>0</asrwt>
<pdfrwt beam="1">  1        2 0.35550088E-01 0.11400669E+03</pdfrwt>
<pdfrwt beam="2">  1       -2 0.76260588E-02 0.11400669E+03</pdfrwt>
<totfact> 0.13695392E+04</totfact>
</mgrwt>
</event>
<event>
 7    1  0.5928109E-006  0.1255205E+03  0.7546771E-02  0.1249059E+00
          1   -1    0    0  501    0  0.00000000000E+00  0.00000000000E+00  0.17028480456E+03  0.17028480456E+03  0.00000000000E+00 0. -1.
         -1   -1    0    0    0  501 -0.00000000000E+00 -0.00000000000E+00 -0.71111806944E+02  0.71111806944E+02  0.00000000000E+00 0.  1.
         23    2    1    2    0    0  0.44740591803E+01  0.10475561966E+02  0.71028909384E+02  0.14422377550E+03  0.12500254736E+03 0.  0.
          5    1    3    3  502    0  0.56488183478E+02 -0.12110520633E+02  0.64866389681E+02  0.86990333330E+02  0.47000000000E+01 0. -1.
         -5    1    3    3    0  502 -0.52014124298E+02  0.22586082599E+02  0.61625197024E+01  0.57233442171E+02  0.47000000000E+01 0. -1.
        -11    1    1    2    0    0 -0.11976242327E+02 -0.42042311111E+02 -0.12214370653E+02  0.45389174417E+02  0.00000000000E+00 0.  1.
         11    1    1    2    0    0  0.75021831464E+01  0.31566749145E+02  0.40358458882E+02  0.51783661582E+02  0.00000000000E+00 0. -1.
<mgrwt>
<rscale>  0 0.11645708E+03</rscale>
<asrwt>0</asrwt>
<pdfrwt beam="1">  1        1 0.26197662E-01 0.12552048E+03</pdfrwt>
<pdfrwt beam="2">  1       -1 0.10940278E-01 0.12552048E+03</pdfrwt>
<totfact> 0.89511688E+03</totfact>
</mgrwt>
</event>
<event>
 7    1  0.5928109E-006  0.1252226E+03  0.7546771E-02  0.1250538E+00
          1   -1    0    0  501    0  0.00000000000E+00  0.00000000000E+00  0.96051886437E+03  0.96051886437E+03  0.00000000000E+00 0. -1.
         -1   -1    0    0    0  501 -0.00000000000E+00 -0.00000000000E+00 -0.12610511808E+02  0.12610511808E+02  0.00000000000E+00 0.  1.
         23    2    1    2    0    0  0.74777109819E+01  0.28057239378E+00  0.63706253841E+03  0.64925293797E+03  0.12499881892E+03 0.  0.
          5    1    3    3  502    0  0.64829219221E+02 -0.16539041597E+00  0.40373989782E+03  0.40893868747E+03  0.47000000000E+01 0. -1.
         -5    1    3    3    0  502 -0.57351508239E+02  0.44596280975E+00  0.23332264059E+03  0.24031425050E+03  0.47000000000E+01 0. -1.
        -11    1    1    2    0    0 -0.32080833350E+02  0.30268796267E+02  0.22783263004E+03  0.23206267948E+03  0.00000000000E+00 0. -1.
         11    1    1    2    0    0  0.24603122368E+02 -0.30549368661E+02  0.83013184103E+02  0.91813758723E+02  0.00000000000E+00 0.  1.
<mgrwt>
<rscale>  0 0.11559942E+03</rscale>
<asrwt>0</asrwt>
<pdfrwt beam="1">  1        1 0.14777208E+00 0.12522260E+03</pdfrwt>
<pdfrwt beam="2">  1       -1 0.19400795E-02 0.12522260E+03</pdfrwt>
<totfact> 0.11745495E+04</totfact>
</mgrwt>
</event>
<event>
 7    1  0.5928109E-006  0.1300313E+03  0.7546771E-02  0.1240444E+00
          2   -1    0    0  501    0  0.00000000000E+00  0.00000000000E+00  0.83046543781E+03  0.83046543781E+03  0.00000000000E+00 0. -1.
         -2   -1    0    0    0  501 -0.00000000000E+00 -0.00000000000E+00 -0.15865489673E+02  0.15865489673E+02  0.00000000000E+00 0.  1.
         23    2    1    2    0    0 -0.18422393360E+02  0.30741603871E+02  0.45613557738E+03  0.47430770908E+03  0.12499482850E+03 0.  0.
          5    1    3    3  502    0 -0.11390333997E+02  0.38683484551E+02  0.46022017434E+03  0.46200741396E+03  0.47000000000E+01 0.  1.
         -5    1    3    3    0  502 -0.70320593637E+01 -0.79418806801E+01 -0.40845969597E+01  0.12300295117E+02  0.47000000000E+01 0.  1.
        -11    1    1    2    0    0  0.50637931596E+02 -0.39717488091E+02  0.26670130437E+03  0.27435609111E+03  0.00000000000E+00 0. -1.
         11    1    1    2    0    0 -0.32215538235E+02  0.89758842196E+01  0.91763066387E+02  0.97667127295E+02  0.00000000000E+00 0.  1.
<mgrwt>
<rscale>  0 0.12162290E+03</rscale>
<asrwt>0</asrwt>
<pdfrwt beam="1">  1        2 0.12776388E+00 0.13003130E+03</pdfrwt>
<pdfrwt beam="2">  1       -2 0.24408452E-02 0.13003130E+03</pdfrwt>
<totfact> 0.18443632E+04</totfact>
</mgrwt>
</event>
<event>
 7    1  0.5928109E-006  0.1312097E+03  0.7546771E-02  0.1239000E+00
          1   -1    0    0  501    0  0.00000000000E+00  0.00000000000E+00  0.23195588246E+03  0.23195588246E+03  0.00000000000E+00 0. -1.
         -1   -1    0    0    0  501 -0.00000000000E+00 -0.00000000000E+00 -0.61205161721E+02  0.61205161721E+02  0.00000000000E+00 0.  1.
         23    2    1    2    0    0 -0.82598012744E+01  0.39052052407E+02  0.13209151878E+03  0.18618311344E+03  0.12499078079E+03 0.  0.
          5    1    3    3  502    0  0.48672499152E+01  0.44324388527E+01  0.14609633000E+03  0.14632007476E+03  0.47000000000E+01 0. -1.
         -5    1    3    3    0  502 -0.13127051190E+02  0.34619613554E+02 -0.14004811227E+02  0.39863038683E+02  0.47000000000E+01 0. -1.
        -11    1    1    2    0    0 -0.10617777597E+02 -0.32985343205E+02 -0.23409899272E+02  0.41818577826E+02  0.00000000000E+00 0.  1.
         11    1    1    2    0    0  0.18877578872E+02 -0.60667092024E+01  0.62069101238E+02  0.65159352921E+02  0.00000000000E+00 0. -1.
<mgrwt>
<rscale>  0 0.12251829E+03</rscale>
<asrwt>0</asrwt>
<pdfrwt beam="1">  1        1 0.35685520E-01 0.13120969E+03</pdfrwt>
<pdfrwt beam="2">  1       -1 0.94161789E-02 0.13120969E+03</pdfrwt>
<totfact> 0.76928053E+03</totfact>
</mgrwt>
</event>
<event>
 7    1  0.5928109E-006  0.1814610E+03  0.7546771E-02  0.1172219E+00
         -3   -1    0    0    0  501 -0.00000000000E+00  0.00000000000E+00  0.25708628648E+02  0.25708628648E+02  0.00000000000E+00 0.  1.
          3   -1    0    0  501    0  0.00000000000E+00 -0.00000000000E+00 -0.11810052277E+04  0.11810052277E+04  0.00000000000E+00 0. -1.
         23    2    1    2    0    0 -0.52859722099E+02  0.12045797082E+03 -0.48427981798E+03  0.51716056162E+03  0.12499532565E+03 0.  0.
          5    1    3    3  502    0 -0.49985987893E+02  0.28477566063E+01 -0.24944305687E+03  0.25446146530E+03  0.47000000000E+01 0. -1.
         -5    1    3    3    0  502 -0.28737342064E+01  0.11761021422E+03 -0.23483676111E+03  0.26269909632E+03  0.47000000000E+01 0. -1.
        -11    1    1    2    0    0  0.43120782016E+02 -0.28304624728E+02 -0.11735534436E+03  0.12819060212E+03  0.00000000000E+00 0.  1.
         11    1    1    2    0    0  0.97389400836E+01 -0.92153346095E+02 -0.55366143670E+03  0.56136269259E+03  0.00000000000E+00 0. -1.
<mgrwt>
<rscale>  0 0.17551173E+03</rscale>
<asrwt>0</asrwt>
<pdfrwt beam="2">  1        3 0.18169311E+00 0.18146103E+03</pdfrwt>
<pdfrwt beam="1">  1       -3 0.39551736E-02 0.18146103E+03</pdfrwt>
<totfact> 0.16755231E+02</totfact>
</mgrwt>
</event>
<event>
 7    1  0.5928109E-006  0.2265186E+03  0.7546771E-02  0.1132239E+00
          2   -1    0    0  501    0  0.00000000000E+00  0.00000000000E+00  0.42670944500E+04  0.42670944500E+04  0.00000000000E+00 0. -1.
         -2   -1    0    0    0  501 -0.00000000000E+00 -0.00000000000E+00 -0.17978978024E+02  0.17978978024E+02  0.00000000000E+00 0.  1.
         23    2    1    2    0    0 -0.31055272845E+02  0.18633523148E+03  0.34945122616E+04  0.35018461735E+04  0.12500170981E+03 0.  0.
          5    1    3    3  502    0 -0.62515034203E+02  0.39244847849E+02  0.13844096688E+04  0.13863839687E+04  0.47000000000E+01 0.  1.
         -5    1    3    3    0  502  0.31459761358E+02  0.14709038363E+03  0.21101025929E+04  0.21154622048E+04  0.47000000000E+01 0.  1.
        -11    1    1    2    0    0  0.39104557124E+02 -0.21603281593E+02  0.14713422242E+03  0.15376718626E+03  0.00000000000E+00 0.  1.
         11    1    1    2    0    0 -0.80492842789E+01 -0.16473194989E+03  0.60746898792E+03  0.62946006830E+03  0.00000000000E+00 0. -1.
<mgrwt>
<rscale>  0 0.22221984E+03</rscale>
<asrwt>0</asrwt>
<pdfrwt beam="1">  1        2 0.65647526E+00 0.22651860E+03</pdfrwt>
<pdfrwt beam="2">  1       -2 0.27660000E-02 0.22651860E+03</pdfrwt>
<totfact> 0.13316035E+02</totfact>
</mgrwt>
</event>
<event>
 7    1  0.8318737E-006  0.1779825E+03  0.7546771E-02  0.1175570E+00
         -1   -1    0    0    0  501 -0.00000000000E+00  0.00000000000E+00  0.23668095704E+03  0.23668095704E+03  0.00000000000E+00 0.  1.
          1   -1    0    0  501    0  0.00000000000E+00 -0.00000000000E+00 -0.12362659066E+03  0.12362659066E+03  0.00000000000E+00 0. -1.
         23    2    1    2    0    0  0.49698537973E+02  0.11654759131E+03  0.21038343799E+02  0.17922156335E+03  0.12499788455E+03 0.  0.
          5    1    3    3  502    0  0.60609901598E+02  0.77291141159E+02  0.65948583088E+02  0.11840095559E+03  0.47000000000E+01 0. -1.
         -5    1    3    3    0  502 -0.10911363625E+02  0.39256450153E+02 -0.44910239289E+02  0.60820607756E+02  0.47000000000E+01 0. -1.
        -11    1    1    2    0    0 -0.68083696410E+02 -0.66456894309E+02  0.31077674641E+02  0.10008861263E+03  0.00000000000E+00 0. -1.
         11    1    1    2    0    0  0.18385158437E+02 -0.50090697003E+02  0.60938347938E+02  0.80997371726E+02  0.00000000000E+00 0.  1.
<mgrwt>
<rscale>  0 0.17220269E+03</rscale>
<asrwt>0</asrwt>
<pdfrwt beam="2">  1        1 0.19019476E-01 0.17798246E+03</pdfrwt>
<pdfrwt beam="1">  1       -1 0.36412455E-01 0.17798246E+03</pdfrwt>
<totfact> 0.19582229E+03</totfact>
</mgrwt>
</event>
<event>
 6    1  0.5928109E-006  0.1842494E+03  0.7546771E-02  0.1170820E+00
          1   -1    0    0  501    0  0.00000000000E+00  0.00000000000E+00  0.13119681989E+04  0.13119681989E+04  0.00000000000E+00 0. -1.
         -1   -1    0    0    0  501 -0.00000000000E+00 -0.00000000000E+00 -0.14146052985E+03  0.14146052985E+03  0.00000000000E+00 0.  1.
          5    1    1    2  502    0 -0.10906320534E+02  0.84483574393E+02  0.11357496952E+04  0.11389494643E+04  0.47000000000E+01 0. -1.
         -5    1    1    2    0  502  0.31818048297E+02  0.40000757079E+02  0.12400558817E+03  0.13420851188E+03  0.47000000000E+01 0.  1.
        -11    1    1    2    0    0 -0.15285783919E+02 -0.10201036749E+03 -0.10882282737E+03  0.14994058164E+03  0.00000000000E+00 0.  1.
         11    1    1    2    0    0 -0.56259438439E+01 -0.22473963983E+02  0.19575213097E+02  0.30330170936E+02  0.00000000000E+00 0. -1.
<mgrwt>
<rscale>  0 0.17691806E+03</rscale>
<asrwt>0</asrwt>
<pdfrwt beam="1">  1        1 0.20184125E+00 0.18424945E+03</pdfrwt>
<pdfrwt beam="2">  1       -1 0.21763159E-01 0.18424945E+03</pdfrwt>
<totfact> 0.17309365E+02</totfact>
</mgrwt>
</event>
<event>
 7    1  0.5928109E-006  0.1306105E+03  0.7546771E-02  0.1239675E+00
          2   -1    0    0  501    0  0.00000000000E+00  0.00000000000E+00  0.68788348318E+03  0.68788348318E+03  0.00000000000E+00 0. -1.
         -2   -1    0    0    0  501 -0.00000000000E+00 -0.00000000000E+00 -0.36764345685E+02  0.36764345685E+02  0.00000000000E+00 0.  1.
         23    2    1    2    0    0 -0.20131009996E+02  0.32088084000E+02  0.59708694694E+03  0.61120530552E+03  0.12499680234E+03 0.  0.
          5    1    3    3  502    0  0.32471925122E+02 -0.32097684311E+02  0.16892503121E+03  0.17504983127E+03  0.47000000000E+01 0. -1.
         -5    1    3    3    0  502 -0.52602935118E+02  0.64185768310E+02  0.42816191573E+03  0.43615547425E+03  0.47000000000E+01 0. -1.
        -11    1    1    2    0    0  0.39593974988E+02  0.96253637658E+01 -0.21593441565E+01  0.40804328817E+02  0.00000000000E+00 0.  1.
         11    1    1    2    0    0 -0.19462964992E+02 -0.41713447765E+02  0.56191534715E+02  0.72638194529E+02  0.00000000000E+00 0. -1.
<mgrwt>
<rscale>  0 0.12209840E+03</rscale>
<asrwt>0</asrwt>
<pdfrwt beam="1">  1        2 0.10582822E+00 0.13061050E+03</pdfrwt>
<pdfrwt beam="2">  1       -2 0.56560537E-02 0.13061050E+03</pdfrwt>
<totfact> 0.66817543E+03</totfact>
</mgrwt>
</event>
<event>
 7    1  0.5928109E-006  0.1629582E+03  0.7546771E-02  0.1192404E+00
         -2   -1    0    0    0  501 -0.00000000000E+00  0.00000000000E+00  0.11669960279E+02  0.11669960279E+02  0.00000000000E+00 0.  1.
          2   -1    0    0  501    0  0.00000000000E+00 -0.00000000000E+00 -0.20039194591E+04  0.20039194591E+04  0.00000000000E+00 0. -1.
         23    2    1    2    0    0  0.93632451931E+02 -0.46439720127E+02 -0.12197872950E+04  0.12306244073E+04  0.12502680903E+03 0.  0.
          5    1    3    3  502    0  0.89346701892E+02  0.71191379383E+01 -0.10112511967E+04  0.10152263728E+04  0.47000000000E+01 0. -1.
         -5    1    3    3    0  502  0.42857500389E+01 -0.53558858065E+02 -0.20853609832E+03  0.21539803443E+03  0.47000000000E+01 0. -1.
        -11    1    1    2    0    0 -0.43807176966E+01  0.49178618270E+02 -0.23436327347E+03  0.23950755966E+03  0.00000000000E+00 0.  1.
         11    1    1    2    0    0 -0.89251734234E+02 -0.27388981426E+01 -0.53809893033E+03  0.54545745247E+03  0.00000000000E+00 0. -1.
<mgrwt>
<rscale>  0 0.15675960E+03</rscale>
<asrwt>0</asrwt>
<pdfrwt beam="2">  1        2 0.30829549E+00 0.16295824E+03</pdfrwt>
<pdfrwt beam="1">  1       -2 0.17953774E-02 0.16295824E+03</pdfrwt>
<totfact> 0.66522809E+03</totfact>
</mgrwt>
</event>
<event>
 7    1  0.5928109E-006  0.1768382E+03  0.7546771E-02  0.1177313E+00
          4   -1    0    0  501    0  0.00000000000E+00  0.00000000000E+00  0.33289390620E+03  0.33289390620E+03  0.00000000000E+00 0. -1.
         -4   -1    0    0    0  501 -0.00000000000E+00 -0.00000000000E+00 -0.83244646880E+02  0.83244646880E+02  0.00000000000E+00 0.  1.
         23    2    1    2    0    0  0.11178563852E+03  0.52340420162E+02  0.16257658888E+03  0.24021425593E+03  0.12663409073E+03 0.  0.
          5    1    3    3  502    0 -0.24813874919E+02 -0.91126899510E+01  0.28084886761E+02  0.38853833414E+02  0.47000000000E+01 0. -1.
         -5    1    3    3    0  502  0.13659951344E+03  0.61453110113E+02  0.13449170212E+03  0.20136042251E+03  0.47000000000E+01 0.  1.
        -11    1    1    2    0    0 -0.32501611756E+02 -0.62960843790E+02  0.55188005537E+02  0.89811683942E+02  0.00000000000E+00 0. -1.
         11    1    1    2    0    0 -0.79284026766E+02  0.10620423628E+02  0.31884664900E+02  0.86112613211E+02  0.00000000000E+00 0.  1.
<mgrwt>
<rscale>  0 0.17051361E+03</rscale>
<asrwt>0</asrwt>
<pdfrwt beam="1">  1        4 0.51214446E-01 0.17683818E+03</pdfrwt>
<pdfrwt beam="2">  1       -4 0.12806869E-01 0.17683818E+03</pdfrwt>
<totfact> 0.31972000E+02</totfact>
</mgrwt>
</event>
<event>
 7    1  0.5928109E-006  0.1916041E+03  0.7546771E-02  0.1162393E+00
          1   -1    0    0  501    0  0.00000000000E+00  0.00000000000E+00  0.19589685855E+03  0.19589685855E+03  0.00000000000E+00 0. -1.
         -1   -1    0    0    0  501 -0.00000000000E+00 -0.00000000000E+00 -0.25104696229E+03  0.25104696229E+03  0.00000000000E+00 0.  1.
         23    2    1    2    0    0 -0.31153833406E+02 -0.14183295217E+03  0.10117425757E+03  0.21667570293E+03  0.12499992875E+03 0.  0.
          5    1    3    3  502    0  0.10341802088E+02  0.11789914526E+02 -0.12885801018E+02  0.20834798363E+02  0.47000000000E+01 0. -1.
         -5    1    3    3    0  502 -0.41495635493E+02 -0.15362286669E+03  0.11406005858E+03  0.19584090456E+03  0.47000000000E+01 0. -1.
        -11    1    1    2    0    0  0.46937912095E+01  0.35681114464E+02 -0.10191980469E+03  0.10808709541E+03  0.00000000000E+00 0.  1.
         11    1    1    2    0    0  0.26460042196E+02  0.10615183770E+03 -0.54404556608E+02  0.12218102251E+03  0.00000000000E+00 0. -1.
<mgrwt>
<rscale>  0 0.18570473E+03</rscale>
<asrwt>0</asrwt>
<pdfrwt beam="1">  1        1 0.30137978E-01 0.19160410E+03</pdfrwt>
<pdfrwt beam="2">  1       -1 0.38622610E-01 0.19160410E+03</pdfrwt>
<totfact> 0.98658734E+02</totfact>
</mgrwt>
</event>
<event>
 7    1  0.5928109E-006  0.1281847E+03  0.7546771E-02  0.1243705E+00
          2   -1    0    0  501    0  0.00000000000E+00  0.00000000000E+00  0.99042365107E+02  0.99042365107E+02  0.00000000000E+00 0. -1.
         -2   -1    0    0    0  501 -0.00000000000E+00 -0.00000000000E+00 -0.13038432193E+03  0.13038432193E+03  0.00000000000E+00 0.  1.
         23    2    1    2    0    0  0.22236286091E+02 -0.17694410774E+02 -0.33460333943E+01  0.12822837116E+03  0.12499509846E+03 0.  0.
          5    1    3    3  502    0 -0.32535104234E+02 -0.29662617072E+02 -0.41149806551E+02  0.60446674335E+02  0.47000000000E+01 0.  1.
         -5    1    3    3    0  502  0.54771390325E+02  0.11968206298E+02  0.37803773157E+02  0.67781696829E+02  0.47000000000E+01 0.  1.
        -11    1    1    2    0    0 -0.16462603004E+02 -0.40064861679E+01  0.32509740661E+02  0.36659957268E+02  0.00000000000E+00 0. -1.
         11    1    1    2    0    0 -0.57736830873E+01  0.21700896942E+02 -0.60505664087E+02  0.64538358603E+02  0.00000000000E+00 0.  1.
<mgrwt>
<rscale>  0 0.11963223E+03</rscale>
<asrwt>0</asrwt>
<pdfrwt beam="1">  1        2 0.15237287E-01 0.12818471E+03</pdfrwt>
<pdfrwt beam="2">  1       -2 0.20059126E-01 0.12818471E+03</pdfrwt>
<totfact> 0.75243251E+03</totfact>
</mgrwt>
</event>
<event>
 7    1  0.5928109E-006  0.1408565E+03  0.7546771E-02  0.1221903E+00
         -1   -1    0    0    0  501 -0.00000000000E+00  0.00000000000E+00  0.28401001906E+02  0.28401001906E+02  0.00000000000E+00 0.  1.
          1   -1    0    0  501    0  0.00000000000E+00 -0.00000000000E+00 -0.93727314054E+03  0.93727314054E+03  0.00000000000E+00 0. -1.
         23    2    1    2    0    0  0.64335001884E+02  0.75403853505E+01 -0.78214210166E+03  0.79472437552E+03  0.12507883906E+03 0.  0.
          5    1    3    3  502    0 -0.26210286068E+02  0.12262529131E+02 -0.58760590809E+02  0.65667691818E+02  0.47000000000E+01 0.  1.
         -5    1    3    3    0  502  0.90545287953E+02 -0.47221437807E+01 -0.72338151085E+03  0.72905668370E+03  0.47000000000E+01 0.  1.
        -11    1    1    2    0    0 -0.70934230070E+02  0.15513824216E+02 -0.44198488797E+02  0.85005000731E+02  0.00000000000E+00 0.  1.
         11    1    1    2    0    0  0.65992281852E+01 -0.23054209566E+02 -0.82531548176E+02  0.85944766192E+02  0.00000000000E+00 0. -1.
<mgrwt>
<rscale>  0 0.13381459E+03</rscale>
<asrwt>0</asrwt>
<pdfrwt beam="2">  1        1 0.14419585E+00 0.14085654E+03</pdfrwt>
<pdfrwt beam="1">  1       -1 0.43693854E-02 0.14085654E+03</pdfrwt>
<totfact> 0.37738834E+03</totfact>
</mgrwt>
</event>
<event>
 7    1  0.5928109E-006  0.1379340E+03  0.7546771E-02  0.1227438E+00
          2   -1    0    0  501    0  0.00000000000E+00  0.00000000000E+00  0.17905727072E+04  0.17905727072E+04  0.00000000000E+00 0. -1.
         -2   -1    0    0    0  501 -0.00000000000E+00 -0.00000000000E+00 -0.93668501655E+01  0.93668501655E+01  0.00000000000E+00 0.  1.
         23    2    1    2    0    0  0.54416380370E+02 -0.20989186076E+02  0.12571168785E+04  0.12646614701E+04  0.12499639788E+03 0.  0.
          5    1    3    3  502    0  0.69818325622E+02 -0.33176102214E+02  0.12195857002E+04  0.12220419888E+04  0.47000000000E+01 0.  1.
         -5    1    3    3    0  502 -0.15401945252E+02  0.12186916138E+02  0.37531178293E+02  0.42619481303E+02  0.47000000000E+01 0.  1.
        -11    1    1    2    0    0  0.24768995441E+02 -0.49213686109E+01  0.10579514336E+03  0.10876734512E+03  0.00000000000E+00 0. -1.
         11    1    1    2    0    0 -0.79185375812E+02  0.25910554687E+02  0.41829383519E+03  0.42651074212E+03  0.00000000000E+00 0.  1.
<mgrwt>
<rscale>  0 0.13001209E+03</rscale>
<asrwt>0</asrwt>
<pdfrwt beam="1">  1        2 0.27547245E+00 0.13793400E+03</pdfrwt>
<pdfrwt beam="2">  1       -2 0.14410553E-02 0.13793400E+03</pdfrwt>
<totfact> 0.11711609E+04</totfact>
</mgrwt>
</event>
<event>
 7    1  0.5928109E-006  0.2587730E+03  0.7546771E-02  0.1110054E+00
          2   -1    0    0  501    0  0.00000000000E+00  0.00000000000E+00  0.47319431792E+03  0.47319431792E+03  0.00000000000E+00 0. -1.
         -2   -1    0    0    0  501 -0.00000000000E+00 -0.00000000000E+00 -0.13851010299E+03  0.13851010299E+03  0.00000000000E+00 0.  1.
         23    2    1    2    0    0 -0.93345173473E+02  0.20645850289E+03  0.11657824026E+03  0.28382025951E+03  0.12500007512E+03 0.  0.
          5    1    3    3  502    0 -0.10973435368E+03  0.20939759124E+03  0.12148359887E+03  0.26583704480E+03  0.47000000000E+01 0. -1.
         -5    1    3    3    0  502  0.16389180209E+02 -0.29390883492E+01 -0.49053586065E+01  0.17983214710E+02  0.47000000000E+01 0. -1.
        -11    1    1    2    0    0  0.11779400074E+02  0.15427923195E+01  0.41276992066E+02  0.42952584884E+02  0.00000000000E+00 0. -1.
         11    1    1    2    0    0  0.81565773398E+02 -0.20800129521E+03  0.17682898260E+03  0.28493157650E+03  0.00000000000E+00 0.  1.
<mgrwt>
<rscale>  0 0.25521242E+03</rscale>
<asrwt>0</asrwt>
<pdfrwt beam="1">  1        2 0.72799125E-01 0.25877298E+03</pdfrwt>
<pdfrwt beam="2">  1       -2 0.21309247E-01 0.25877298E+03</pdfrwt>
<totfact> 0.12474406E+03</totfact>
</mgrwt>
</event>
<event>
 7    1  0.5928109E-006  0.1881124E+03  0.7546771E-02  0.1165240E+00
          1   -1    0    0  501    0  0.00000000000E+00  0.00000000000E+00  0.42233080060E+02  0.42233080060E+02  0.00000000000E+00 0. -1.
         -1   -1    0    0    0  501 -0.00000000000E+00 -0.00000000000E+00 -0.77736220973E+03  0.77736220973E+03  0.00000000000E+00 0.  1.
         23    2    1    2    0    0  0.36791670316E+02 -0.13567667481E+03 -0.30833634018E+03  0.36118910814E+03  0.12499794425E+03 0.  0.
          5    1    3    3  502    0  0.23655353177E+02 -0.14168700020E+03 -0.31371718695E+03  0.34507295626E+03  0.47000000000E+01 0.  1.
         -5    1    3    3    0  502  0.13136317139E+02  0.60103253876E+01  0.53808467648E+01  0.16116151872E+02  0.47000000000E+01 0.  1.
        -11    1    1    2    0    0 -0.51136429685E+02  0.66961517232E+02 -0.31768459339E+03  0.32866743086E+03  0.00000000000E+00 0.  1.
         11    1    1    2    0    0  0.14344759369E+02  0.68715157576E+02 -0.10910819609E+03  0.12973875079E+03  0.00000000000E+00 0. -1.
<mgrwt>
<rscale>  0 0.18267413E+03</rscale>
<asrwt>0</asrwt>
<pdfrwt beam="1">  1        1 0.64973978E-02 0.18811240E+03</pdfrwt>
<pdfrwt beam="2">  1       -1 0.11959417E+00 0.18811240E+03</pdfrwt>
<totfact> 0.76753218E+02</totfact>
</mgrwt>
</event>
<event>
 7    1  0.5928109E-006  0.1304077E+03  0.7546771E-02  0.1242553E+00
         -4   -1    0    0    0  501 -0.00000000000E+00  0.00000000000E+00  0.45705383326E+03  0.45705383326E+03  0.00000000000E+00 0.  1.
          4   -1    0    0  501    0  0.00000000000E+00 -0.00000000000E+00 -0.33166924774E+02  0.33166924774E+02  0.00000000000E+00 0. -1.
         23    2    1    2    0    0 -0.17195588992E+02 -0.32931901989E+02  0.14148796447E+03  0.19241884293E+03  0.12500387424E+03 0.  0.
          5    1    3    3  502    0 -0.70612279411E+02 -0.28922525579E+02  0.77993183019E+02  0.10921370375E+03  0.47000000000E+01 0.  1.
         -5    1    3    3    0  502  0.53416690419E+02 -0.40093764093E+01  0.63494781454E+02  0.83205139183E+02  0.47000000000E+01 0.  1.
        -11    1    1    2    0    0  0.52826064178E+02  0.21084875730E+02  0.16307904363E+03  0.17271346072E+03  0.00000000000E+00 0.  1.
         11    1    1    2    0    0 -0.35630475186E+02  0.11847026258E+02  0.11931990039E+03  0.12508845439E+03  0.00000000000E+00 0. -1.
<mgrwt>
<rscale>  0 0.12033038E+03</rscale>
<asrwt>0</asrwt>
<pdfrwt beam="2">  1        4 0.51026041E-02 0.13040770E+03</pdfrwt>
<pdfrwt beam="1">  1       -4 0.70315970E-01 0.13040770E+03</pdfrwt>
<totfact> 0.71702603E+02</totfact>
</mgrwt>
</event>
<event>
 7    1  0.5928109E-006  0.2810441E+03  0.7546771E-02  0.1096905E+00
          2   -1    0    0  501    0  0.00000000000E+00  0.00000000000E+00  0.26525756478E+04  0.26525756478E+04  0.00000000000E+00 0. -1.
         -2   -1    0    0    0  501 -0.00000000000E+00 -0.00000000000E+00 -0.37657051484E+02  0.37657051484E+02  0.00000000000E+00 0.  1.
         23    2    1    2    0    0 -0.18765005336E+03 -0.16777655937E+03  0.19960242691E+04  0.20157129387E+04  0.12499700861E+03 0.  0.
          5    1    3    3  502    0 -0.15432522180E+03 -0.56124231629E+02  0.11348851445E+04  0.11467138199E+04  0.47000000000E+01 0. -1.
         -5    1    3    3    0  502 -0.33324831558E+02 -0.11165232774E+03  0.86113912457E+03  0.86899911885E+03  0.47000000000E+01 0. -1.
        -11    1    1    2    0    0  0.15303733771E+03  0.17522340572E+03  0.52849224872E+03  0.57743200951E+03  0.00000000000E+00 0. -1.
         11    1    1    2    0    0  0.34612715645E+02 -0.74468463464E+01  0.90402078463E+02  0.97087751005E+02  0.00000000000E+00 0.  1.
<mgrwt>
<rscale>  0 0.27778398E+03</rscale>
<asrwt>0</asrwt>
<pdfrwt beam="1">  1        2 0.40808841E+00 0.28104407E+03</pdfrwt>
<pdfrwt beam="2">  1       -2 0.57933946E-02 0.28104407E+03</pdfrwt>
<totfact> 0.51480910E+02</totfact>
</mgrwt>
</event>
<event>
 6    1  0.5928109E-006  0.3413673E+03  0.7546771E-02  0.1083707E+00
         -1   -1    0    0    0  501 -0.00000000000E+00  0.00000000000E+00  0.99348284962E+03  0.99348284962E+03  0.00000000000E+00 0.  1.
          1   -1    0    0  501    0  0.00000000000E+00 -0.00000000000E+00 -0.83367684600E+02  0.83367684600E+02  0.00000000000E+00 0. -1.
          5    1    1    2  502    0  0.17028442389E+03  0.76291661991E+01  0.10753243866E+03  0.20159440607E+03  0.47000000000E+01 0. -1.
         -5    1    1    2    0  502 -0.40144959248E+02  0.13078973939E+03  0.30184322478E+03  0.33143475381E+03  0.47000000000E+01 0.  1.
        -11    1    1    2    0    0 -0.22560923179E+02 -0.29588864097E+02  0.26980733147E+02  0.45961463145E+02  0.00000000000E+00 0. -1.
         11    1    1    2    0    0 -0.10757854146E+03 -0.10883004149E+03  0.47375876843E+03  0.49785991120E+03  0.00000000000E+00 0.  1.
<mgrwt>
<rscale>  0 0.30308888E+03</rscale>
<asrwt>0</asrwt>
<pdfrwt beam="2">  1        1 0.12825798E-01 0.34136733E+03</pdfrwt>
<pdfrwt beam="1">  1       -1 0.15284351E+00 0.34136733E+03</pdfrwt>
<totfact> 0.16456685E+02</totfact>
</mgrwt>
</event>
<event>
 7    1  0.5928109E-006  0.1681830E+03  0.7546771E-02  0.1186143E+00
          2   -1    0    0  501    0  0.00000000000E+00  0.00000000000E+00  0.17159291394E+03  0.17159291394E+03  0.00000000000E+00 0.  1.
         -2   -1    0    0    0  501 -0.00000000000E+00 -0.00000000000E+00 -0.15296884064E+03  0.15296884064E+03  0.00000000000E+00 0. -1.
         23    2    1    2    0    0  0.11076631857E+03 -0.19730259999E+02  0.49936588911E+02  0.17543994096E+03  0.12500819766E+03 0.  0.
          5    1    3    3  502    0  0.30872746562E+02  0.86997327793E+01 -0.40167500197E+02  0.51617147372E+02  0.47000000000E+01 0.  1.
         -5    1    3    3    0  502  0.79893572004E+02 -0.28429992779E+02  0.90104089108E+02  0.12382279358E+03  0.47000000000E+01 0.  1.
        -11    1    1    2    0    0 -0.10690915651E+00  0.32996420116E+02  0.12195991922E+01  0.33019124644E+02  0.00000000000E+00 0. -1.
         11    1    1    2    0    0 -0.11065940941E+03 -0.13266160117E+02 -0.32532114802E+02  0.11610268898E+03  0.00000000000E+00 0.  1.
<mgrwt>
<rscale>  0 0.16228331E+03</rscale>
<asrwt>0</asrwt>
<pdfrwt beam="1">  1        2 0.26398910E-01 0.16818297E+03</pdfrwt>
<pdfrwt beam="2">  1       -2 0.23533668E-01 0.16818297E+03</pdfrwt>
<totfact> 0.31202958E+03</totfact>
</mgrwt>
</event>
<event>
 7    1  0.5928109E-006  0.1487583E+03  0.7546771E-02  0.1212594E+00
          3   -1    0    0  501    0  0.00000000000E+00  0.00000000000E+00  0.43155270532E+03  0.43155270532E+03  0.00000000000E+00 0. -1.
         -3   -1    0    0    0  501 -0.00000000000E+00 -0.00000000000E+00 -0.49728059116E+02  0.49728059116E+02  0.00000000000E+00 0.  1.
         23    2    1    2    0    0 -0.34786755355E+02 -0.72787136608E+02  0.30689475250E+03  0.34104754290E+03  0.12498380617E+03 0.  0.
          5    1    3    3  502    0 -0.42179287470E+02 -0.92806799635E+02  0.14287085914E+03  0.17557439090E+03  0.47000000000E+01 0.  1.
         -5    1    3    3    0  502  0.73925321149E+01  0.20019663028E+02  0.16402389336E+03  0.16547315200E+03  0.47000000000E+01 0.  1.
        -11    1    1    2    0    0 -0.10038040030E+02  0.27881869272E+02  0.70681654419E+02  0.76642397882E+02  0.00000000000E+00 0. -1.
         11    1    1    2    0    0  0.44824795385E+02  0.44905267336E+02  0.42482392871E+01  0.63590823653E+02  0.00000000000E+00 0.  1.
<mgrwt>
<rscale>  0 0.14054773E+03</rscale>
<asrwt>0</asrwt>
<pdfrwt beam="1">  1        3 0.66392721E-01 0.14875832E+03</pdfrwt>
<pdfrwt beam="2">  1       -3 0.76504709E-02 0.14875832E+03</pdfrwt>
<totfact> 0.60033570E+02</totfact>
</mgrwt>
</event>
<event>
 7    1  0.5928109E-006  0.1535133E+03  0.7546771E-02  0.1204546E+00
          1   -1    0    0  501    0  0.00000000000E+00  0.00000000000E+00  0.20625763607E+03  0.20625763607E+03  0.00000000000E+00 0. -1.
         -1   -1    0    0    0  501 -0.00000000000E+00 -0.00000000000E+00 -0.13630331964E+03  0.13630331964E+03  0.00000000000E+00 0.  1.
         23    2    1    2    0    0 -0.43020344178E+02  0.78042184438E+02  0.12989876168E+03  0.20109704570E+03  0.12500000375E+03 0.  0.
          5    1    3    3  502    0 -0.39027337541E+02  0.10319677461E+03  0.58124521162E+02  0.12479285767E+03  0.47000000000E+01 0.  1.
         -5    1    3    3    0  502 -0.39930066375E+01 -0.25154590170E+02  0.71774240519E+02  0.76304188029E+02  0.47000000000E+01 0.  1.
        -11    1    1    2    0    0  0.40234818699E+02 -0.28727940352E+02 -0.74999191452E+02  0.89827690114E+02  0.00000000000E+00 0.  1.
         11    1    1    2    0    0  0.27855254788E+01 -0.49314244086E+02  0.15054746210E+02  0.51636219899E+02  0.00000000000E+00 0. -1.
<mgrwt>
<rscale>  0 0.14673268E+03</rscale>
<asrwt>0</asrwt>
<pdfrwt beam="1">  1        1 0.31731944E-01 0.15351330E+03</pdfrwt>
<pdfrwt beam="2">  1       -1 0.20969742E-01 0.15351330E+03</pdfrwt>
<totfact> 0.25669638E+03</totfact>
</mgrwt>
</event>
<event>
 7    1  0.5928109E-006  0.1294639E+03  0.7546771E-02  0.1243686E+00
          2   -1    0    0  501    0  0.00000000000E+00  0.00000000000E+00  0.89521859171E+02  0.89521859171E+02  0.00000000000E+00 0. -1.
         -2   -1    0    0    0  501 -0.00000000000E+00 -0.00000000000E+00 -0.14742591502E+03  0.14742591502E+03  0.00000000000E+00 0.  1.
         23    2    1    2    0    0  0.58679231932E+00  0.33708520776E+02 -0.69592434267E+01  0.12965084554E+03  0.12499720790E+03 0.  0.
          5    1    3    3  502    0  0.26593242520E+02  0.62440900028E+02 -0.39641985066E+02  0.78737815082E+02  0.47000000000E+01 0. -1.
         -5    1    3    3    0  502 -0.26006450201E+02 -0.28732379251E+02  0.32682741639E+02  0.50913030459E+02  0.47000000000E+01 0. -1.
        -11    1    1    2    0    0 -0.28448487115E+02 -0.50869504170E+02 -0.18335153915E+02  0.61099924245E+02  0.00000000000E+00 0. -1.
         11    1    1    2    0    0  0.27861694796E+02  0.17160983394E+02 -0.32609658506E+02  0.46197004403E+02  0.00000000000E+00 0.  1.
<mgrwt>
<rscale>  0 0.11964389E+03</rscale>
<asrwt>0</asrwt>
<pdfrwt beam="1">  1        2 0.13772594E-01 0.12946394E+03</pdfrwt>
<pdfrwt beam="2">  1       -2 0.22680910E-01 0.12946394E+03</pdfrwt>
<totfact> 0.68763431E+03</totfact>
</mgrwt>
</event>
<event>
 7    1  0.5928109E-006  0.1387092E+03  0.7546771E-02  0.1220859E+00
          1   -1    0    0  501    0  0.00000000000E+00  0.00000000000E+00  0.82224402832E+03  0.82224402832E+03  0.00000000000E+00 0. -1.
         -1   -1    0    0    0  501 -0.00000000000E+00 -0.00000000000E+00 -0.21695651345E+02  0.21695651345E+02  0.00000000000E+00 0.  1.
         23    2    1    2    0    0 -0.27071042344E+01 -0.60057348168E+02  0.50954178706E+03  0.52808435075E+03  0.12500414097E+03 0.  0.
          5    1    3    3  502    0 -0.56681228310E+02 -0.43674367221E+00  0.24682112698E+03  0.25328977696E+03  0.47000000000E+01 0. -1.
         -5    1    3    3    0  502  0.53974124076E+02 -0.59620604496E+02  0.26272066008E+03  0.27479457379E+03  0.47000000000E+01 0. -1.
        -11    1    1    2    0    0 -0.66594049695E+01  0.63965739616E+02  0.29712446224E+03  0.30400478546E+03  0.00000000000E+00 0. -1.
         11    1    1    2    0    0  0.93665092038E+01 -0.39083914479E+01 -0.61178723310E+01  0.11850543457E+02  0.00000000000E+00 0.  1.
<mgrwt>
<rscale>  0 0.13454832E+03</rscale>
<asrwt>0</asrwt>
<pdfrwt beam="1">  1        1 0.12649906E+00 0.13870922E+03</pdfrwt>
<pdfrwt beam="2">  1       -1 0.33377931E-02 0.13870922E+03</pdfrwt>
<totfact> 0.68820219E+03</totfact>
</mgrwt>
</event>
<event>
 7    1  0.5928109E-006  0.1250747E+03  0.7546771E-02  0.1250103E+00
          1   -1    0    0  501    0  0.00000000000E+00  0.00000000000E+00  0.47361475545E+03  0.47361475545E+03  0.00000000000E+00 0. -1.
         -1   -1    0    0    0  501 -0.00000000000E+00 -0.00000000000E+00 -0.27322072462E+02  0.27322072462E+02  0.00000000000E+00 0.  1.
         23    2    1    2    0    0  0.26704090744E+00 -0.45880778878E+01  0.32801709809E+03  0.35105398378E+03  0.12499024408E+03 0.  0.
          5    1    3    3  502    0  0.36845684784E+02 -0.25936673676E+02  0.41668877289E+02  0.61552423698E+02  0.47000000000E+01 0.  1.
         -5    1    3    3    0  502 -0.36578643877E+02  0.21348595788E+02  0.28634822080E+03  0.28950156008E+03  0.47000000000E+01 0.  1.
        -11    1    1    2    0    0 -0.22856312183E+02 -0.37072932342E+02  0.45056310340E+02  0.62664857939E+02  0.00000000000E+00 0.  1.
         11    1    1    2    0    0  0.22589271276E+02  0.41661010230E+02  0.73219274558E+02  0.87217986201E+02  0.00000000000E+00 0. -1.
<mgrwt>
<rscale>  0 0.11585090E+03</rscale>
<asrwt>0</asrwt>
<pdfrwt beam="1">  1        1 0.72863802E-01 0.12507471E+03</pdfrwt>
<pdfrwt beam="2">  1       -1 0.42033961E-02 0.12507471E+03</pdfrwt>
<totfact> 0.10475874E+04</totfact>
</mgrwt>
</event>
<event>
 7    1  0.5928109E-006  0.1281722E+03  0.7546771E-02  0.1245801E+00
          2   -1    0    0  501    0  0.00000000000E+00  0.00000000000E+00  0.20843152953E+04  0.20843152953E+04  0.00000000000E+00 0. -1.
         -2   -1    0    0    0  501 -0.00000000000E+00 -0.00000000000E+00 -0.80148950572E+01  0.80148950572E+01  0.00000000000E+00 0.  1.
         23    2    1    2    0    0 -0.25244477018E+02 -0.12767653567E+02  0.16931568973E+04  0.16980012936E+04  0.12501127000E+03 0.  0.
          5    1    3    3  502    0  0.20557453226E+02  0.16655731619E+02  0.90306903969E+02  0.94220216427E+02  0.47000000000E+01 0. -1.
         -5    1    3    3    0  502 -0.45801930244E+02 -0.29423385186E+02  0.16028499933E+04  0.16037810772E+04  0.47000000000E+01 0. -1.
        -11    1    1    2    0    0 -0.10966825883E+02 -0.31800600684E+02  0.10277353309E+03  0.10813856194E+03  0.00000000000E+00 0.  1.
         11    1    1    2    0    0  0.36211302901E+02  0.44568254250E+02  0.28036996987E+03  0.28619033483E+03  0.00000000000E+00 0. -1.
<mgrwt>
<rscale>  0 0.11837566E+03</rscale>
<asrwt>0</asrwt>
<pdfrwt beam="1">  1        2 0.32066346E+00 0.12817221E+03</pdfrwt>
<pdfrwt beam="2">  1       -2 0.12330624E-02 0.12817221E+03</pdfrwt>
<totfact> 0.10344367E+04</totfact>
</mgrwt>
</event>
<event>
 7    1  0.5928109E-006  0.1629340E+03  0.7546771E-02  0.1192715E+00
         -2   -1    0    0    0  501 -0.00000000000E+00  0.00000000000E+00  0.22349723658E+02  0.22349723658E+02  0.00000000000E+00 0.  1.
          2   -1    0    0  501    0  0.00000000000E+00 -0.00000000000E+00 -0.11452069769E+04  0.11452069769E+04  0.00000000000E+00 0. -1.
         23    2    1    2    0    0  0.26568066955E+02 -0.10107944497E+03 -0.79602679717E+03  0.81253071653E+03  0.12499834848E+03 0.  0.
          5    1    3    3  502    0  0.16461221033E+02 -0.12427014767E+03 -0.50415943255E+03  0.51953138965E+03  0.47000000000E+01 0.  1.
         -5    1    3    3    0  502  0.10106845922E+02  0.23190702698E+02 -0.29186736462E+03  0.29299932688E+03  0.47000000000E+01 0.  1.
        -11    1    1    2    0    0 -0.28780264760E+02 -0.76369486881E+01 -0.63886973245E+02  0.70485260695E+02  0.00000000000E+00 0.  1.
         11    1    1    2    0    0  0.22121978059E+01  0.10871639366E+03 -0.26294348283E+03  0.28454072333E+03  0.00000000000E+00 0. -1.
<mgrwt>
<rscale>  0 0.15649232E+03</rscale>
<asrwt>0</asrwt>
<pdfrwt beam="2">  1        2 0.17618576E+00 0.16293405E+03</pdfrwt>
<pdfrwt beam="1">  1       -2 0.34384177E-02 0.16293405E+03</pdfrwt>
<totfact> 0.72746212E+03</totfact>
</mgrwt>
</event>
<event>
 7    1  0.5928109E-006  0.1393819E+03  0.7546771E-02  0.1216725E+00
         -1   -1    0    0    0  501 -0.00000000000E+00  0.00000000000E+00  0.23641491476E+03  0.23641491476E+03  0.00000000000E+00 0.  1.
          1   -1    0    0  501    0  0.00000000000E+00 -0.00000000000E+00 -0.27477314511E+03  0.27477314511E+03  0.00000000000E+00 0. -1.
         23    2    1    2    0    0  0.26608992429E+01  0.84733563482E+02 -0.23565608724E+03  0.27379025926E+03  0.11063660084E+03 0.  0.
          5    1    3    3  502    0  0.37270706225E+02  0.82058756431E+02 -0.21488000525E+03  0.23306276345E+03  0.47000000000E+01 0. -1.
         -5    1    3    3    0  502 -0.34609806982E+02  0.26748070515E+01 -0.20776081986E+02  0.40727495808E+02  0.47000000000E+01 0.  1.
        -11    1    1    2    0    0  0.13215804467E+02 -0.10147174664E+03  0.12519493710E+03  0.16169398606E+03  0.00000000000E+00 0.  1.
         11    1    1    2    0    0 -0.15876703710E+02  0.16738183154E+02  0.72102919785E+02  0.75703814551E+02  0.00000000000E+00 0. -1.
<mgrwt>
<rscale>  0 0.13750577E+03</rscale>
<asrwt>0</asrwt>
<pdfrwt beam="2">  1        1 0.42272792E-01 0.13938190E+03</pdfrwt>
<pdfrwt beam="1">  1       -1 0.36371525E-01 0.13938190E+03</pdfrwt>
<totfact> 0.71616083E+02</totfact>
</mgrwt>
</event>
<event>
 7    1  0.5928109E-006  0.1253810E+03  0.7546771E-02  0.1249311E+00
          2   -1    0    0  501    0  0.00000000000E+00  0.00000000000E+00  0.68370134406E+03  0.68370134406E+03  0.00000000000E+00 0. -1.
         -2   -1    0    0    0  501 -0.00000000000E+00 -0.00000000000E+00 -0.42702211121E+02  0.42702211121E+02  0.00000000000E+00 0.  1.
         23    2    1    2    0    0  0.16386887590E+02  0.22543645902E+02  0.61821198266E+03  0.63079827006E+03  0.12224424712E+03 0.  0.
          5    1    3    3  502    0  0.34571631860E+02  0.32941406657E+02  0.60196699386E+03  0.60387638279E+03  0.47000000000E+01 0. -1.
         -5    1    3    3    0  502 -0.18184744270E+02 -0.10397760755E+02  0.16244988801E+02  0.26921887267E+02  0.47000000000E+01 0.  1.
        -11    1    1    2    0    0 -0.36767650897E+02 -0.43810361948E+02 -0.18201281301E+01  0.57223429056E+02  0.00000000000E+00 0.  1.
         11    1    1    2    0    0  0.20380763307E+02  0.21266716046E+02  0.24607278416E+02  0.38381856070E+02  0.00000000000E+00 0. -1.
<mgrwt>
<rscale>  0 0.11631060E+03</rscale>
<asrwt>0</asrwt>
<pdfrwt beam="1">  1        2 0.10518481E+00 0.12538103E+03</pdfrwt>
<pdfrwt beam="2">  1       -2 0.65695714E-02 0.12538103E+03</pdfrwt>
<totfact> 0.53522291E+03</totfact>
</mgrwt>
</event>
<event>
 7    1  0.5928109E-006  0.2018337E+03  0.7546771E-02  0.1152689E+00
         -2   -1    0    0    0  501 -0.00000000000E+00  0.00000000000E+00  0.86100847246E+03  0.86100847246E+03  0.00000000000E+00 0.  1.
          2   -1    0    0  501    0  0.00000000000E+00 -0.00000000000E+00 -0.44965185662E+02  0.44965185662E+02  0.00000000000E+00 0. -1.
         23    2    1    2    0    0  0.15596177068E+03 -0.28063642722E+02  0.32623008697E+03  0.38361820776E+03  0.12500087088E+03 0.  0.
          5    1    3    3  502    0  0.47554558925E+02  0.43418714921E+02  0.16066289258E+03  0.17315102059E+03  0.47000000000E+01 0.  1.
         -5    1    3    3    0  502  0.10840721175E+03 -0.71482357643E+02  0.16556719439E+03  0.21046718716E+03  0.47000000000E+01 0.  1.
        -11    1    1    2    0    0 -0.62914569039E+02 -0.24166495765E+02  0.26603521238E+03  0.27443942272E+03  0.00000000000E+00 0.  1.
         11    1    1    2    0    0 -0.93047201639E+02  0.52230138487E+02  0.22377798744E+03  0.24791602764E+03  0.00000000000E+00 0. -1.
<mgrwt>
<rscale>  0 0.19654314E+03</rscale>
<asrwt>0</asrwt>
<pdfrwt beam="2">  1        2 0.69177215E-02 0.20183374E+03</pdfrwt>
<pdfrwt beam="1">  1       -2 0.13246283E+00 0.20183374E+03</pdfrwt>
<totfact> 0.44366015E+02</totfact>
</mgrwt>
</event>
<event>
 7    1  0.5928109E-006  0.2073767E+03  0.7546771E-02  0.1148430E+00
         -2   -1    0    0    0  501 -0.00000000000E+00  0.00000000000E+00  0.12826478928E+03  0.12826478928E+03  0.00000000000E+00 0.  1.
          2   -1    0    0  501    0  0.00000000000E+00 -0.00000000000E+00 -0.54786378823E+03  0.54786378823E+03  0.00000000000E+00 0. -1.
         23    2    1    2    0    0 -0.14269781718E+03  0.83944542095E+02 -0.44343557958E+03  0.48953061346E+03  0.12488296561E+03 0.  0.
          5    1    3    3  502    0 -0.26505814273E+02  0.22161438020E+02 -0.26755587002E+03  0.26981831129E+03  0.47000000000E+01 0.  1.
         -5    1    3    3    0  502 -0.11619200291E+03  0.61783104075E+02 -0.17587970957E+03  0.21971230218E+03  0.47000000000E+01 0.  1.
        -11    1    1    2    0    0  0.81681015140E+02 -0.72222516776E+02  0.49034545220E+02  0.11955026888E+03  0.00000000000E+00 0.  1.
         11    1    1    2    0    0  0.61016802045E+02 -0.11722025319E+02 -0.25197964586E+02  0.67047695177E+02  0.00000000000E+00 0. -1.
<mgrwt>
<rscale>  0 0.20155964E+03</rscale>
<asrwt>0</asrwt>
<pdfrwt beam="2">  1        2 0.84286739E-01 0.20737673E+03</pdfrwt>
<pdfrwt beam="1">  1       -2 0.19733044E-01 0.20737673E+03</pdfrwt>
<totfact> 0.12047162E+03</totfact>
</mgrwt>
</event>
<event>
 7    1  0.5928109E-006  0.1252183E+03  0.7546771E-02  0.1250845E+00
         -2   -1    0    0    0  501 -0.00000000000E+00  0.00000000000E+00  0.12478154845E+02  0.12478154845E+02  0.00000000000E+00 0.  1.
          2   -1    0    0  501    0  0.00000000000E+00 -0.00000000000E+00 -0.98662665433E+03  0.98662665433E+03  0.00000000000E+00 0. -1.
         23    2    1    2    0    0  0.72963195758E+01  0.16220349610E+01 -0.67800385514E+03  0.68946997009E+03  0.12499497908E+03 0.  0.
          5    1    3    3  502    0 -0.23144843348E+02 -0.43623731419E+02 -0.13700382762E+03  0.14570810718E+03  0.47000000000E+01 0. -1.
         -5    1    3    3    0  502  0.30441162923E+02  0.45245766380E+02 -0.54100002752E+03  0.54376186291E+03  0.47000000000E+01 0. -1.
        -11    1    1    2    0    0 -0.17375512695E+02 -0.40698919756E+02 -0.20851606376E+03  0.21316017300E+03  0.00000000000E+00 0. -1.
         11    1    1    2    0    0  0.10079193119E+02  0.39076884795E+02 -0.87628580588E+02  0.96474666079E+02  0.00000000000E+00 0.  1.
<mgrwt>
<rscale>  0 0.11542300E+03</rscale>
<asrwt>0</asrwt>
<pdfrwt beam="2">  1        2 0.15178871E+00 0.12521826E+03</pdfrwt>
<pdfrwt beam="1">  1       -2 0.19197163E-02 0.12521826E+03</pdfrwt>
<totfact> 0.20808503E+04</totfact>
</mgrwt>
</event>
<event>
 7    1  0.5928109E-006  0.1339465E+03  0.7546771E-02  0.1234116E+00
         -1   -1    0    0    0  501 -0.00000000000E+00  0.00000000000E+00  0.20034515052E+03  0.20034515052E+03  0.00000000000E+00 0.  1.
          1   -1    0    0  501    0  0.00000000000E+00 -0.00000000000E+00 -0.71747897186E+02  0.71747897186E+02  0.00000000000E+00 0. -1.
         23    2    1    2    0    0 -0.44036542207E+02  0.19404666037E+02  0.90788302348E+02  0.16181527327E+03  0.12500363477E+03 0.  0.
          5    1    3    3  502    0 -0.39031414040E+02 -0.22206274090E+02 -0.15282603653E+02  0.47667786452E+02  0.47000000000E+01 0.  1.
         -5    1    3    3    0  502 -0.50051281671E+01  0.41610940127E+02  0.10607090600E+03  0.11414748681E+03  0.47000000000E+01 0.  1.
        -11    1    1    2    0    0  0.95576201312E+01  0.15627729861E+02  0.55182974236E+02  0.58144085586E+02  0.00000000000E+00 0.  1.
         11    1    1    2    0    0  0.34478922075E+02 -0.35032395899E+02 -0.17374023247E+02  0.52133688855E+02  0.00000000000E+00 0. -1.
<mgrwt>
<rscale>  0 0.12561224E+03</rscale>
<asrwt>0</asrwt>
<pdfrwt beam="2">  1        1 0.11038138E-01 0.13394651E+03</pdfrwt>
<pdfrwt beam="1">  1       -1 0.30822331E-01 0.13394651E+03</pdfrwt>
<totfact> 0.52142560E+03</totfact>
</mgrwt>
</event>
<event>
 7    1  0.5928109E-006  0.1596134E+03  0.7546771E-02  0.1196432E+00
          1   -1    0    0  501    0  0.00000000000E+00  0.00000000000E+00  0.75289862527E+02  0.75289862527E+02  0.00000000000E+00 0. -1.
         -1   -1    0    0    0  501 -0.00000000000E+00 -0.00000000000E+00 -0.32398761873E+03  0.32398761873E+03  0.00000000000E+00 0.  1.
         23    2    1    2    0    0  0.86640459887E+02  0.48245878777E+02 -0.68852606768E+02  0.17383074348E+03  0.12506882830E+03 0.  0.
          5    1    3    3  502    0 -0.22228093865E+02  0.12859381113E+02  0.16568530152E+02  0.30920188080E+02  0.47000000000E+01 0. -1.
         -5    1    3    3    0  502  0.10886855375E+03  0.35386497664E+02 -0.85421136920E+02  0.14291055540E+03  0.47000000000E+01 0. -1.
        -11    1    1    2    0    0 -0.28585757081E+02 -0.65358112460E+02 -0.69510235631E+02  0.99601712986E+02  0.00000000000E+00 0.  1.
         11    1    1    2    0    0 -0.58054702805E+02  0.17112233682E+02 -0.11033491380E+03  0.12584502478E+03  0.00000000000E+00 0. -1.
<mgrwt>
<rscale>  0 0.15333650E+03</rscale>
<asrwt>0</asrwt>
<pdfrwt beam="1">  1        1 0.11583056E-01 0.15961343E+03</pdfrwt>
<pdfrwt beam="2">  1       -1 0.49844249E-01 0.15961343E+03</pdfrwt>
<totfact> 0.21268852E+03</totfact>
</mgrwt>
</event>
<event>
 7    1  0.5928109E-006  0.1256502E+03  0.7546771E-02  0.1249177E+00
          1   -1    0    0  501    0  0.00000000000E+00  0.00000000000E+00  0.37196565973E+02  0.37196565973E+02  0.00000000000E+00 0. -1.
         -1   -1    0    0    0  501 -0.00000000000E+00 -0.00000000000E+00 -0.40481030706E+03  0.40481030706E+03  0.00000000000E+00 0.  1.
         23    2    1    2    0    0  0.27853821591E+01 -0.14389522401E+02 -0.10555954247E+03  0.16410606882E+03  0.12479250022E+03 0.  0.
          5    1    3    3  502    0 -0.72479132871E+01 -0.61844871482E+02 -0.95880782708E+02  0.11442261520E+03  0.47000000000E+01 0.  1.
         -5    1    3    3    0  502  0.10033295446E+02  0.47455349081E+02 -0.96787597601E+01  0.49683453628E+02  0.47000000000E+01 0.  1.
        -11    1    1    2    0    0  0.31621975331E+02  0.38975621518E+02 -0.13918495086E+03  0.14795776067E+03  0.00000000000E+00 0.  1.
         11    1    1    2    0    0 -0.34407357490E+02 -0.24586099117E+02 -0.12286924776E+03  0.12994304354E+03  0.00000000000E+00 0. -1.
<mgrwt>
<rscale>  0 0.11638828E+03</rscale>
<asrwt>0</asrwt>
<pdfrwt beam="1">  1        1 0.57225487E-02 0.12565025E+03</pdfrwt>
<pdfrwt beam="2">  1       -1 0.62278508E-01 0.12565025E+03</pdfrwt>
<totfact> 0.35654102E+03</totfact>
</mgrwt>
</event>
<event>
 7    1  0.5928109E-006  0.1415082E+03  0.7546771E-02  0.1222055E+00
         -2   -1    0    0    0  501 -0.00000000000E+00  0.00000000000E+00  0.29615113025E+02  0.29615113025E+02  0.00000000000E+00 0.  1.
          2   -1    0    0  501    0  0.00000000000E+00 -0.00000000000E+00 -0.56883771093E+03  0.56883771093E+03  0.00000000000E+00 0. -1.
         23    2    1    2    0    0 -0.48589919178E+02  0.45134110070E+02 -0.35851991696E+03  0.38543626107E+03  0.12500604927E+03 0.  0.
          5    1    3    3  502    0  0.63463043344E+01  0.23236435709E+02 -0.26832699378E+01  0.24688002364E+02  0.47000000000E+01 0. -1.
         -5    1    3    3    0  502 -0.54936223513E+02  0.21897674361E+02 -0.35583664702E+03  0.36074825870E+03  0.47000000000E+01 0. -1.
        -11    1    1    2    0    0  0.15688768735E+02 -0.64509479949E+02 -0.72647759685E+02  0.98413959655E+02  0.00000000000E+00 0.  1.
         11    1    1    2    0    0  0.32901150443E+02  0.19375369878E+02 -0.10805492127E+03  0.11460260324E+03  0.00000000000E+00 0. -1.
<mgrwt>
<rscale>  0 0.13370827E+03</rscale>
<asrwt>0</asrwt>
<pdfrwt beam="2">  1        2 0.87513492E-01 0.14150823E+03</pdfrwt>
<pdfrwt beam="1">  1       -2 0.45561713E-02 0.14150823E+03</pdfrwt>
<totfact> 0.11564496E+04</totfact>
</mgrwt>
</event>
<event>
 7    1  0.5928109E-006  0.1252437E+03  0.7546771E-02  0.1250348E+00
         -2   -1    0    0    0  501 -0.00000000000E+00  0.00000000000E+00  0.31726434834E+02  0.31726434834E+02  0.00000000000E+00 0.  1.
          2   -1    0    0  501    0  0.00000000000E+00 -0.00000000000E+00 -0.71008977711E+03  0.71008977711E+03  0.00000000000E+00 0. -1.
         23    2    1    2    0    0 -0.79480552133E+01  0.79306248246E-01 -0.62218285016E+03  0.63466328284E+03  0.12499122240E+03 0.  0.
          5    1    3    3  502    0  0.43954579032E+02  0.35767453758E+02 -0.38661500732E+03  0.39077432062E+03  0.47000000000E+01 0. -1.
         -5    1    3    3    0  502 -0.51902634245E+02 -0.35688147510E+02 -0.23556784284E+03  0.24388896222E+03  0.47000000000E+01 0. -1.
        -11    1    1    2    0    0  0.48350306467E+02  0.36375465236E+01 -0.42077378159E+02  0.64198828906E+02  0.00000000000E+00 0. -1.
         11    1    1    2    0    0 -0.40402251254E+02 -0.37168527719E+01 -0.14103113960E+02  0.42954100203E+02  0.00000000000E+00 0.  1.
<mgrwt>
<rscale>  0 0.11570929E+03</rscale>
<asrwt>0</asrwt>
<pdfrwt beam="2">  1        2 0.10924458E+00 0.12524370E+03</pdfrwt>
<pdfrwt beam="1">  1       -2 0.48809900E-02 0.12524370E+03</pdfrwt>
<totfact> 0.80114497E+03</totfact>
</mgrwt>
</event>
<event>
 7    1  0.5928109E-006  0.1340744E+03  0.7546771E-02  0.1233438E+00
          1   -1    0    0  501    0  0.00000000000E+00  0.00000000000E+00  0.63300654364E+03  0.63300654364E+03  0.00000000000E+00 0. -1.
         -1   -1    0    0    0  501 -0.00000000000E+00 -0.00000000000E+00 -0.22949193225E+02  0.22949193225E+02  0.00000000000E+00 0.  1.
         23    2    1    2    0    0 -0.47842113320E+02 -0.74438969796E+01  0.38605729998E+03  0.40867614858E+03  0.12502670173E+03 0.  0.
          5    1    3    3  502    0 -0.54469398518E+01  0.32196802315E+02  0.21231195353E+02  0.39232090044E+02  0.47000000000E+01 0.  1.
         -5    1    3    3    0  502 -0.42395173468E+02 -0.39640699295E+02  0.36482610462E+03  0.36944405854E+03  0.47000000000E+01 0.  1.
        -11    1    1    2    0    0  0.66465020643E+02 -0.13995929607E+02  0.10588026494E+03  0.12579394071E+03  0.00000000000E+00 0.  1.
         11    1    1    2    0    0 -0.18622907323E+02  0.21439826587E+02  0.11811978550E+03  0.12148564757E+03  0.00000000000E+00 0. -1.
<mgrwt>
<rscale>  0 0.12604950E+03</rscale>
<asrwt>0</asrwt>
<pdfrwt beam="1">  1        1 0.97385609E-01 0.13407444E+03</pdfrwt>
<pdfrwt beam="2">  1       -1 0.35306456E-02 0.13407444E+03</pdfrwt>
<totfact> 0.92409660E+03</totfact>
</mgrwt>
</event>
<event>
 7    1  0.5928109E-006  0.1325487E+03  0.7546771E-02  0.1237344E+00
         -1   -1    0    0    0  501 -0.00000000000E+00  0.00000000000E+00  0.16407021733E+03  0.16407021733E+03  0.00000000000E+00 0.  1.
          1   -1    0    0  501    0  0.00000000000E+00 -0.00000000000E+00 -0.88157398931E+02  0.88157398931E+02  0.00000000000E+00 0. -1.
         23    2    1    2    0    0  0.35727678188E+02 -0.25825734276E+02  0.11129458423E+02  0.13301511029E+03  0.12500287669E+03 0.  0.
          5    1    3    3  502    0 -0.44456479127E+02 -0.82237709650E+01  0.21232564012E+02  0.50168921852E+02  0.47000000000E+01 0.  1.
         -5    1    3    3    0  502  0.80184157315E+02 -0.17601963311E+02 -0.10103105589E+02  0.82846188442E+02  0.47000000000E+01 0.  1.
        -11    1    1    2    0    0  0.19386637108E+02 -0.13619318560E+02  0.41059925163E+02  0.47405115660E+02  0.00000000000E+00 0.  1.
         11    1    1    2    0    0 -0.55114315296E+02  0.39445052836E+02  0.23723434816E+02  0.71807390310E+02  0.00000000000E+00 0. -1.
<mgrwt>
<rscale>  0 0.12355534E+03</rscale>
<asrwt>0</asrwt>
<pdfrwt beam="2">  1        1 0.13562677E-01 0.13254869E+03</pdfrwt>
<pdfrwt beam="1">  1       -1 0.25241572E-01 0.13254869E+03</pdfrwt>
<totfact> 0.55469941E+03</totfact>
</mgrwt>
</event>
<event>
 7    1  0.5928109E-006  0.1355855E+03  0.7546771E-02  0.1241461E+00
          2   -1    0    0  501    0  0.00000000000E+00  0.00000000000E+00  0.10696633091E+03  0.10696633091E+03  0.00000000000E+00 0. -1.
         -2   -1    0    0    0  501 -0.00000000000E+00 -0.00000000000E+00 -0.12798003695E+03  0.12798003695E+03  0.00000000000E+00 0.  1.
         23    2    1    2    0    0  0.52566673920E+02  0.18401125380E+01  0.24299910690E+02  0.13774586062E+03  0.12496717664E+03 0.  0.
          5    1    3    3  502    0 -0.29374927264E+02 -0.34516967588E+02  0.42466593445E+01  0.45764959509E+02  0.47000000000E+01 0. -1.
         -5    1    3    3    0  502  0.81941601184E+02  0.36357080126E+02  0.20053251345E+02  0.91980901112E+02  0.47000000000E+01 0. -1.
        -11    1    1    2    0    0 -0.16376592493E+02 -0.25109639963E+01 -0.56846208913E+02  0.59211394086E+02  0.00000000000E+00 0.  1.
         11    1    1    2    0    0 -0.36190081427E+02  0.67085145833E+00  0.11532592182E+02  0.37989113148E+02  0.00000000000E+00 0. -1.
<mgrwt>
<rscale>  0 0.12099696E+03</rscale>
<asrwt>0</asrwt>
<pdfrwt beam="1">  1        2 0.16456359E-01 0.13558553E+03</pdfrwt>
<pdfrwt beam="2">  1       -2 0.19689236E-01 0.13558553E+03</pdfrwt>
<totfact> 0.71306699E+03</totfact>
</mgrwt>
</event>
<event>
 7    1  0.5928109E-006  0.3230518E+03  0.7546771E-02  0.1075443E+00
          2   -1    0    0  501    0  0.00000000000E+00  0.00000000000E+00  0.26948881114E+04  0.26948881114E+04  0.00000000000E+00 0. -1.
         -2   -1    0    0    0  501 -0.00000000000E+00 -0.00000000000E+00 -0.41089917859E+02  0.41089917859E+02  0.00000000000E+00 0.  1.
         23    2    1    2    0    0  0.92616350326E+02 -0.28312441914E+03  0.17506794123E+04  0.17802361836E+04  0.12500095875E+03 0.  0.
          5    1    3    3  502    0  0.60909538205E+01 -0.91152338131E+02  0.86655314611E+03  0.87136805857E+03  0.47000000000E+01 0.  1.
         -5    1    3    3    0  502  0.86525396506E+02 -0.19197208101E+03  0.88412626620E+03  0.90886812504E+03  0.47000000000E+01 0.  1.
        -11    1    1    2    0    0 -0.75133466293E+02  0.96537710822E+02  0.42338235097E+03  0.44070078566E+03  0.00000000000E+00 0. -1.
         11    1    1    2    0    0 -0.17482884034E+02  0.18658670832E+03  0.47973643028E+03  0.51504106001E+03  0.00000000000E+00 0.  1.
<mgrwt>
<rscale>  0 0.32044758E+03</rscale>
<asrwt>0</asrwt>
<pdfrwt beam="1">  1        2 0.41459803E+00 0.32305180E+03</pdfrwt>
<pdfrwt beam="2">  1       -2 0.63215279E-02 0.32305180E+03</pdfrwt>
<totfact> 0.42222207E+02</totfact>
</mgrwt>
</event>
<event>
 7    1  0.5928109E-006  0.1373043E+03  0.7546771E-02  0.1229168E+00
          1   -1    0    0  501    0  0.00000000000E+00  0.00000000000E+00  0.19659094749E+04  0.19659094749E+04  0.00000000000E+00 0. -1.
         -1   -1    0    0    0  501 -0.00000000000E+00 -0.00000000000E+00 -0.10192292352E+02  0.10192292352E+02  0.00000000000E+00 0.  1.
         23    2    1    2    0    0 -0.25800686852E+02  0.50620187752E+02  0.15687803311E+04  0.15747775050E+04  0.12499753631E+03 0.  0.
          5    1    3    3  502    0 -0.39646629929E+02  0.85557234097E+02  0.12877807326E+04  0.12912370815E+04  0.47000000000E+01 0.  1.
         -5    1    3    3    0  502  0.13845943076E+02 -0.34937046345E+02  0.28099959852E+03  0.28354042342E+03  0.47000000000E+01 0.  1.
        -11    1    1    2    0    0  0.34487424044E+02 -0.56844533623E+02  0.38470357789E+03  0.39040687271E+03  0.00000000000E+00 0. -1.
         11    1    1    2    0    0 -0.86867371919E+01  0.62243458708E+01  0.22332735860E+01  0.10917389591E+02  0.00000000000E+00 0.  1.
<mgrwt>
<rscale>  0 0.12885303E+03</rscale>
<asrwt>0</asrwt>
<pdfrwt beam="1">  1        1 0.30244731E+00 0.13730427E+03</pdfrwt>
<pdfrwt beam="2">  1       -1 0.15680465E-02 0.13730427E+03</pdfrwt>
<totfact> 0.34534190E+03</totfact>
</mgrwt>
</event>
<event>
 7    1  0.5928109E-006  0.1466768E+03  0.7546771E-02  0.1214571E+00
          1   -1    0    0  501    0  0.00000000000E+00  0.00000000000E+00  0.14260172057E+04  0.14260172057E+04  0.00000000000E+00 0. -1.
         -1   -1    0    0    0  501 -0.00000000000E+00 -0.00000000000E+00 -0.15213795031E+02  0.15213795031E+02  0.00000000000E+00 0.  1.
         23    2    1    2    0    0  0.10056092046E+02 -0.76094096316E+02  0.10780586547E+04  0.10879910591E+04  0.12499058096E+03 0.  0.
          5    1    3    3  502    0 -0.40739035805E+02 -0.13960682732E+02  0.14135951289E+03  0.14784847508E+03  0.47000000000E+01 0.  1.
         -5    1    3    3    0  502  0.50795127851E+02 -0.62133413584E+02  0.93669914180E+03  0.94014258405E+03  0.47000000000E+01 0.  1.
        -11    1    1    2    0    0  0.37648512062E+02  0.22952724123E+02  0.90198520665E+02  0.10039925864E+03  0.00000000000E+00 0. -1.
         11    1    1    2    0    0 -0.47704604108E+02  0.53141372193E+02  0.24254623530E+03  0.25284068294E+03  0.00000000000E+00 0.  1.
<mgrwt>
<rscale>  0 0.13908069E+03</rscale>
<asrwt>0</asrwt>
<pdfrwt beam="1">  1        1 0.21938716E+00 0.14667679E+03</pdfrwt>
<pdfrwt beam="2">  1       -1 0.23405850E-02 0.14667679E+03</pdfrwt>
<totfact> 0.43066527E+03</totfact>
</mgrwt>
</event>
<event>
 7    1  0.5928109E-006  0.1950272E+03  0.7546771E-02  0.1158862E+00
         -1   -1    0    0    0  501 -0.00000000000E+00  0.00000000000E+00  0.79603603144E+02  0.79603603144E+02  0.00000000000E+00 0.  1.
          1   -1    0    0  501    0  0.00000000000E+00 -0.00000000000E+00 -0.67523018593E+03  0.67523018593E+03  0.00000000000E+00 0. -1.
         23    2    1    2    0    0 -0.62151989203E+02 -0.13619239518E+03 -0.53677235033E+03  0.57110433134E+03  0.12499745170E+03 0.  0.
          5    1    3    3  502    0 -0.36735818141E+02 -0.57689449477E+02 -0.73464332444E+02  0.10048229226E+03  0.47000000000E+01 0.  1.
         -5    1    3    3    0  502 -0.25416171062E+02 -0.78502945702E+02 -0.46330801788E+03  0.47062203908E+03  0.47000000000E+01 0.  1.
        -11    1    1    2    0    0  0.44031039254E+02  0.22372707774E+02 -0.46468108848E+02  0.67812650817E+02  0.00000000000E+00 0. -1.
         11    1    1    2    0    0  0.18120949949E+02  0.11381968741E+03 -0.12386123612E+02  0.11591680692E+03  0.00000000000E+00 0.  1.
<mgrwt>
<rscale>  0 0.18955646E+03</rscale>
<asrwt>0</asrwt>
<pdfrwt beam="2">  1        1 0.10388157E+00 0.19502718E+03</pdfrwt>
<pdfrwt beam="1">  1       -1 0.12246707E-01 0.19502718E+03</pdfrwt>
<totfact> 0.13162628E+03</totfact>
</mgrwt>
</event>
<event>
 7    1  0.5928109E-006  0.1570101E+03  0.7546771E-02  0.1199942E+00
         -3   -1    0    0    0  501 -0.00000000000E+00  0.00000000000E+00  0.21911339157E+03  0.21911339157E+03  0.00000000000E+00 0.  1.
          3   -1    0    0  501    0  0.00000000000E+00 -0.00000000000E+00 -0.10949305734E+03  0.10949305734E+03  0.00000000000E+00 0. -1.
         23    2    1    2    0    0  0.52882253393E+02 -0.78914999529E+02  0.35304045140E+00  0.15701046010E+03  0.12501219968E+03 0.  0.
          5    1    3    3  502    0  0.20894104471E+02 -0.10161867029E+03  0.29448974644E+02  0.10794558750E+03  0.47000000000E+01 0. -1.
         -5    1    3    3    0  502  0.31988148922E+02  0.22703670757E+02 -0.29095934192E+02  0.49064872606E+02  0.47000000000E+01 0. -1.
        -11    1    1    2    0    0 -0.30241304267E+02  0.61524646517E+01  0.86839995598E+02  0.92160588868E+02  0.00000000000E+00 0.  1.
         11    1    1    2    0    0 -0.22640949126E+02  0.72762534877E+02  0.22427298178E+02  0.79435399934E+02  0.00000000000E+00 0. -1.
<mgrwt>
<rscale>  0 0.15043313E+03</rscale>
<asrwt>0</asrwt>
<pdfrwt beam="2">  1        3 0.16845086E-01 0.15701006E+03</pdfrwt>
<pdfrwt beam="1">  1       -3 0.33709752E-01 0.15701006E+03</pdfrwt>
<totfact> 0.61887531E+02</totfact>
</mgrwt>
</event>
<event>
 7    1  0.5928109E-006  0.1407593E+03  0.7546771E-02  0.1223379E+00
         -1   -1    0    0    0  501 -0.00000000000E+00  0.00000000000E+00  0.18489392055E+03  0.18489392055E+03  0.00000000000E+00 0.  1.
          1   -1    0    0  501    0  0.00000000000E+00 -0.00000000000E+00 -0.88283441388E+02  0.88283441388E+02  0.00000000000E+00 0. -1.
         23    2    1    2    0    0 -0.13973477478E+02  0.63189690703E+02  0.32072313257E+02  0.14436692780E+03  0.12499992592E+03 0.  0.
          5    1    3    3  502    0 -0.62937814329E+02  0.22063825142E+02  0.42763813761E+02  0.79365071788E+02  0.47000000000E+01 0. -1.
         -5    1    3    3    0  502  0.48964336852E+02  0.41125865561E+02 -0.10691500504E+02  0.65001856008E+02  0.47000000000E+01 0. -1.
        -11    1    1    2    0    0 -0.18278978917E+02  0.88548863497E+01 -0.77863146718E+01  0.21752167218E+02  0.00000000000E+00 0. -1.
         11    1    1    2    0    0  0.32252456394E+02 -0.72044577053E+02  0.72324480575E+02  0.10705826692E+03  0.00000000000E+00 0.  1.
<mgrwt>
<rscale>  0 0.13278633E+03</rscale>
<asrwt>0</asrwt>
<pdfrwt beam="2">  1        1 0.13582068E-01 0.14075929E+03</pdfrwt>
<pdfrwt beam="1">  1       -1 0.28445218E-01 0.14075929E+03</pdfrwt>
<totfact> 0.45597205E+03</totfact>
</mgrwt>
</event>
<event>
 7    1  0.5928109E-006  0.1357327E+03  0.7546771E-02  0.1231200E+00
         -2   -1    0    0    0  501 -0.00000000000E+00  0.00000000000E+00  0.34835424163E+02  0.34835424163E+02  0.00000000000E+00 0.  1.
          2   -1    0    0  501    0  0.00000000000E+00 -0.00000000000E+00 -0.41835355433E+03  0.41835355433E+03  0.00000000000E+00 0. -1.
         23    2    1    2    0    0 -0.52254755973E+02  0.81904329075E+01 -0.21631548632E+03  0.25537377339E+03  0.12500292717E+03 0.  0.
          5    1    3    3  502    0  0.34842009096E+02  0.15502287159E+01 -0.20064201881E+02  0.40509640878E+02  0.47000000000E+01 0. -1.
         -5    1    3    3    0  502 -0.87096765069E+02  0.66402041915E+01 -0.19625128444E+03  0.21486413252E+03  0.47000000000E+01 0. -1.
        -11    1    1    2    0    0  0.72169842221E+02  0.80366349473E+01 -0.85532793575E+02  0.11220041178E+03  0.00000000000E+00 0.  1.
         11    1    1    2    0    0 -0.19915086248E+02 -0.16227067855E+02 -0.81669850272E+02  0.85614793318E+02  0.00000000000E+00 0. -1.
<mgrwt>
<rscale>  0 0.12750880E+03</rscale>
<asrwt>0</asrwt>
<pdfrwt beam="2">  1        2 0.64362083E-01 0.13573273E+03</pdfrwt>
<pdfrwt beam="1">  1       -2 0.53592962E-02 0.13573273E+03</pdfrwt>
<totfact> 0.12654335E+04</totfact>
</mgrwt>
</event>
<event>
 7    1  0.5928109E-006  0.1386091E+03  0.7546771E-02  0.1226866E+00
          2   -1    0    0  501    0  0.00000000000E+00  0.00000000000E+00  0.87424250778E+03  0.87424250778E+03  0.00000000000E+00 0. -1.
         -2   -1    0    0    0  501 -0.00000000000E+00 -0.00000000000E+00 -0.17952616961E+02  0.17952616961E+02  0.00000000000E+00 0.  1.
         23    2    1    2    0    0 -0.41075380191E+02 -0.43595543094E+02  0.55126914887E+03  0.56842779682E+03  0.12499890983E+03 0.  0.
          5    1    3    3  502    0 -0.81206143167E+02 -0.49500862876E+02  0.43175150234E+03  0.44212693074E+03  0.47000000000E+01 0. -1.
         -5    1    3    3    0  502  0.40130762977E+02  0.59053197826E+01  0.11951764653E+03  0.12630086608E+03  0.47000000000E+01 0. -1.
        -11    1    1    2    0    0  0.37529187796E+02  0.71314786259E+02  0.23021746091E+03  0.24391457107E+03  0.00000000000E+00 0. -1.
         11    1    1    2    0    0  0.35461923951E+01 -0.27719243165E+02  0.74803281038E+02  0.79852756848E+02  0.00000000000E+00 0.  1.
<mgrwt>
<rscale>  0 0.13039836E+03</rscale>
<asrwt>0</asrwt>
<pdfrwt beam="1">  1        2 0.13449881E+00 0.13860911E+03</pdfrwt>
<pdfrwt beam="2">  1       -2 0.27619418E-02 0.13860911E+03</pdfrwt>
<totfact> 0.14484307E+04</totfact>
</mgrwt>
</event>
<event>
 7    1  0.5928109E-006  0.1286875E+03  0.7546771E-02  0.1246636E+00
          2   -1    0    0  501    0  0.00000000000E+00  0.00000000000E+00  0.43429196516E+03  0.43429196516E+03  0.00000000000E+00 0. -1.
         -2   -1    0    0    0  501 -0.00000000000E+00 -0.00000000000E+00 -0.31581701637E+02  0.31581701637E+02  0.00000000000E+00 0.  1.
         23    2    1    2    0    0  0.18205442100E+02 -0.24630524371E+02  0.31276413840E+03  0.33820391655E+03  0.12498952776E+03 0.  0.
          5    1    3    3  502    0 -0.40119933541E+02  0.24765212518E+02  0.16644972665E+03  0.17306220362E+03  0.47000000000E+01 0.  1.
         -5    1    3    3    0  502  0.58325375641E+02 -0.49395736889E+02  0.14631441175E+03  0.16514171294E+03  0.47000000000E+01 0.  1.
        -11    1    1    2    0    0 -0.40026848019E+02  0.45332782101E+02  0.62067628137E+02  0.86657949191E+02  0.00000000000E+00 0.  1.
         11    1    1    2    0    0  0.21821405919E+02 -0.20702257730E+02  0.27878496990E+02  0.41011801056E+02  0.00000000000E+00 0. -1.
<mgrwt>
<rscale>  0 0.11788007E+03</rscale>
<asrwt>0</asrwt>
<pdfrwt beam="1">  1        2 0.66814144E-01 0.12868754E+03</pdfrwt>
<pdfrwt beam="2">  1       -2 0.48587236E-02 0.12868754E+03</pdfrwt>
<totfact> 0.14025967E+04</totfact>
</mgrwt>
</event>
<event>
 7    1  0.5928109E-006  0.2266457E+03  0.7546771E-02  0.1132173E+00
         -3   -1    0    0    0  501 -0.00000000000E+00  0.00000000000E+00  0.38044590553E+03  0.38044590553E+03  0.00000000000E+00 0.  1.
          3   -1    0    0  501    0  0.00000000000E+00 -0.00000000000E+00 -0.16757863814E+03  0.16757863814E+03  0.00000000000E+00 0. -1.
         23    2    1    2    0    0  0.15630161400E+03 -0.10635939438E+03 -0.28269409057E+02  0.22840187572E+03  0.12500296810E+03 0.  0.
          5    1    3    3  502    0  0.97320938840E+02 -0.11453355848E+03 -0.58632853418E+02  0.16139765381E+03  0.47000000000E+01 0. -1.
         -5    1    3    3    0  502  0.58980675155E+02  0.81741640986E+01  0.30363444361E+02  0.67004221911E+02  0.47000000000E+01 0. -1.
        -11    1    1    2    0    0 -0.33925871648E+01  0.36868149104E+02  0.20466576141E+02  0.42304264619E+02  0.00000000000E+00 0. -1.
         11    1    1    2    0    0 -0.15290902683E+03  0.69491245280E+02  0.22067010030E+03  0.27731840333E+03  0.00000000000E+00 0.  1.
<mgrwt>
<rscale>  0 0.22230880E+03</rscale>
<asrwt>0</asrwt>
<pdfrwt beam="2">  1        3 0.25781329E-01 0.22664566E+03</pdfrwt>
<pdfrwt beam="1">  1       -3 0.58530139E-01 0.22664566E+03</pdfrwt>
<totfact> 0.10161414E+02</totfact>
</mgrwt>
</event>
<event>
 7    1  0.5928109E-006  0.1948577E+03  0.7546771E-02  0.1159014E+00
         -1   -1    0    0    0  501 -0.00000000000E+00  0.00000000000E+00  0.95584132514E+02  0.95584132514E+02  0.00000000000E+00 0.  1.
          1   -1    0    0  501    0  0.00000000000E+00 -0.00000000000E+00 -0.35564758376E+03  0.35564758376E+03  0.00000000000E+00 0. -1.
         23    2    1    2    0    0 -0.14715468163E+03 -0.26297655925E+02 -0.13585477628E+03  0.23754169092E+03  0.12499387047E+03 0.  0.
          5    1    3    3  502    0 -0.39813253586E+02 -0.17797440137E+02  0.19872541900E+02  0.48154459380E+02  0.47000000000E+01 0. -1.
         -5    1    3    3    0  502 -0.10734142804E+03 -0.85002157881E+01 -0.15572731818E+03  0.18938723154E+03  0.47000000000E+01 0. -1.
        -11    1    1    2    0    0  0.12156322260E+03  0.26860252092E+02 -0.48223022661E+02  0.13350861451E+03  0.00000000000E+00 0.  1.
         11    1    1    2    0    0  0.25591459025E+02 -0.56259616643E+00 -0.75985652306E+02  0.80181410850E+02  0.00000000000E+00 0. -1.
<mgrwt>
<rscale>  0 0.18938828E+03</rscale>
<asrwt>0</asrwt>
<pdfrwt beam="2">  1        1 0.54715013E-01 0.19485773E+03</pdfrwt>
<pdfrwt beam="1">  1       -1 0.14705251E-01 0.19485773E+03</pdfrwt>
<totfact> 0.23112529E+03</totfact>
</mgrwt>
</event>
<event>
 7    1  0.5928109E-006  0.1318876E+03  0.7546771E-02  0.1237641E+00
         -2   -1    0    0    0  501 -0.00000000000E+00  0.00000000000E+00  0.21837663953E+03  0.21837663953E+03  0.00000000000E+00 0.  1.
          2   -1    0    0  501    0  0.00000000000E+00 -0.00000000000E+00 -0.72843187231E+02  0.72843187231E+02  0.00000000000E+00 0. -1.
         23    2    1    2    0    0 -0.65043183198E+01 -0.41598130926E+02  0.25441340940E+02  0.13431902642E+03  0.12498651277E+03 0.  0.
          5    1    3    3  502    0 -0.18515939241E+02 -0.39937197458E+02  0.72801675252E+02  0.85205596449E+02  0.47000000000E+01 0. -1.
         -5    1    3    3    0  502  0.12011620921E+02 -0.16609334688E+01 -0.47360334312E+02  0.49113429968E+02  0.47000000000E+01 0. -1.
        -11    1    1    2    0    0  0.14719246775E+02  0.65244013518E+02  0.11225592019E+03  0.13067068969E+03  0.00000000000E+00 0.  1.
         11    1    1    2    0    0 -0.82149284555E+01 -0.23645882592E+02  0.78361911722E+01  0.26230110659E+02  0.00000000000E+00 0. -1.
<mgrwt>
<rscale>  0 0.12336880E+03</rscale>
<asrwt>0</asrwt>
<pdfrwt beam="2">  1        2 0.11206644E-01 0.13188760E+03</pdfrwt>
<pdfrwt beam="1">  1       -2 0.33596406E-01 0.13188760E+03</pdfrwt>
<totfact> 0.43895617E+03</totfact>
</mgrwt>
</event>
<event>
 7    1  0.5928109E-006  0.1492520E+03  0.7546771E-02  0.1211544E+00
          2   -1    0    0  501    0  0.00000000000E+00  0.00000000000E+00  0.94964058562E+02  0.94964058562E+02  0.00000000000E+00 0. -1.
         -2   -1    0    0    0  501 -0.00000000000E+00 -0.00000000000E+00 -0.22539515063E+03  0.22539515063E+03  0.00000000000E+00 0.  1.
         23    2    1    2    0    0  0.32823342393E+02  0.74648565156E+02 -0.88386106873E+01  0.14951349055E+03  0.12500553080E+03 0.  0.
          5    1    3    3  502    0  0.52631460157E+02  0.17135907525E+02  0.42367580783E+02  0.69862807175E+02  0.47000000000E+01 0. -1.
         -5    1    3    3    0  502 -0.19808117764E+02  0.57512657631E+02 -0.51206191470E+02  0.79650683374E+02  0.47000000000E+01 0. -1.
        -11    1    1    2    0    0 -0.44834620569E+02 -0.89954892793E+02 -0.10003114650E+03  0.14180358320E+03  0.00000000000E+00 0.  1.
         11    1    1    2    0    0  0.12011278176E+02  0.15306327637E+02 -0.21561334887E+02  0.29042135446E+02  0.00000000000E+00 0. -1.
<mgrwt>
<rscale>  0 0.14133468E+03</rscale>
<asrwt>0</asrwt>
<pdfrwt beam="1">  1        2 0.14609855E-01 0.14925201E+03</pdfrwt>
<pdfrwt beam="2">  1       -2 0.34676177E-01 0.14925201E+03</pdfrwt>
<totfact> 0.30397482E+03</totfact>
</mgrwt>
</event>
<event>
 7    1  0.5928109E-006  0.1418591E+03  0.7546771E-02  0.1222470E+00
         -1   -1    0    0    0  501 -0.00000000000E+00  0.00000000000E+00  0.12412945440E+02  0.12412945440E+02  0.00000000000E+00 0.  1.
          1   -1    0    0  501    0  0.00000000000E+00 -0.00000000000E+00 -0.13510720643E+04  0.13510720643E+04  0.00000000000E+00 0. -1.
         23    2    1    2    0    0  0.39013916215E+02  0.54559812107E+02 -0.89386699511E+03  0.90505369801E+03  0.12500053031E+03 0.  0.
          5    1    3    3  502    0  0.44137684392E+02 -0.25048984669E+02 -0.53369366888E+03  0.53612182293E+03  0.47000000000E+01 0. -1.
         -5    1    3    3    0  502 -0.51237681771E+01  0.79608796775E+02 -0.36017332624E+03  0.36893187509E+03  0.47000000000E+01 0. -1.
        -11    1    1    2    0    0 -0.58616996851E+02 -0.14722279955E+02 -0.32723005364E+03  0.33276449007E+03  0.00000000000E+00 0. -1.
         11    1    1    2    0    0  0.19603080636E+02 -0.39837532151E+02 -0.11756207016E+03  0.12566682171E+03  0.00000000000E+00 0.  1.
<mgrwt>
<rscale>  0 0.13341841E+03</rscale>
<asrwt>0</asrwt>
<pdfrwt beam="2">  1        1 0.20785703E+00 0.14185905E+03</pdfrwt>
<pdfrwt beam="1">  1       -1 0.19096859E-02 0.14185905E+03</pdfrwt>
<totfact> 0.64700753E+03</totfact>
</mgrwt>
</event>
<event>
 7    1  0.5928109E-006  0.1602914E+03  0.7546771E-02  0.1195589E+00
         -2   -1    0    0    0  501 -0.00000000000E+00  0.00000000000E+00  0.43330893925E+02  0.43330893925E+02  0.00000000000E+00 0. -1.
          2   -1    0    0  501    0  0.00000000000E+00 -0.00000000000E+00 -0.51538511726E+03  0.51538511726E+03  0.00000000000E+00 0.  1.
         23    2    1    2    0    0 -0.52290424134E+02 -0.85637517335E+02 -0.28554407678E+03  0.32745801066E+03  0.12500102450E+03 0.  0.
          5    1    3    3  502    0  0.40417155113E+01  0.29664658757E+02 -0.38151638005E+02  0.48723350931E+02  0.47000000000E+01 0.  1.
         -5    1    3    3    0  502 -0.56332139646E+02 -0.11530217609E+03 -0.24739243878E+03  0.27873465973E+03  0.47000000000E+01 0.  1.
        -11    1    1    2    0    0 -0.22327094695E+02  0.48195123695E+02 -0.67713293093E+02  0.86060206641E+02  0.00000000000E+00 0.  1.
         11    1    1    2    0    0  0.74617518830E+02  0.37442393640E+02 -0.11879685346E+03  0.14519779388E+03  0.00000000000E+00 0. -1.
<mgrwt>
<rscale>  0 0.15404446E+03</rscale>
<asrwt>0</asrwt>
<pdfrwt beam="2">  1        2 0.79290022E-01 0.16029139E+03</pdfrwt>
<pdfrwt beam="1">  1       -2 0.66662911E-02 0.16029139E+03</pdfrwt>
<totfact> 0.73170039E+03</totfact>
</mgrwt>
</event>
<event>
 7    1  0.5928109E-006  0.1376939E+03  0.7546771E-02  0.1228790E+00
         -2   -1    0    0    0  501 -0.00000000000E+00  0.00000000000E+00  0.13900510922E+02  0.13900510922E+02  0.00000000000E+00 0.  1.
          2   -1    0    0  501    0  0.00000000000E+00 -0.00000000000E+00 -0.12302450043E+04  0.12302450043E+04  0.00000000000E+00 0. -1.
         23    2    1    2    0    0 -0.45225750666E+02 -0.35894071991E+02 -0.89771596623E+03  0.90821448867E+03  0.12500339389E+03 0.  0.
          5    1    3    3  502    0  0.10557285757E+02 -0.64344213288E+02 -0.62261215984E+03  0.62603484380E+03  0.47000000000E+01 0. -1.
         -5    1    3    3    0  502 -0.55783036423E+02  0.28450141297E+02 -0.27510380638E+03  0.28217964487E+03  0.47000000000E+01 0. -1.
        -11    1    1    2    0    0 -0.31765923410E+01 -0.18913074572E+02 -0.17202088783E+02  0.25762511275E+02  0.00000000000E+00 0.  1.
         11    1    1    2    0    0  0.48402343007E+02  0.54807146564E+02 -0.30142643838E+03  0.31016851529E+03  0.00000000000E+00 0. -1.
<mgrwt>
<rscale>  0 0.12910504E+03</rscale>
<asrwt>0</asrwt>
<pdfrwt beam="2">  1        2 0.18926843E+00 0.13769387E+03</pdfrwt>
<pdfrwt beam="1">  1       -2 0.21385405E-02 0.13769387E+03</pdfrwt>
<totfact> 0.12995628E+04</totfact>
</mgrwt>
</event>
<event>
 7    1  0.5928109E-006  0.1773201E+03  0.7546771E-02  0.1176331E+00
         -3   -1    0    0    0  501 -0.00000000000E+00  0.00000000000E+00  0.17008226462E+03  0.17008226462E+03  0.00000000000E+00 0.  1.
          3   -1    0    0  501    0  0.00000000000E+00 -0.00000000000E+00 -0.24151789009E+03  0.24151789009E+03  0.00000000000E+00 0. -1.
         23    2    1    2    0    0  0.50555331466E+02 -0.11511809757E+03 -0.15497320333E+03  0.23549756632E+03  0.12503756262E+03 0.  0.
          5    1    3    3  502    0  0.66214289923E+02 -0.97340997044E+02 -0.17015907921E+03  0.20696812347E+03  0.47000000000E+01 0.  1.
         -5    1    3    3    0  502 -0.15658958458E+02 -0.17777100526E+02  0.15185875880E+02  0.28529442850E+02  0.47000000000E+01 0.  1.
        -11    1    1    2    0    0 -0.64603063372E+02  0.10135885463E+03  0.37289515640E+02  0.12584784934E+03  0.00000000000E+00 0. -1.
         11    1    1    2    0    0  0.14047731906E+02  0.13759242945E+02  0.46248062220E+02  0.50254739053E+02  0.00000000000E+00 0.  1.
<mgrwt>
<rscale>  0 0.17146314E+03</rscale>
<asrwt>0</asrwt>
<pdfrwt beam="2">  1        3 0.37156598E-01 0.17732008E+03</pdfrwt>
<pdfrwt beam="1">  1       -3 0.26166502E-01 0.17732008E+03</pdfrwt>
<totfact> 0.23858490E+02</totfact>
</mgrwt>
</event>
<event>
 7    1  0.5928109E-006  0.1473212E+03  0.7546771E-02  0.1213334E+00
         -1   -1    0    0    0  501 -0.00000000000E+00  0.00000000000E+00  0.28829035891E+02  0.28829035891E+02  0.00000000000E+00 0.  1.
          1   -1    0    0  501    0  0.00000000000E+00 -0.00000000000E+00 -0.62936244714E+03  0.62936244714E+03  0.00000000000E+00 0. -1.
         23    2    1    2    0    0 -0.70364171341E+01 -0.77635871682E+02 -0.36960710860E+03  0.39788560276E+03  0.12500679351E+03 0.  0.
          5    1    3    3  502    0  0.89796142424E+01 -0.59542297833E+02 -0.36831564160E+03  0.37323507412E+03  0.47000000000E+01 0.  1.
         -5    1    3    3    0  502 -0.16016031376E+02 -0.18093573849E+02 -0.12914669964E+01  0.24650528649E+02  0.47000000000E+01 0.  1.
        -11    1    1    2    0    0 -0.14457536824E+01  0.90712317430E+02 -0.22666522364E+03  0.24414737014E+03  0.00000000000E+00 0. -1.
         11    1    1    2    0    0  0.84821708165E+01 -0.13076445749E+02 -0.42610790117E+01  0.16158510127E+02  0.00000000000E+00 0.  1.
<mgrwt>
<rscale>  0 0.13999596E+03</rscale>
<asrwt>0</asrwt>
<pdfrwt beam="2">  1        1 0.96824982E-01 0.14732121E+03</pdfrwt>
<pdfrwt beam="1">  1       -1 0.44352367E-02 0.14732121E+03</pdfrwt>
<totfact> 0.66999109E+03</totfact>
</mgrwt>
</event>
<event>
 7    1  0.5928109E-006  0.1423604E+03  0.7546771E-02  0.1221085E+00
          1   -1    0    0  501    0  0.00000000000E+00  0.00000000000E+00  0.22787167074E+03  0.22787167074E+03  0.00000000000E+00 0. -1.
         -1   -1    0    0    0  501 -0.00000000000E+00 -0.00000000000E+00 -0.72102282663E+02  0.72102282663E+02  0.00000000000E+00 0.  1.
         23    2    1    2    0    0 -0.61833499051E+02  0.28636706259E+02  0.99541897399E+02  0.17370971677E+03  0.12499213501E+03 0.  0.
          5    1    3    3  502    0 -0.79604400817E+02  0.35782608383E+01  0.11880549574E+02  0.80702552861E+02  0.47000000000E+01 0. -1.
         -5    1    3    3    0  502  0.17770901766E+02  0.25058445421E+02  0.87661347826E+02  0.93007163913E+02  0.47000000000E+01 0. -1.
        -11    1    1    2    0    0  0.12595938914E+02 -0.46965746234E+02  0.55408558678E+02  0.73719382602E+02  0.00000000000E+00 0. -1.
         11    1    1    2    0    0  0.49237560137E+02  0.18329039975E+02  0.81893199497E+00  0.52544854023E+02  0.00000000000E+00 0.  1.
<mgrwt>
<rscale>  0 0.13438877E+03</rscale>
<asrwt>0</asrwt>
<pdfrwt beam="1">  1        1 0.35057180E-01 0.14236037E+03</pdfrwt>
<pdfrwt beam="2">  1       -1 0.11092659E-01 0.14236037E+03</pdfrwt>
<totfact> 0.61551082E+03</totfact>
</mgrwt>
</event>
<event>
 7    1  0.5928109E-006  0.1353736E+03  0.7546771E-02  0.1232681E+00
         -2   -1    0    0    0  501 -0.00000000000E+00  0.00000000000E+00  0.48177407915E+02  0.48177407915E+02  0.00000000000E+00 0.  1.
          2   -1    0    0  501    0  0.00000000000E+00 -0.00000000000E+00 -0.32461890148E+03  0.32461890148E+03  0.00000000000E+00 0. -1.
         23    2    1    2    0    0 -0.35515698928E+02  0.37271877838E+02 -0.21025961994E+03  0.25007023577E+03  0.12520166649E+03 0.  0.
          5    1    3    3  502    0  0.15716158761E+01 -0.41140177034E+01  0.15889782528E+02  0.17145562309E+02  0.47000000000E+01 0. -1.
         -5    1    3    3    0  502 -0.37087314804E+02  0.41385895541E+02 -0.22614940247E+03  0.23292467346E+03  0.47000000000E+01 0. -1.
        -11    1    1    2    0    0  0.30032332958E+02  0.21173149524E+02 -0.49597861641E+02  0.61726745929E+02  0.00000000000E+00 0. -1.
         11    1    1    2    0    0  0.54833659703E+01 -0.58445027362E+02 -0.16584011979E+02  0.60999327693E+02  0.00000000000E+00 0.  1.
<mgrwt>
<rscale>  0 0.12654072E+03</rscale>
<asrwt>0</asrwt>
<pdfrwt beam="2">  1        2 0.49941370E-01 0.13537361E+03</pdfrwt>
<pdfrwt beam="1">  1       -2 0.74119089E-02 0.13537361E+03</pdfrwt>
<totfact> 0.10122728E+04</totfact>
</mgrwt>
</event>
<event>
 7    1  0.5928109E-006  0.1423613E+03  0.7546771E-02  0.1219346E+00
          3   -1    0    0  501    0  0.00000000000E+00  0.00000000000E+00  0.65563213040E+02  0.65563213040E+02  0.00000000000E+00 0. -1.
         -3   -1    0    0    0  501 -0.00000000000E+00 -0.00000000000E+00 -0.25966949757E+03  0.25966949757E+03  0.00000000000E+00 0.  1.
         23    2    1    2    0    0  0.62336197653E+02  0.27481599213E+02 -0.12273065668E+03  0.18796157250E+03  0.12500279522E+03 0.  0.
          5    1    3    3  502    0  0.57017088322E+02  0.35776519862E+02 -0.27988895212E+01  0.67533928634E+02  0.47000000000E+01 0. -1.
         -5    1    3    3    0  502  0.53191093314E+01 -0.82949206492E+01 -0.11993176716E+03  0.12042764387E+03  0.47000000000E+01 0. -1.
        -11    1    1    2    0    0 -0.61354810502E+02  0.14479100234E+02 -0.11392011261E+02  0.64061181974E+02  0.00000000000E+00 0. -1.
         11    1    1    2    0    0 -0.98138715138E+00 -0.41960699447E+02 -0.59983616586E+02  0.73209956137E+02  0.00000000000E+00 0.  1.
<mgrwt>
<rscale>  0 0.13562114E+03</rscale>
<asrwt>0</asrwt>
<pdfrwt beam="1">  1        3 0.10086648E-01 0.14236130E+03</pdfrwt>
<pdfrwt beam="2">  1       -3 0.39949153E-01 0.14236130E+03</pdfrwt>
<totfact> 0.10515346E+03</totfact>
</mgrwt>
</event>
<event>
 7    1  0.5928109E-006  0.1267021E+03  0.7546771E-02  0.1246578E+00
          1   -1    0    0  501    0  0.00000000000E+00  0.00000000000E+00  0.31807184133E+03  0.31807184133E+03  0.00000000000E+00 0. -1.
         -1   -1    0    0    0  501 -0.00000000000E+00 -0.00000000000E+00 -0.38969588287E+02  0.38969588287E+02  0.00000000000E+00 0.  1.
         23    2    1    2    0    0 -0.15094102257E+02 -0.14124992797E+02  0.17538166544E+03  0.21636116463E+03  0.12500431050E+03 0.  0.
          5    1    3    3  502    0 -0.35830428943E+02  0.47713062328E+02  0.10024646213E+03  0.11675529592E+03  0.47000000000E+01 0.  1.
         -5    1    3    3    0  502  0.20736326686E+02 -0.61838055126E+02  0.75135203306E+02  0.99605868713E+02  0.47000000000E+01 0.  1.
        -11    1    1    2    0    0  0.33362980425E+01  0.34279008551E+02  0.75340676722E-01  0.34441065432E+02  0.00000000000E+00 0.  1.
         11    1    1    2    0    0  0.11757804215E+02 -0.20154015754E+02  0.10364524693E+03  0.10623919955E+03  0.00000000000E+00 0. -1.
<mgrwt>
<rscale>  0 0.11791437E+03</rscale>
<asrwt>0</asrwt>
<pdfrwt beam="1">  1        1 0.48934128E-01 0.12670211E+03</pdfrwt>
<pdfrwt beam="2">  1       -1 0.59953215E-02 0.12670211E+03</pdfrwt>
<totfact> 0.10237430E+04</totfact>
</mgrwt>
</event>
<event>
 7    1  0.5928109E-006  0.1338491E+03  0.7546771E-02  0.1234055E+00
          2   -1    0    0  501    0  0.00000000000E+00  0.00000000000E+00  0.14519797462E+04  0.14519797462E+04  0.00000000000E+00 0. -1.
         -2   -1    0    0    0  501 -0.00000000000E+00 -0.00000000000E+00 -0.13404134766E+02  0.13404134766E+02  0.00000000000E+00 0.  1.
         23    2    1    2    0    0 -0.40775577520E+02  0.25048388674E+02  0.11660376152E+04  0.11736947222E+04  0.12500204530E+03 0.  0.
          5    1    3    3  502    0 -0.26079261323E+02  0.74460119422E+02  0.57715698057E+03  0.58254330953E+03  0.47000000000E+01 0.  1.
         -5    1    3    3    0  502 -0.14696316197E+02 -0.49411730747E+02  0.58888063465E+03  0.59115141268E+03  0.47000000000E+01 0.  1.
        -11    1    1    2    0    0  0.13752736307E+01 -0.54541387607E+02  0.13480739170E+03  0.14542932028E+03  0.00000000000E+00 0. -1.
         11    1    1    2    0    0  0.39400303889E+02  0.29492998933E+02  0.13773060449E+03  0.14625983846E+03  0.00000000000E+00 0.  1.
<mgrwt>
<rscale>  0 0.12565151E+03</rscale>
<asrwt>0</asrwt>
<pdfrwt beam="1">  1        2 0.22338137E+00 0.13384910E+03</pdfrwt>
<pdfrwt beam="2">  1       -2 0.20621757E-02 0.13384910E+03</pdfrwt>
<totfact> 0.10411224E+04</totfact>
</mgrwt>
</event>
<event>
 7    1  0.5928109E-006  0.1636712E+03  0.7546771E-02  0.1193448E+00
          1   -1    0    0  501    0  0.00000000000E+00  0.00000000000E+00  0.10664532059E+03  0.10664532059E+03  0.00000000000E+00 0. -1.
         -1   -1    0    0    0  501 -0.00000000000E+00 -0.00000000000E+00 -0.21319924890E+03  0.21319924890E+03  0.00000000000E+00 0.  1.
         23    2    1    2    0    0 -0.33230287064E+02  0.10031427967E+03 -0.34875420124E+02  0.16734559089E+03  0.12498417971E+03 0.  0.
          5    1    3    3  502    0  0.37612575752E+02 -0.41846963003E+00  0.40059209213E+01  0.38118478117E+02  0.47000000000E+01 0.  1.
         -5    1    3    3    0  502 -0.70842862816E+02  0.10073274930E+03 -0.38881341045E+02  0.12922711277E+03  0.47000000000E+01 0.  1.
        -11    1    1    2    0    0 -0.11107862393E+02 -0.17293419106E+01 -0.37468012387E+02  0.39118118342E+02  0.00000000000E+00 0.  1.
         11    1    1    2    0    0  0.44338149457E+02 -0.98584937763E+02 -0.34210495796E+02  0.11338086026E+03  0.00000000000E+00 0. -1.
<mgrwt>
<rscale>  0 0.15586310E+03</rscale>
<asrwt>0</asrwt>
<pdfrwt beam="1">  1        1 0.16406973E-01 0.16367117E+03</pdfrwt>
<pdfrwt beam="2">  1       -1 0.32799884E-01 0.16367117E+03</pdfrwt>
<totfact> 0.28272816E+03</totfact>
</mgrwt>
</event>
<event>
 7    1  0.5928109E-006  0.1382482E+03  0.7546771E-02  0.1229049E+00
         -2   -1    0    0    0  501 -0.00000000000E+00  0.00000000000E+00  0.18696201121E+03  0.18696201121E+03  0.00000000000E+00 0.  1.
          2   -1    0    0  501    0  0.00000000000E+00 -0.00000000000E+00 -0.89289939447E+02  0.89289939447E+02  0.00000000000E+00 0. -1.
         23    2    1    2    0    0  0.39163417387E+02  0.44208499046E+02  0.79867022124E+01  0.13847872546E+03  0.12499762136E+03 0.  0.
          5    1    3    3  502    0  0.34851110499E+02  0.41290397464E+02 -0.53741832327E+02  0.76352939482E+02  0.47000000000E+01 0. -1.
         -5    1    3    3    0  502  0.43123068880E+01  0.29181015830E+01  0.61728534539E+02  0.62125785982E+02  0.47000000000E+01 0. -1.
        -11    1    1    2    0    0  0.22247379308E+02 -0.36248701641E+02  0.33176203595E+02  0.53940474059E+02  0.00000000000E+00 0.  1.
         11    1    1    2    0    0 -0.61410796694E+02 -0.79597974052E+01  0.56509165954E+02  0.83832751131E+02  0.00000000000E+00 0. -1.
<mgrwt>
<rscale>  0 0.12893234E+03</rscale>
<asrwt>0</asrwt>
<pdfrwt beam="2">  1        2 0.13736914E-01 0.13824822E+03</pdfrwt>
<pdfrwt beam="1">  1       -2 0.28763386E-01 0.13824822E+03</pdfrwt>
<totfact> 0.45699853E+03</totfact>
</mgrwt>
</event>
<event>
 7    1  0.5928109E-006  0.1833659E+03  0.7546771E-02  0.1169782E+00
         -3   -1    0    0    0  501 -0.00000000000E+00  0.00000000000E+00  0.45897055716E+02  0.45897055716E+02  0.00000000000E+00 0.  1.
          3   -1    0    0  501    0  0.00000000000E+00 -0.00000000000E+00 -0.65948653037E+03  0.65948653037E+03  0.00000000000E+00 0. -1.
         23    2    1    2    0    0 -0.12612826998E+03 -0.45707324151E+02 -0.36137748017E+03  0.40523664694E+03  0.12500222750E+03 0.  0.
          5    1    3    3  502    0 -0.66966817243E+02 -0.80789406009E+02 -0.15170586056E+03  0.18452165418E+03  0.47000000000E+01 0.  1.
         -5    1    3    3    0  502 -0.59161452740E+02  0.35082081858E+02 -0.20967161961E+03  0.22071499275E+03  0.47000000000E+01 0.  1.
        -11    1    1    2    0    0  0.72096882269E+02 -0.22063467080E+02 -0.10405650405E+03  0.12850102353E+03  0.00000000000E+00 0.  1.
         11    1    1    2    0    0  0.54031387713E+02  0.67770791231E+02 -0.14815549043E+03  0.17164591561E+03  0.00000000000E+00 0. -1.
<mgrwt>
<rscale>  0 0.17797055E+03</rscale>
<asrwt>0</asrwt>
<pdfrwt beam="2">  1        3 0.10145947E+00 0.18336591E+03</pdfrwt>
<pdfrwt beam="1">  1       -3 0.70610856E-02 0.18336591E+03</pdfrwt>
<totfact> 0.27754277E+02</totfact>
</mgrwt>
</event>
<event>
 7    1  0.5928109E-006  0.1499330E+03  0.7546771E-02  0.1209822E+00
         -2   -1    0    0    0  501 -0.00000000000E+00  0.00000000000E+00  0.14700229166E+03  0.14700229166E+03  0.00000000000E+00 0.  1.
          2   -1    0    0  501    0  0.00000000000E+00 -0.00000000000E+00 -0.17366503707E+03  0.17366503707E+03  0.00000000000E+00 0. -1.
         23    2    1    2    0    0 -0.82580554555E+02  0.52040375041E+01 -0.97537800197E+02  0.17886733388E+03  0.12503307828E+03 0.  0.
          5    1    3    3  502    0 -0.28917949961E+02 -0.37330458262E+02 -0.99463633799E+02  0.11020397176E+03  0.47000000000E+01 0.  1.
         -5    1    3    3    0  502 -0.53662604594E+02  0.42534495766E+02  0.19258336020E+01  0.68663362115E+02  0.47000000000E+01 0.  1.
        -11    1    1    2    0    0  0.38464098669E+02  0.40021813986E+02  0.51491491979E+02  0.75713976433E+02  0.00000000000E+00 0.  1.
         11    1    1    2    0    0  0.44116455886E+02 -0.45225851490E+02  0.19383562817E+02  0.66086018419E+02  0.00000000000E+00 0. -1.
<mgrwt>
<rscale>  0 0.14263869E+03</rscale>
<asrwt>0</asrwt>
<pdfrwt beam="2">  1        2 0.26717698E-01 0.14993299E+03</pdfrwt>
<pdfrwt beam="1">  1       -2 0.22615737E-01 0.14993299E+03</pdfrwt>
<totfact> 0.32805328E+03</totfact>
</mgrwt>
</event>
<event>
 6    1  0.5928109E-006  0.1964433E+03  0.7546771E-02  0.1165647E+00
          2   -1    0    0  501    0  0.00000000000E+00  0.00000000000E+00  0.11414468964E+04  0.11414468964E+04  0.00000000000E+00 0. -1.
         -2   -1    0    0    0  501 -0.00000000000E+00 -0.00000000000E+00 -0.37007623016E+02  0.37007623016E+02  0.00000000000E+00 0.  1.
          5    1    1    2  502    0  0.48892409206E+02 -0.67646094380E+02  0.87572187693E+03  0.87970299391E+03  0.47000000000E+01 0. -1.
         -5    1    1    2    0  502  0.46269648236E+02  0.36389474767E+01  0.57864168937E+02  0.74326807637E+02  0.47000000000E+01 0.  1.
        -11    1    1    2    0    0 -0.46790944686E+01 -0.17561726172E+02  0.53977657396E+01  0.18959009103E+02  0.00000000000E+00 0. -1.
         11    1    1    2    0    0 -0.90482962973E+02  0.81568873075E+02  0.16545546173E+03  0.20546570872E+03  0.00000000000E+00 0.  1.
<mgrwt>
<rscale>  0 0.18224575E+03</rscale>
<asrwt>0</asrwt>
<pdfrwt beam="1">  1        2 0.17560719E+00 0.19644327E+03</pdfrwt>
<pdfrwt beam="2">  1       -2 0.56934813E-02 0.19644327E+03</pdfrwt>
<totfact> 0.34435645E+03</totfact>
</mgrwt>
</event>
<event>
 7    1  0.5928109E-006  0.1272713E+03  0.7546771E-02  0.1246301E+00
          2   -1    0    0  501    0  0.00000000000E+00  0.00000000000E+00  0.99562527087E+03  0.99562527087E+03  0.00000000000E+00 0. -1.
         -2   -1    0    0    0  501 -0.00000000000E+00 -0.00000000000E+00 -0.12703621597E+02  0.12703621597E+02  0.00000000000E+00 0.  1.
         23    2    1    2    0    0  0.22563519536E+02  0.80374955357E+01  0.64830898811E+03  0.66068337803E+03  0.12499707270E+03 0.  0.
          5    1    3    3  502    0  0.44315172592E+02  0.16454059259E+02  0.89135429422E+02  0.10100388788E+03  0.47000000000E+01 0.  1.
         -5    1    3    3    0  502 -0.21751653056E+02 -0.84165637236E+01  0.55917355869E+03  0.55967949015E+03  0.47000000000E+01 0.  1.
        -11    1    1    2    0    0  0.47421585503E+01  0.38834280743E+02  0.11672683746E+03  0.12310866749E+03  0.00000000000E+00 0. -1.
         11    1    1    2    0    0 -0.27305678086E+02 -0.46871776279E+02  0.21788582370E+03  0.22453684695E+03  0.00000000000E+00 0.  1.
<mgrwt>
<rscale>  0 0.11807865E+03</rscale>
<asrwt>0</asrwt>
<pdfrwt beam="1">  1        2 0.15317306E+00 0.12727129E+03</pdfrwt>
<pdfrwt beam="2">  1       -2 0.19544041E-02 0.12727129E+03</pdfrwt>
<totfact> 0.20051054E+04</totfact>
</mgrwt>
</event>
<event>
 7    1  0.5928109E-006  0.1864937E+03  0.7546771E-02  0.1166725E+00
         -2   -1    0    0    0  501 -0.00000000000E+00  0.00000000000E+00  0.61294879191E+02  0.61294879191E+02  0.00000000000E+00 0.  1.
          2   -1    0    0  501    0  0.00000000000E+00 -0.00000000000E+00 -0.56359737042E+03  0.56359737042E+03  0.00000000000E+00 0. -1.
         23    2    1    2    0    0  0.13771671936E+03  0.13115615157E+02 -0.36363011983E+03  0.40866460550E+03  0.12506790792E+03 0.  0.
          5    1    3    3  502    0  0.78957383601E+02 -0.17369953509E+02 -0.31794535811E+03  0.32809651698E+03  0.47000000000E+01 0. -1.
         -5    1    3    3    0  502  0.58759335755E+02  0.30485568665E+02 -0.45684761723E+02  0.80568088527E+02  0.47000000000E+01 0. -1.
        -11    1    1    2    0    0 -0.10248195477E+03 -0.48274502463E+02 -0.11384326173E+03  0.16060282340E+03  0.00000000000E+00 0. -1.
         11    1    1    2    0    0 -0.35234764590E+02  0.35158887306E+02 -0.24829109665E+02  0.55624820711E+02  0.00000000000E+00 0.  1.
<mgrwt>
<rscale>  0 0.18111848E+03</rscale>
<asrwt>0</asrwt>
<pdfrwt beam="2">  1        2 0.86707290E-01 0.18649369E+03</pdfrwt>
<pdfrwt beam="1">  1       -2 0.94299812E-02 0.18649369E+03</pdfrwt>
<totfact> 0.38895182E+03</totfact>
</mgrwt>
</event>
<event>
 7    1  0.5928109E-006  0.1749452E+03  0.7546771E-02  0.1178727E+00
         -2   -1    0    0    0  501 -0.00000000000E+00  0.00000000000E+00  0.94639371173E+02  0.94639371173E+02  0.00000000000E+00 0. -1.
          2   -1    0    0  501    0  0.00000000000E+00 -0.00000000000E+00 -0.38497786275E+03  0.38497786275E+03  0.00000000000E+00 0.  1.
         23    2    1    2    0    0 -0.21053212167E+01 -0.12237672665E+03 -0.27499040100E+03  0.32592261117E+03  0.12500132889E+03 0.  0.
          5    1    3    3  502    0 -0.47443974851E+02 -0.11078241740E+03 -0.15062191724E+03  0.19295783661E+03  0.47000000000E+01 0. -1.
         -5    1    3    3    0  502  0.45338653635E+02 -0.11594309249E+02 -0.12436848377E+03  0.13296477456E+03  0.47000000000E+01 0. -1.
        -11    1    1    2    0    0  0.93775117377E+01  0.52478166299E+02  0.37997345252E+02  0.65465211453E+02  0.00000000000E+00 0. -1.
         11    1    1    2    0    0 -0.72721905210E+01  0.69898560355E+02 -0.53345435821E+02  0.88229411296E+02  0.00000000000E+00 0.  1.
<mgrwt>
<rscale>  0 0.16915979E+03</rscale>
<asrwt>0</asrwt>
<pdfrwt beam="2">  1        2 0.59227363E-01 0.17494521E+03</pdfrwt>
<pdfrwt beam="1">  1       -2 0.14559903E-01 0.17494521E+03</pdfrwt>
<totfact> 0.29391318E+03</totfact>
</mgrwt>
</event>
<event>
 7    1  0.5928109E-006  0.1293802E+03  0.7546771E-02  0.1242921E+00
         -1   -1    0    0    0  501 -0.00000000000E+00  0.00000000000E+00  0.48858647903E+02  0.48858647903E+02  0.00000000000E+00 0.  1.
          1   -1    0    0  501    0  0.00000000000E+00 -0.00000000000E+00 -0.27961397572E+03  0.27961397572E+03  0.00000000000E+00 0. -1.
         23    2    1    2    0    0  0.11440128096E+02  0.31359205366E+02 -0.17415584628E+03  0.21695507566E+03  0.12499987908E+03 0.  0.
          5    1    3    3  502    0 -0.50773851785E+02  0.50206658127E+01 -0.11917932219E+03  0.12972660462E+03  0.47000000000E+01 0.  1.
         -5    1    3    3    0  502  0.62213979882E+02  0.26338539553E+02 -0.54976524095E+02  0.87228471041E+02  0.47000000000E+01 0.  1.
        -11    1    1    2    0    0  0.15007408029E+02 -0.47909623444E+02 -0.40038127364E+01  0.50364519562E+02  0.00000000000E+00 0.  1.
         11    1    1    2    0    0 -0.26447536126E+02  0.16550418078E+02 -0.52595668805E+02  0.61153028402E+02  0.00000000000E+00 0. -1.
<mgrwt>
<rscale>  0 0.12010659E+03</rscale>
<asrwt>0</asrwt>
<pdfrwt beam="2">  1        1 0.43017534E-01 0.12938024E+03</pdfrwt>
<pdfrwt beam="1">  1       -1 0.75167152E-02 0.12938024E+03</pdfrwt>
<totfact> 0.85754192E+03</totfact>
</mgrwt>
</event>
<event>
 7    1  0.5928109E-006  0.2990526E+03  0.7546771E-02  0.1087311E+00
          2   -1    0    0  501    0  0.00000000000E+00  0.00000000000E+00  0.51877251242E+03  0.51877251242E+03  0.00000000000E+00 0. -1.
         -2   -1    0    0    0  501 -0.00000000000E+00 -0.00000000000E+00 -0.16591219548E+03  0.16591219548E+03  0.00000000000E+00 0.  1.
         23    2    1    2    0    0 -0.14938200785E+03 -0.22692076704E+03  0.20095772709E+03  0.36030050625E+03  0.12499771174E+03 0.  0.
          5    1    3    3  502    0 -0.10490870440E+03 -0.22887282536E+03  0.18615706950E+03  0.31315355814E+03  0.47000000000E+01 0.  1.
         -5    1    3    3    0  502 -0.44473303446E+02  0.19520583164E+01  0.14800657587E+02  0.47146948110E+02  0.47000000000E+01 0.  1.
        -11    1    1    2    0    0  0.16016621174E+03  0.20156515788E+03  0.14679181758E+03  0.29636053375E+03  0.00000000000E+00 0. -1.
         11    1    1    2    0    0 -0.10784203891E+02  0.25355609160E+02  0.51107722725E+01  0.28023667901E+02  0.00000000000E+00 0.  1.
<mgrwt>
<rscale>  0 0.29589463E+03</rscale>
<asrwt>0</asrwt>
<pdfrwt beam="1">  1        2 0.79811155E-01 0.29905258E+03</pdfrwt>
<pdfrwt beam="2">  1       -2 0.25524953E-01 0.29905258E+03</pdfrwt>
<totfact> 0.81999488E+02</totfact>
</mgrwt>
</event>
<event>
 7    1  0.5928109E-006  0.1287502E+03  0.7546771E-02  0.1244025E+00
         -2   -1    0    0    0  501 -0.00000000000E+00  0.00000000000E+00  0.62529625808E+02  0.62529625808E+02  0.00000000000E+00 0.  1.
          2   -1    0    0  501    0  0.00000000000E+00 -0.00000000000E+00 -0.20151166287E+03  0.20151166287E+03  0.00000000000E+00 0. -1.
         23    2    1    2    0    0 -0.27610205433E+02 -0.13803358664E+02 -0.87573779009E+02  0.15571054622E+03  0.12499500502E+03 0.  0.
          5    1    3    3  502    0  0.10394235586E+02  0.51424514979E+02 -0.29692869583E+02  0.60467159502E+02  0.47000000000E+01 0.  1.
         -5    1    3    3    0  502 -0.38004441018E+02 -0.65227873642E+02 -0.57880909426E+02  0.95243386716E+02  0.47000000000E+01 0.  1.
        -11    1    1    2    0    0  0.32345849473E+02 -0.18943636492E+02 -0.62968895541E+02  0.73281628989E+02  0.00000000000E+00 0. -1.
         11    1    1    2    0    0 -0.47356440402E+01  0.32746995156E+02  0.11560637485E+02  0.35049113474E+02  0.00000000000E+00 0.  1.
<mgrwt>
<rscale>  0 0.11943943E+03</rscale>
<asrwt>0</asrwt>
<pdfrwt beam="2">  1        2 0.31001794E-01 0.12875017E+03</pdfrwt>
<pdfrwt beam="1">  1       -2 0.96199425E-02 0.12875017E+03</pdfrwt>
<totfact> 0.11185376E+04</totfact>
</mgrwt>
</event>
<event>
 7    1  0.5928109E-006  0.1523930E+03  0.7546771E-02  0.1206340E+00
          2   -1    0    0  501    0  0.00000000000E+00  0.00000000000E+00  0.58393612386E+03  0.58393612386E+03  0.00000000000E+00 0.  1.
         -2   -1    0    0    0  501 -0.00000000000E+00 -0.00000000000E+00 -0.34030568192E+02  0.34030568192E+02  0.00000000000E+00 0. -1.
         23    2    1    2    0    0 -0.85039423714E+02 -0.19218938312E+02  0.34878965988E+03  0.38062825376E+03  0.12499027780E+03 0.  0.
          5    1    3    3  502    0  0.18349165849E+02 -0.37457646929E+02  0.15009795422E+03  0.15585651434E+03  0.47000000000E+01 0.  1.
         -5    1    3    3    0  502 -0.10338858956E+03  0.18238708618E+02  0.19869170567E+03  0.22477173943E+03  0.47000000000E+01 0.  1.
        -11    1    1    2    0    0  0.59033347112E+01  0.31659248929E+02  0.11628118671E+03  0.12065849239E+03  0.00000000000E+00 0.  1.
         11    1    1    2    0    0  0.79136089003E+02 -0.12440310618E+02  0.84834709071E+02  0.11667994590E+03  0.00000000000E+00 0. -1.
<mgrwt>
<rscale>  0 0.14532381E+03</rscale>
<asrwt>0</asrwt>
<pdfrwt beam="1">  1        2 0.89836319E-01 0.15239305E+03</pdfrwt>
<pdfrwt beam="2">  1       -2 0.52354725E-02 0.15239305E+03</pdfrwt>
<totfact> 0.91552589E+03</totfact>
</mgrwt>
</event>
<event>
 7    1  0.5928109E-006  0.1320171E+03  0.7546771E-02  0.1237574E+00
         -2   -1    0    0    0  501 -0.00000000000E+00  0.00000000000E+00  0.24999372992E+02  0.24999372992E+02  0.00000000000E+00 0. -1.
          2   -1    0    0  501    0  0.00000000000E+00 -0.00000000000E+00 -0.54662178814E+03  0.54662178814E+03  0.00000000000E+00 0.  1.
         23    2    1    2    0    0  0.33480621322E+02 -0.26123673825E+02 -0.32119274166E+03  0.34726543543E+03  0.12500042805E+03 0.  0.
          5    1    3    3  502    0 -0.49575600650E+01  0.14086057727E+02 -0.27319590812E+03  0.27364409118E+03  0.47000000000E+01 0. -1.
         -5    1    3    3    0  502  0.38438181387E+02 -0.40209731553E+02 -0.47996833539E+02  0.73621344253E+02  0.47000000000E+01 0. -1.
        -11    1    1    2    0    0 -0.63511354982E+02  0.13597358236E+02 -0.15842635862E+03  0.17122351319E+03  0.00000000000E+00 0.  1.
         11    1    1    2    0    0  0.30030733660E+02  0.12526315589E+02 -0.42003314873E+02  0.53132212515E+02  0.00000000000E+00 0. -1.
<mgrwt>
<rscale>  0 0.12341065E+03</rscale>
<asrwt>0</asrwt>
<pdfrwt beam="2">  1        2 0.84095658E-01 0.13201706E+03</pdfrwt>
<pdfrwt beam="1">  1       -2 0.38460575E-02 0.13201706E+03</pdfrwt>
<totfact> 0.15483439E+04</totfact>
</mgrwt>
</event>
<event>
 7    1  0.5928109E-006  0.1440969E+03  0.7546771E-02  0.1216487E+00
          1   -1    0    0  501    0  0.00000000000E+00  0.00000000000E+00  0.44883284501E+03  0.44883284501E+03  0.00000000000E+00 0. -1.
         -1   -1    0    0    0  501 -0.00000000000E+00 -0.00000000000E+00 -0.46267962933E+02  0.46267962933E+02  0.00000000000E+00 0.  1.
         23    2    1    2    0    0 -0.68760358028E+02 -0.20266273478E+02  0.31525934153E+03  0.34663001383E+03  0.12500082154E+03 0.  0.
          5    1    3    3  502    0 -0.86070669174E+02  0.13638549075E+02  0.12442960485E+03  0.15198350791E+03  0.47000000000E+01 0. -1.
         -5    1    3    3    0  502  0.17310311146E+02 -0.33904822552E+02  0.19082973668E+03  0.19464650592E+03  0.47000000000E+01 0. -1.
        -11    1    1    2    0    0  0.19140392780E+02  0.23873671949E+02 -0.15469594896E+02  0.34287245651E+02  0.00000000000E+00 0.  1.
         11    1    1    2    0    0  0.49619965248E+02 -0.36073984715E+01  0.10277513544E+03  0.11418354846E+03  0.00000000000E+00 0. -1.
<mgrwt>
<rscale>  0 0.13767864E+03</rscale>
<asrwt>0</asrwt>
<pdfrwt beam="1">  1        1 0.69051204E-01 0.14409689E+03</pdfrwt>
<pdfrwt beam="2">  1       -1 0.71181485E-02 0.14409689E+03</pdfrwt>
<totfact> 0.51824565E+03</totfact>
</mgrwt>
</event>
<event>
 7    1  0.5928109E-006  0.2737179E+03  0.7546771E-02  0.1101159E+00
         -1   -1    0    0    0  501 -0.00000000000E+00  0.00000000000E+00  0.82978495488E+03  0.82978495488E+03  0.00000000000E+00 0.  1.
          1   -1    0    0  501    0  0.00000000000E+00 -0.00000000000E+00 -0.93415840829E+02  0.93415840829E+02  0.00000000000E+00 0. -1.
         23    2    1    2    0    0  0.17939119981E+03  0.16467096591E+03  0.24520957027E+03  0.36749046903E+03  0.12499512749E+03 0.  0.
          5    1    3    3  502    0  0.18338319799E+03  0.10047451231E+03  0.18388296089E+03  0.27849516735E+03  0.47000000000E+01 0. -1.
         -5    1    3    3    0  502 -0.39919981820E+01  0.64196453602E+02  0.61326609376E+02  0.88995301686E+02  0.47000000000E+01 0. -1.
        -11    1    1    2    0    0 -0.18252189874E+03 -0.15172910179E+03  0.48699935751E+03  0.54176040651E+03  0.00000000000E+00 0.  1.
         11    1    1    2    0    0  0.31306989284E+01 -0.12941864118E+02  0.41601862741E+01  0.13949920160E+02  0.00000000000E+00 0. -1.
<mgrwt>
<rscale>  0 0.27021019E+03</rscale>
<asrwt>0</asrwt>
<pdfrwt beam="2">  1        1 0.14371668E-01 0.27371794E+03</pdfrwt>
<pdfrwt beam="1">  1       -1 0.12765922E+00 0.27371794E+03</pdfrwt>
<totfact> 0.22513130E+02</totfact>
</mgrwt>
</event>
<event>
 7    1  0.5928109E-006  0.1359268E+03  0.7546771E-02  0.1232353E+00
         -1   -1    0    0    0  501 -0.00000000000E+00  0.00000000000E+00  0.40477558324E+03  0.40477558324E+03  0.00000000000E+00 0.  1.
          1   -1    0    0  501    0  0.00000000000E+00 -0.00000000000E+00 -0.53513064153E+02  0.53513064153E+02  0.00000000000E+00 0. -1.
         23    2    1    2    0    0  0.48206942189E+02  0.22957269759E+02  0.58452633334E+02  0.14796219723E+03  0.12500062382E+03 0.  0.
          5    1    3    3  502    0  0.33280302025E+02  0.73707714971E+02  0.23371462106E+02  0.84313231406E+02  0.47000000000E+01 0. -1.
         -5    1    3    3    0  502  0.14926640164E+02 -0.50750445213E+02  0.35081171228E+02  0.63648965826E+02  0.47000000000E+01 0. -1.
        -11    1    1    2    0    0  0.52652628818E+01 -0.44378664335E+02  0.14314668504E+03  0.14996053574E+03  0.00000000000E+00 0.  1.
         11    1    1    2    0    0 -0.53472205071E+02  0.21421394576E+02  0.14966320071E+03  0.16036591442E+03  0.00000000000E+00 0. -1.
<mgrwt>
<rscale>  0 0.12675407E+03</rscale>
<asrwt>0</asrwt>
<pdfrwt beam="2">  1        1 0.82327794E-02 0.13592682E+03</pdfrwt>
<pdfrwt beam="1">  1       -1 0.62273165E-01 0.13592682E+03</pdfrwt>
<totfact> 0.21928032E+03</totfact>
</mgrwt>
</event>
<event>
 7    1  0.5928109E-006  0.1194372E+03  0.7546771E-02  0.1257946E+00
          1   -1    0    0  501    0  0.00000000000E+00  0.00000000000E+00  0.12344461610E+04  0.12344461610E+04  0.00000000000E+00 0. -1.
         -1   -1    0    0    0  501 -0.00000000000E+00 -0.00000000000E+00 -0.25606585475E+02  0.25606585475E+02  0.00000000000E+00 0.  1.
         23    2    1    2    0    0  0.82698914490E+01  0.44130579404E+01  0.11403050124E+04  0.11465429592E+04  0.11906876091E+03 0.  0.
          5    1    3    3  502    0  0.59950504274E+02  0.22759420196E+02  0.63749244029E+03  0.64072674020E+03  0.47000000000E+01 0. -1.
         -5    1    3    3    0  502 -0.51680612825E+02 -0.18346362256E+02  0.50281257206E+03  0.50581621897E+03  0.47000000000E+01 0.  1.
        -11    1    1    2    0    0  0.26030479129E+02  0.20165484106E+02 -0.11543375455E+00  0.32927889666E+02  0.00000000000E+00 0. -1.
         11    1    1    2    0    0 -0.34300370578E+02 -0.24578542047E+02  0.68649996966E+02  0.80581897684E+02  0.00000000000E+00 0.  1.
<mgrwt>
<rscale>  0 0.11142905E+03</rscale>
<asrwt>0</asrwt>
<pdfrwt beam="1">  1        1 0.18991475E+00 0.11943716E+03</pdfrwt>
<pdfrwt beam="2">  1       -1 0.39394757E-02 0.11943716E+03</pdfrwt>
<totfact> 0.26922665E+03</totfact>
</mgrwt>
</event>
<event>
 7    1  0.5928109E-006  0.1531338E+03  0.7546771E-02  0.1205641E+00
         -1   -1    0    0    0  501 -0.00000000000E+00  0.00000000000E+00  0.12209398927E+03  0.12209398927E+03  0.00000000000E+00 0.  1.
          1   -1    0    0  501    0  0.00000000000E+00 -0.00000000000E+00 -0.19432409419E+03  0.19432409419E+03  0.00000000000E+00 0. -1.
         23    2    1    2    0    0  0.20221560183E+02 -0.86126606784E+02 -0.10557359381E+03  0.18599928455E+03  0.12499298481E+03 0.  0.
          5    1    3    3  502    0  0.57907804423E+02 -0.85869470630E+02 -0.10564561690E+03  0.14802015461E+03  0.47000000000E+01 0.  1.
         -5    1    3    3    0  502 -0.37686244240E+02 -0.25713615392E+00  0.72023089790E-01  0.37979129943E+02  0.47000000000E+01 0.  1.
        -11    1    1    2    0    0 -0.20047415002E+02  0.45079019097E+02 -0.27910072730E+02  0.56683233595E+02  0.00000000000E+00 0. -1.
         11    1    1    2    0    0 -0.17414518104E+00  0.41047587687E+02  0.61253561625E+02  0.73735565321E+02  0.00000000000E+00 0.  1.
<mgrwt>
<rscale>  0 0.14587086E+03</rscale>
<asrwt>0</asrwt>
<pdfrwt beam="2">  1        1 0.29896014E-01 0.15313377E+03</pdfrwt>
<pdfrwt beam="1">  1       -1 0.18783691E-01 0.15313377E+03</pdfrwt>
<totfact> 0.33006992E+03</totfact>
</mgrwt>
</event>
<event>
 6    1  0.5928109E-006  0.1332525E+03  0.7546771E-02  0.1288472E+00
         -1   -1    0    0    0  501 -0.00000000000E+00  0.00000000000E+00  0.29188148851E+02  0.29188148851E+02  0.00000000000E+00 0.  1.
          1   -1    0    0  501    0  0.00000000000E+00 -0.00000000000E+00 -0.24611791297E+03  0.24611791297E+03  0.00000000000E+00 0. -1.
          5    1    1    2  502    0  0.61009702131E+02 -0.22670336092E+01 -0.10244755392E+03  0.11935206115E+03  0.47000000000E+01 0. -1.
         -5    1    1    2    0  502 -0.59473195198E+02  0.34366176958E+02 -0.65412450172E+02  0.94968277352E+02  0.47000000000E+01 0.  1.
        -11    1    1    2    0    0  0.40314227165E+01 -0.18770513924E+02 -0.38711825026E+02  0.43210993496E+02  0.00000000000E+00 0. -1.
         11    1    1    2    0    0 -0.55679296496E+01 -0.13328629424E+02 -0.10357935003E+02  0.17774729827E+02  0.00000000000E+00 0.  1.
<mgrwt>
<rscale>  0 0.96210863E+02</rscale>
<asrwt>0</asrwt>
<pdfrwt beam="2">  1        1 0.37864296E-01 0.13325249E+03</pdfrwt>
<pdfrwt beam="1">  1       -1 0.44904843E-02 0.13325249E+03</pdfrwt>
<totfact> 0.21648415E+04</totfact>
</mgrwt>
</event>
<event>
 7    1  0.5928109E-006  0.1477373E+03  0.7546771E-02  0.1213848E+00
         -1   -1    0    0    0  501 -0.00000000000E+00  0.00000000000E+00  0.25202032126E+03  0.25202032126E+03  0.00000000000E+00 0.  1.
          1   -1    0    0  501    0  0.00000000000E+00 -0.00000000000E+00 -0.81072694909E+02  0.81072694909E+02  0.00000000000E+00 0. -1.
         23    2    1    2    0    0 -0.20623762900E+01  0.78720859694E+02  0.32459046555E+02  0.15126104326E+03  0.12500034543E+03 0.  0.
          5    1    3    3  502    0  0.57574494142E+02  0.14339703022E+02  0.18110071651E+02  0.62213456371E+02  0.47000000000E+01 0. -1.
         -5    1    3    3    0  502 -0.59636870432E+02  0.64381156672E+02  0.14348974905E+02  0.89047586886E+02  0.47000000000E+01 0. -1.
        -11    1    1    2    0    0 -0.10479406687E+02 -0.98172020767E+01 -0.10106357078E+02  0.17559438332E+02  0.00000000000E+00 0. -1.
         11    1    1    2    0    0  0.12541782978E+02 -0.68903657618E+02  0.14859493688E+03  0.16427253458E+03  0.00000000000E+00 0.  1.
<mgrwt>
<rscale>  0 0.13961469E+03</rscale>
<asrwt>0</asrwt>
<pdfrwt beam="2">  1        1 0.12472722E-01 0.14773731E+03</pdfrwt>
<pdfrwt beam="1">  1       -1 0.38772357E-01 0.14773731E+03</pdfrwt>
<totfact> 0.30126433E+03</totfact>
</mgrwt>
</event>
<event>
 7    1  0.5928109E-006  0.1852096E+03  0.7546771E-02  0.1167949E+00
          1   -1    0    0  501    0  0.00000000000E+00  0.00000000000E+00  0.25312769997E+04  0.25312769997E+04  0.00000000000E+00 0. -1.
         -1   -1    0    0    0  501 -0.00000000000E+00 -0.00000000000E+00 -0.14107120788E+02  0.14107120788E+02  0.00000000000E+00 0.  1.
         23    2    1    2    0    0  0.10962665431E+03 -0.81620525087E+02  0.18022901883E+04  0.18117815844E+04  0.12499069313E+03 0.  0.
          5    1    3    3  502    0  0.72270621187E+02  0.12620815649E+02  0.10657942323E+04  0.10683266183E+04  0.47000000000E+01 0.  1.
         -5    1    3    3    0  502  0.37356033126E+02 -0.94241340736E+02  0.73649595596E+03  0.74345496612E+03  0.47000000000E+01 0.  1.
        -11    1    1    2    0    0 -0.23133789089E+01  0.41160483208E+02  0.10079037689E+03  0.10889553331E+03  0.00000000000E+00 0.  1.
         11    1    1    2    0    0 -0.10731327540E+03  0.40460041879E+02  0.61408931371E+03  0.62470700275E+03  0.00000000000E+00 0. -1.
<mgrwt>
<rscale>  0 0.17984907E+03</rscale>
<asrwt>0</asrwt>
<pdfrwt beam="1">  1        1 0.38942687E+00 0.18520958E+03</pdfrwt>
<pdfrwt beam="2">  1       -1 0.21703283E-02 0.18520958E+03</pdfrwt>
<totfact> 0.92910046E+02</totfact>
</mgrwt>
</event>
<event>
 7    1  0.5928109E-006  0.4207120E+03  0.7546771E-02  0.1037530E+00
          2   -1    0    0  501    0  0.00000000000E+00  0.00000000000E+00  0.17641368911E+03  0.17641368911E+03  0.00000000000E+00 0. -1.
         -2   -1    0    0    0  501 -0.00000000000E+00 -0.00000000000E+00 -0.11383631550E+04  0.11383631550E+04  0.00000000000E+00 0.  1.
         23    2    1    2    0    0 -0.40153707799E+03  0.11807878235E+02 -0.24251357114E+03  0.48560416242E+03  0.12500847726E+03 0.  0.
          5    1    3    3  502    0 -0.35779114992E+03 -0.29946425559E+02 -0.21875465137E+03  0.42046044149E+03  0.47000000000E+01 0. -1.
         -5    1    3    3    0  502 -0.43745928070E+02  0.41754303794E+02 -0.23758919770E+02  0.65143720930E+02  0.47000000000E+01 0. -1.
        -11    1    1    2    0    0  0.57674217278E+02  0.30184268834E+02 -0.13262305474E+03  0.14773719935E+03  0.00000000000E+00 0. -1.
         11    1    1    2    0    0  0.34386286071E+03 -0.41992147069E+02 -0.58681284004E+03  0.68143548236E+03  0.00000000000E+00 0.  1.
<mgrwt>
<rscale>  0 0.41857703E+03</rscale>
<asrwt>0</asrwt>
<pdfrwt beam="1">  1        2 0.27140568E-01 0.42071198E+03</pdfrwt>
<pdfrwt beam="2">  1       -2 0.17513279E+00 0.42071198E+03</pdfrwt>
<totfact> 0.40646818E+01</totfact>
</mgrwt>
</event>
<event>
 7    1  0.5928109E-006  0.1291989E+03  0.7546771E-02  0.1244678E+00
         -1   -1    0    0    0  501 -0.00000000000E+00  0.00000000000E+00  0.63142547309E+02  0.63142547309E+02  0.00000000000E+00 0.  1.
          1   -1    0    0  501    0  0.00000000000E+00 -0.00000000000E+00 -0.22931265005E+03  0.22931265005E+03  0.00000000000E+00 0. -1.
         23    2    1    2    0    0  0.81514454850E+01  0.31644828123E+02 -0.14993235518E+03  0.19791932167E+03  0.12499802219E+03 0.  0.
          5    1    3    3  502    0  0.17781883418E+02  0.77067419287E+02 -0.11487588594E+03  0.13954978203E+03  0.47000000000E+01 0. -1.
         -5    1    3    3    0  502 -0.96304379333E+01 -0.45422591165E+02 -0.35056469237E+02  0.58369539644E+02  0.47000000000E+01 0. -1.
        -11    1    1    2    0    0 -0.16323475018E+02 -0.15841176066E+02 -0.50801747260E+02  0.55661622511E+02  0.00000000000E+00 0. -1.
         11    1    1    2    0    0  0.81720295328E+01 -0.15803652057E+02  0.34563999696E+02  0.38874253176E+02  0.00000000000E+00 0.  1.
<mgrwt>
<rscale>  0 0.11904674E+03</rscale>
<asrwt>0</asrwt>
<pdfrwt beam="2">  1        1 0.35278870E-01 0.12919887E+03</pdfrwt>
<pdfrwt beam="1">  1       -1 0.97142378E-02 0.12919887E+03</pdfrwt>
<totfact> 0.74330759E+03</totfact>
</mgrwt>
</event>
<event>
 7    1  0.5928109E-006  0.1628237E+03  0.7546771E-02  0.1192871E+00
          1   -1    0    0  501    0  0.00000000000E+00  0.00000000000E+00  0.58400403137E+03  0.58400403137E+03  0.00000000000E+00 0. -1.
         -1   -1    0    0    0  501 -0.00000000000E+00 -0.00000000000E+00 -0.73838754658E+02  0.73838754658E+02  0.00000000000E+00 0.  1.
         23    2    1    2    0    0 -0.60871694751E+02  0.84728565529E+02  0.49194312269E+03  0.51818874712E+03  0.12500899425E+03 0.  0.
          5    1    3    3  502    0  0.11989219573E+02  0.84314424143E+02  0.20356728182E+03  0.22071337008E+03  0.47000000000E+01 0. -1.
         -5    1    3    3    0  502 -0.72860914324E+02  0.41414138589E+00  0.28837584087E+03  0.29747537704E+03  0.47000000000E+01 0. -1.
        -11    1    1    2    0    0  0.73384119009E+02 -0.25177192217E+02  0.88829122387E+01  0.78089858884E+02  0.00000000000E+00 0.  1.
         11    1    1    2    0    0 -0.12512424258E+02 -0.59551373312E+02  0.93392417794E+01  0.61564180017E+02  0.00000000000E+00 0. -1.
<mgrwt>
<rscale>  0 0.15635771E+03</rscale>
<asrwt>0</asrwt>
<pdfrwt beam="1">  1        1 0.89846771E-01 0.16282365E+03</pdfrwt>
<pdfrwt beam="2">  1       -1 0.11359809E-01 0.16282365E+03</pdfrwt>
<totfact> 0.18061093E+03</totfact>
</mgrwt>
</event>
<event>
 6    1  0.5928109E-006  0.1569993E+03  0.7546771E-02  0.1207632E+00
         -2   -1    0    0    0  501 -0.00000000000E+00  0.00000000000E+00  0.76476178991E+02  0.76476178991E+02  0.00000000000E+00 0.  1.
          2   -1    0    0  501    0  0.00000000000E+00 -0.00000000000E+00 -0.17260503680E+04  0.17260503680E+04  0.00000000000E+00 0. -1.
          5    1    1    2  502    0  0.13442696869E+02  0.39216283998E+02 -0.93924443548E+03  0.94017063484E+03  0.47000000000E+01 0. -1.
         -5    1    1    2    0  502 -0.72324200897E+02 -0.65235808366E+02 -0.73999791508E+03  0.74639500605E+03  0.47000000000E+01 0.  1.
        -11    1    1    2    0    0 -0.84672196728E+00 -0.28087041815E+02  0.20639528297E+02  0.34865297709E+02  0.00000000000E+00 0.  1.
         11    1    1    2    0    0  0.59728225995E+02  0.54106566183E+02  0.90286332449E+01  0.81095608407E+02  0.00000000000E+00 0. -1.
<mgrwt>
<rscale>  0 0.14431987E+03</rscale>
<asrwt>0</asrwt>
<pdfrwt beam="2">  1        2 0.26554621E+00 0.15699933E+03</pdfrwt>
<pdfrwt beam="1">  1       -2 0.11765566E-01 0.15699933E+03</pdfrwt>
<totfact> 0.54129634E+02</totfact>
</mgrwt>
</event>
<event>
 7    1  0.5928109E-006  0.1395172E+03  0.7546771E-02  0.1218552E+00
          1   -1    0    0  501    0  0.00000000000E+00  0.00000000000E+00  0.26580530955E+03  0.26580530955E+03  0.00000000000E+00 0. -1.
         -1   -1    0    0    0  501 -0.00000000000E+00 -0.00000000000E+00 -0.66651364851E+02  0.66651364851E+02  0.00000000000E+00 0.  1.
         23    2    1    2    0    0 -0.72555795548E+02  0.40923072319E+02  0.10629842647E+03  0.17539786345E+03  0.11191967529E+03 0.  0.
          5    1    3    3  502    0 -0.53080841500E+02  0.73573915024E+02  0.10240618205E+03  0.13689343603E+03  0.47000000000E+01 0. -1.
         -5    1    3    3    0  502 -0.19474954048E+02 -0.32650842705E+02  0.38922444217E+01  0.38504427423E+02  0.47000000000E+01 0.  1.
        -11    1    1    2    0    0  0.73157525402E+02 -0.62581893078E+02  0.95040206113E+02  0.13528177129E+03  0.00000000000E+00 0.  1.
         11    1    1    2    0    0 -0.60172985468E+00  0.21658820759E+02 -0.21846878802E+01  0.21777039666E+02  0.00000000000E+00 0. -1.
<mgrwt>
<rscale>  0 0.13618818E+03</rscale>
<asrwt>0</asrwt>
<pdfrwt beam="1">  1        1 0.40893124E-01 0.13951722E+03</pdfrwt>
<pdfrwt beam="2">  1       -1 0.10254056E-01 0.13951722E+03</pdfrwt>
<totfact> 0.57310650E+03</totfact>
</mgrwt>
</event>
<event>
 7    1  0.5928109E-006  0.1669330E+03  0.7546771E-02  0.1188373E+00
         -1   -1    0    0    0  501 -0.00000000000E+00  0.00000000000E+00  0.90989195740E+02  0.90989195740E+02  0.00000000000E+00 0.  1.
          1   -1    0    0  501    0  0.00000000000E+00 -0.00000000000E+00 -0.26805092593E+03  0.26805092593E+03  0.00000000000E+00 0. -1.
         23    2    1    2    0    0 -0.47004258322E+02  0.10016148918E+03 -0.68778424228E+02  0.18054668900E+03  0.12499964421E+03 0.  0.
          5    1    3    3  502    0 -0.78075078159E+02  0.10320499134E+03 -0.73064253580E+02  0.14868578687E+03  0.47000000000E+01 0.  1.
         -5    1    3    3    0  502  0.31070819837E+02 -0.30435021585E+01  0.42858293515E+01  0.31860902121E+02  0.47000000000E+01 0.  1.
        -11    1    1    2    0    0  0.18766368441E+02 -0.14546623480E+02  0.13236779039E+02  0.27184428602E+02  0.00000000000E+00 0.  1.
         11    1    1    2    0    0  0.28237889881E+02 -0.85614865704E+02 -0.12152008500E+03  0.15130900407E+03  0.00000000000E+00 0. -1.
<mgrwt>
<rscale>  0 0.16028750E+03</rscale>
<asrwt>0</asrwt>
<pdfrwt beam="2">  1        1 0.41238604E-01 0.16693303E+03</pdfrwt>
<pdfrwt beam="1">  1       -1 0.13998338E-01 0.16693303E+03</pdfrwt>
<totfact> 0.35369954E+03</totfact>
</mgrwt>
</event>
<event>
 7    1  0.5928109E-006  0.1372825E+03  0.7546771E-02  0.1228701E+00
          1   -1    0    0  501    0  0.00000000000E+00  0.00000000000E+00  0.35043708619E+03  0.35043708619E+03  0.00000000000E+00 0. -1.
         -1   -1    0    0    0  501 -0.00000000000E+00 -0.00000000000E+00 -0.49462451687E+02  0.49462451687E+02  0.00000000000E+00 0.  1.
         23    2    1    2    0    0 -0.39608678649E+02  0.40652079453E+02  0.23933962447E+03  0.27591656574E+03  0.12500022569E+03 0.  0.
          5    1    3    3  502    0  0.48095480342E+01  0.75670094182E+02  0.17076561711E+03  0.18690125974E+03  0.47000000000E+01 0. -1.
         -5    1    3    3    0  502 -0.44418226683E+02 -0.35018014729E+02  0.68574007359E+02  0.89015306002E+02  0.47000000000E+01 0. -1.
        -11    1    1    2    0    0 -0.87645581853E+01 -0.35859887221E+02 -0.92265983350E+01  0.38051006669E+02  0.00000000000E+00 0.  1.
         11    1    1    2    0    0  0.48373236834E+02 -0.47921922317E+01  0.70861608373E+02  0.85931965469E+02  0.00000000000E+00 0. -1.
<mgrwt>
<rscale>  0 0.12916408E+03</rscale>
<asrwt>0</asrwt>
<pdfrwt beam="1">  1        1 0.53913396E-01 0.13728254E+03</pdfrwt>
<pdfrwt beam="2">  1       -1 0.76096082E-02 0.13728254E+03</pdfrwt>
<totfact> 0.63888320E+03</totfact>
</mgrwt>
</event>
<event>
 7    1  0.5928109E-006  0.1329663E+03  0.7546771E-02  0.1235924E+00
         -2   -1    0    0    0  501 -0.00000000000E+00  0.00000000000E+00  0.25468992586E+03  0.25468992586E+03  0.00000000000E+00 0.  1.
          2   -1    0    0  501    0  0.00000000000E+00 -0.00000000000E+00 -0.55744156490E+02  0.55744156490E+02  0.00000000000E+00 0. -1.
         23    2    1    2    0    0  0.35369009632E+02 -0.28355755270E+02  0.86720560157E+02  0.15874661347E+03  0.12500006415E+03 0.  0.
          5    1    3    3  502    0  0.24556210159E+02 -0.77218603311E+02  0.41620747999E+02  0.91214564729E+02  0.47000000000E+01 0. -1.
         -5    1    3    3    0  502  0.10812799473E+02  0.48862848041E+02  0.45099812158E+02  0.67532048746E+02  0.47000000000E+01 0. -1.
        -11    1    1    2    0    0 -0.11470128568E+02 -0.30454186172E+02  0.64580110458E+02  0.72316056112E+02  0.00000000000E+00 0. -1.
         11    1    1    2    0    0 -0.23898881064E+02  0.58809941442E+02  0.47645098752E+02  0.79371412760E+02  0.00000000000E+00 0.  1.
<mgrwt>
<rscale>  0 0.12445473E+03</rscale>
<asrwt>0</asrwt>
<pdfrwt beam="2">  1        2 0.85760243E-02 0.13296628E+03</pdfrwt>
<pdfrwt beam="1">  1       -2 0.39183065E-01 0.13296628E+03</pdfrwt>
<totfact> 0.45845468E+03</totfact>
</mgrwt>
</event>
<event>
 7    1  0.5928109E-006  0.1755239E+03  0.7546771E-02  0.1178125E+00
          2   -1    0    0  501    0  0.00000000000E+00  0.00000000000E+00  0.73917597620E+03  0.73917597620E+03  0.00000000000E+00 0.  1.
         -2   -1    0    0    0  501 -0.00000000000E+00 -0.00000000000E+00 -0.49799368089E+02  0.49799368089E+02  0.00000000000E+00 0. -1.
         23    2    1    2    0    0 -0.12049313932E+03  0.25819484709E+02  0.56433144178E+03  0.59099797496E+03  0.12499355107E+03 0.  0.
          5    1    3    3  502    0  0.22398607761E+01  0.36796365557E+02  0.25984853958E+03  0.26249255802E+03  0.47000000000E+01 0.  1.
         -5    1    3    3    0  502 -0.12273300009E+03 -0.10976880848E+02  0.30448290220E+03  0.32850541694E+03  0.47000000000E+01 0.  1.
        -11    1    1    2    0    0  0.92573688576E+02 -0.52270671035E+02  0.11808911104E+03  0.15889351470E+03  0.00000000000E+00 0.  1.
         11    1    1    2    0    0  0.27919450739E+02  0.26451186326E+02  0.69560552872E+01  0.39083854631E+02  0.00000000000E+00 0. -1.
<mgrwt>
<rscale>  0 0.16973491E+03</rscale>
<asrwt>0</asrwt>
<pdfrwt beam="1">  1        2 0.11371937E+00 0.17552387E+03</pdfrwt>
<pdfrwt beam="2">  1       -2 0.76614418E-02 0.17552387E+03</pdfrwt>
<totfact> 0.39039037E+03</totfact>
</mgrwt>
</event>
<event>
 7    1  0.5928109E-006  0.1256136E+03  0.7546771E-02  0.1251012E+00
         -1   -1    0    0    0  501 -0.00000000000E+00  0.00000000000E+00  0.14601800795E+03  0.14601800795E+03  0.00000000000E+00 0.  1.
          1   -1    0    0  501    0  0.00000000000E+00 -0.00000000000E+00 -0.79736507276E+02  0.79736507276E+02  0.00000000000E+00 0. -1.
         23    2    1    2    0    0  0.48127039733E+01 -0.11609099680E+02  0.49078440411E+02  0.13486088799E+03  0.12498332882E+03 0.  0.
          5    1    3    3  502    0  0.35664502463E+02  0.46223488794E+02  0.13401642623E+02  0.60085453125E+02  0.47000000000E+01 0.  1.
         -5    1    3    3    0  502 -0.30851798489E+02 -0.57832588474E+02  0.35676797788E+02  0.74775434870E+02  0.47000000000E+01 0.  1.
        -11    1    1    2    0    0  0.18678770585E+02 -0.33357938268E+02  0.10998986965E+02  0.39782235110E+02  0.00000000000E+00 0.  1.
         11    1    1    2    0    0 -0.23491474558E+02  0.44967037949E+02  0.62040732928E+01  0.51111392118E+02  0.00000000000E+00 0. -1.
<mgrwt>
<rscale>  0 0.11532685E+03</rscale>
<asrwt>0</asrwt>
<pdfrwt beam="2">  1        1 0.12267155E-01 0.12561356E+03</pdfrwt>
<pdfrwt beam="1">  1       -1 0.22464309E-01 0.12561356E+03</pdfrwt>
<totfact> 0.76175949E+03</totfact>
</mgrwt>
</event>
<event>
 7    1  0.5928109E-006  0.1524159E+03  0.7546771E-02  0.1205244E+00
         -2   -1    0    0    0  501 -0.00000000000E+00  0.00000000000E+00  0.24935789771E+02  0.24935789771E+02  0.00000000000E+00 0.  1.
          2   -1    0    0  501    0  0.00000000000E+00 -0.00000000000E+00 -0.11282397445E+04  0.11282397445E+04  0.00000000000E+00 0. -1.
         23    2    1    2    0    0 -0.48032121719E+02  0.72788980346E+02 -0.89714125233E+03  0.90999616735E+03  0.12500111033E+03 0.  0.
          5    1    3    3  502    0 -0.51152005758E+02 -0.22444829624E+02 -0.38271807931E+03  0.38680164982E+03  0.47000000000E+01 0.  1.
         -5    1    3    3    0  502  0.31198840388E+01  0.95233809970E+02 -0.51442317302E+03  0.52319451753E+03  0.47000000000E+01 0.  1.
        -11    1    1    2    0    0  0.66100342716E+02 -0.24075279123E+02 -0.78834743102E+02  0.10565884294E+03  0.00000000000E+00 0.  1.
         11    1    1    2    0    0 -0.18068220997E+02 -0.48713701222E+02 -0.12732795931E+03  0.13752052400E+03  0.00000000000E+00 0. -1.
<mgrwt>
<rscale>  0 0.14618218E+03</rscale>
<asrwt>0</asrwt>
<pdfrwt beam="2">  1        2 0.17357532E+00 0.15241587E+03</pdfrwt>
<pdfrwt beam="1">  1       -2 0.38362759E-02 0.15241587E+03</pdfrwt>
<totfact> 0.63050365E+03</totfact>
</mgrwt>
</event>
<event>
 7    1  0.5928109E-006  0.1443245E+03  0.7546771E-02  0.1217486E+00
          2   -1    0    0  501    0  0.00000000000E+00  0.00000000000E+00  0.39669406929E+03  0.39669406929E+03  0.00000000000E+00 0. -1.
         -2   -1    0    0    0  501 -0.00000000000E+00 -0.00000000000E+00 -0.55858271729E+02  0.55858271729E+02  0.00000000000E+00 0.  1.
         23    2    1    2    0    0 -0.14017065611E+01  0.72117248263E+02  0.29204742064E+03  0.32576259822E+03  0.12500684869E+03 0.  0.
          5    1    3    3  502    0 -0.58150192402E+02  0.64239562704E+02  0.18033646004E+03  0.20012869638E+03  0.47000000000E+01 0. -1.
         -5    1    3    3    0  502  0.56748485841E+02  0.78776855588E+01  0.11171096059E+03  0.12563390184E+03  0.47000000000E+01 0. -1.
        -11    1    1    2    0    0 -0.26933316386E+02  0.10707304541E+02  0.71420691084E+01  0.29850612275E+02  0.00000000000E+00 0.  1.
         11    1    1    2    0    0  0.28335022947E+02 -0.82824552804E+02  0.41646307816E+02  0.96939130527E+02  0.00000000000E+00 0. -1.
<mgrwt>
<rscale>  0 0.13695463E+03</rscale>
<asrwt>0</asrwt>
<pdfrwt beam="1">  1        2 0.61029855E-01 0.14432455E+03</pdfrwt>
<pdfrwt beam="2">  1       -2 0.85935805E-02 0.14432455E+03</pdfrwt>
<totfact> 0.65338400E+03</totfact>
</mgrwt>
</event>
<event>
 7    1  0.5928109E-006  0.2151045E+03  0.7546771E-02  0.1141242E+00
          1   -1    0    0  501    0  0.00000000000E+00  0.00000000000E+00  0.14047092616E+03  0.14047092616E+03  0.00000000000E+00 0. -1.
         -1   -1    0    0    0  501 -0.00000000000E+00 -0.00000000000E+00 -0.30331837516E+03  0.30331837516E+03  0.00000000000E+00 0.  1.
         23    2    1    2    0    0  0.86527936257E+02 -0.15217874699E+03 -0.71235590729E+02  0.22659315611E+03  0.12499797687E+03 0.  0.
          5    1    3    3  502    0  0.10570226111E+03 -0.14194861691E+03 -0.88979445462E+02  0.19814592996E+03  0.47000000000E+01 0.  1.
         -5    1    3    3    0  502 -0.19174324849E+02 -0.10230130084E+02  0.17743854733E+02  0.28447226152E+02  0.47000000000E+01 0.  1.
        -11    1    1    2    0    0 -0.80567447844E+02  0.10367455060E+03 -0.23530367873E+02  0.13339117027E+03  0.00000000000E+00 0.  1.
         11    1    1    2    0    0 -0.59604884126E+01  0.48504196396E+02 -0.68081490391E+02  0.83804974936E+02  0.00000000000E+00 0. -1.
<mgrwt>
<rscale>  0 0.21040939E+03</rscale>
<asrwt>0</asrwt>
<pdfrwt beam="1">  1        1 0.21610912E-01 0.21510451E+03</pdfrwt>
<pdfrwt beam="2">  1       -1 0.46664365E-01 0.21510451E+03</pdfrwt>
<totfact> 0.10743696E+03</totfact>
</mgrwt>
</event>
<event>
 7    1  0.5928109E-006  0.1588861E+03  0.7546771E-02  0.1198745E+00
          2   -1    0    0  501    0  0.00000000000E+00  0.00000000000E+00  0.61008312600E+03  0.61008312600E+03  0.00000000000E+00 0. -1.
         -2   -1    0    0    0  501 -0.00000000000E+00 -0.00000000000E+00 -0.34683513962E+02  0.34683513962E+02  0.00000000000E+00 0.  1.
         23    2    1    2    0    0  0.84133801291E+02  0.50387105395E+02  0.34171340123E+03  0.37684591589E+03  0.12500975497E+03 0.  0.
          5    1    3    3  502    0  0.84875958395E+02  0.18856159507E+02  0.98158094299E+02  0.13121198322E+03  0.47000000000E+01 0.  1.
         -5    1    3    3    0  502 -0.74215710421E+00  0.31530945888E+02  0.24355530693E+03  0.24563393267E+03  0.47000000000E+01 0.  1.
        -11    1    1    2    0    0 -0.59489185980E+02 -0.60873556258E+02  0.98826003579E+02  0.13042673071E+03  0.00000000000E+00 0.  1.
         11    1    1    2    0    0 -0.24644615310E+02  0.10486450863E+02  0.13486020723E+03  0.13749399336E+03  0.00000000000E+00 0. -1.
<mgrwt>
<rscale>  0 0.15141465E+03</rscale>
<asrwt>0</asrwt>
<pdfrwt beam="1">  1        2 0.93858934E-01 0.15888611E+03</pdfrwt>
<pdfrwt beam="2">  1       -2 0.53359257E-02 0.15888611E+03</pdfrwt>
<totfact> 0.84832153E+03</totfact>
</mgrwt>
</event>
<event>
 7    1  0.5928109E-006  0.1541757E+03  0.7546771E-02  0.1203935E+00
         -1   -1    0    0    0  501 -0.00000000000E+00  0.00000000000E+00  0.75062799965E+02  0.75062799965E+02  0.00000000000E+00 0.  1.
          1   -1    0    0  501    0  0.00000000000E+00 -0.00000000000E+00 -0.30461661020E+03  0.30461661020E+03  0.00000000000E+00 0. -1.
         23    2    1    2    0    0  0.85746312248E+02  0.28222334966E+02 -0.19176136561E+03  0.24605399609E+03  0.12498486868E+03 0.  0.
          5    1    3    3  502    0 -0.30257548491E+02  0.21492007704E+02 -0.55235353168E+02  0.66711767143E+02  0.47000000000E+01 0.  1.
         -5    1    3    3    0  502  0.11600386074E+03  0.67303272614E+01 -0.13652601244E+03  0.17934222895E+03  0.47000000000E+01 0.  1.
        -11    1    1    2    0    0 -0.54670082360E+02  0.24528703451E+02  0.31000101464E+01  0.60000710506E+02  0.00000000000E+00 0.  1.
         11    1    1    2    0    0 -0.31076229887E+02 -0.52751038417E+02 -0.40892454771E+02  0.73624703566E+02  0.00000000000E+00 0. -1.
<mgrwt>
<rscale>  0 0.14721712E+03</rscale>
<asrwt>0</asrwt>
<pdfrwt beam="2">  1        1 0.46864093E-01 0.15417570E+03</pdfrwt>
<pdfrwt beam="1">  1       -1 0.11548123E-01 0.15417570E+03</pdfrwt>
<totfact> 0.40546466E+03</totfact>
</mgrwt>
</event>
<event>
 7    1  0.5928109E-006  0.1309851E+03  0.7546771E-02  0.1239591E+00
         -1   -1    0    0    0  501 -0.00000000000E+00  0.00000000000E+00  0.49120418709E+02  0.49120418709E+02  0.00000000000E+00 0.  1.
          1   -1    0    0  501    0  0.00000000000E+00 -0.00000000000E+00 -0.27137752026E+03  0.27137752026E+03  0.00000000000E+00 0. -1.
         23    2    1    2    0    0  0.34274196352E+02 -0.18884472461E+02 -0.14014306767E+03  0.19182587853E+03  0.12500297765E+03 0.  0.
          5    1    3    3  502    0  0.67028874445E+02  0.18417032898E+02 -0.40975520678E+02  0.80827844242E+02  0.47000000000E+01 0.  1.
         -5    1    3    3    0  502 -0.32754678093E+02 -0.37301505358E+02 -0.99167546997E+02  0.11099803429E+03  0.47000000000E+01 0.  1.
        -11    1    1    2    0    0  0.23379636868E+02  0.30008059391E+02 -0.19188329974E+02  0.42606138709E+02  0.00000000000E+00 0.  1.
         11    1    1    2    0    0 -0.57653833220E+02 -0.11123586931E+02 -0.62925703903E+02  0.86065921728E+02  0.00000000000E+00 0. -1.
<mgrwt>
<rscale>  0 0.12215069E+03</rscale>
<asrwt>0</asrwt>
<pdfrwt beam="2">  1        1 0.41750387E-01 0.13098507E+03</pdfrwt>
<pdfrwt beam="1">  1       -1 0.75569875E-02 0.13098507E+03</pdfrwt>
<totfact> 0.88347060E+03</totfact>
</mgrwt>
</event>
<event>
 7    1  0.5928109E-006  0.2114732E+03  0.7546771E-02  0.1144237E+00
          1   -1    0    0  501    0  0.00000000000E+00  0.00000000000E+00  0.19125588919E+03  0.19125588919E+03  0.00000000000E+00 0. -1.
         -1   -1    0    0    0  501 -0.00000000000E+00 -0.00000000000E+00 -0.31658904645E+03  0.31658904645E+03  0.00000000000E+00 0.  1.
         23    2    1    2    0    0 -0.59807584165E+02  0.15974747892E+03  0.80030899723E+02  0.22611027470E+03  0.12499882907E+03 0.  0.
          5    1    3    3  502    0  0.18179279653E+02  0.29972342731E+02  0.64857211794E+02  0.73874051325E+02  0.47000000000E+01 0. -1.
         -5    1    3    3    0  502 -0.77986863818E+02  0.12977513619E+03  0.15173687929E+02  0.15223622337E+03  0.47000000000E+01 0. -1.
        -11    1    1    2    0    0  0.36685876217E+02 -0.65044834578E+02 -0.28783822644E+02  0.80032446327E+02  0.00000000000E+00 0. -1.
         11    1    1    2    0    0  0.23121707947E+02 -0.94702644345E+02 -0.17658023434E+03  0.20170221462E+03  0.00000000000E+00 0.  1.
<mgrwt>
<rscale>  0 0.20666141E+03</rscale>
<asrwt>0</asrwt>
<pdfrwt beam="1">  1        1 0.29423983E-01 0.21147319E+03</pdfrwt>
<pdfrwt beam="2">  1       -1 0.48706006E-01 0.21147319E+03</pdfrwt>
<totfact> 0.67103514E+02</totfact>
</mgrwt>
</event>
<event>
 7    1  0.5928109E-006  0.1385784E+03  0.7546771E-02  0.1227597E+00
          3   -1    0    0  501    0  0.00000000000E+00  0.00000000000E+00  0.86253416654E+02  0.86253416654E+02  0.00000000000E+00 0. -1.
         -3   -1    0    0    0  501 -0.00000000000E+00 -0.00000000000E+00 -0.17583446252E+03  0.17583446252E+03  0.00000000000E+00 0.  1.
         23    2    1    2    0    0  0.70901578540E+01  0.59410457115E+02 -0.40609705989E+02  0.14440605885E+03  0.12499635539E+03 0.  0.
          5    1    3    3  502    0 -0.71097134796E+01  0.44468379978E+02 -0.84400585109E+02  0.95778565506E+02  0.47000000000E+01 0. -1.
         -5    1    3    3    0  502  0.14199871334E+02  0.14942077137E+02  0.43790879120E+02  0.48627493346E+02  0.47000000000E+01 0. -1.
        -11    1    1    2    0    0 -0.20021684148E+02 -0.14602941324E+02 -0.64043243312E+02  0.68670595930E+02  0.00000000000E+00 0.  1.
         11    1    1    2    0    0  0.12931526294E+02 -0.44807515791E+02  0.15071903432E+02  0.49011224395E+02  0.00000000000E+00 0. -1.
<mgrwt>
<rscale>  0 0.12990508E+03</rscale>
<asrwt>0</asrwt>
<pdfrwt beam="1">  1        3 0.13269757E-01 0.13857836E+03</pdfrwt>
<pdfrwt beam="2">  1       -3 0.27051456E-01 0.13857836E+03</pdfrwt>
<totfact> 0.13743785E+03</totfact>
</mgrwt>
</event>
<event>
 7    1  0.5928109E-006  0.1301849E+03  0.7546771E-02  0.1241137E+00
         -2   -1    0    0    0  501 -0.00000000000E+00  0.00000000000E+00  0.28374721951E+03  0.28374721951E+03  0.00000000000E+00 0.  1.
          2   -1    0    0  501    0  0.00000000000E+00 -0.00000000000E+00 -0.53154882541E+02  0.53154882541E+02  0.00000000000E+00 0. -1.
         23    2    1    2    0    0 -0.31226891841E+02 -0.18674053820E+02  0.67254173340E+02  0.14653062515E+03  0.12499704483E+03 0.  0.
          5    1    3    3  502    0  0.39485908583E+01  0.50416553911E+02  0.15146877385E+02  0.52999416718E+02  0.47000000000E+01 0. -1.
         -5    1    3    3    0  502 -0.35175482700E+02 -0.69090607731E+02  0.52107295956E+02  0.93531208436E+02  0.47000000000E+01 0. -1.
        -11    1    1    2    0    0  0.38084577268E+02 -0.83197441917E+01  0.15705448630E+03  0.16182016202E+03  0.00000000000E+00 0.  1.
         11    1    1    2    0    0 -0.68576854263E+01  0.26993798012E+02  0.62836773296E+01  0.28551314878E+02  0.00000000000E+00 0. -1.
<mgrwt>
<rscale>  0 0.12119610E+03</rscale>
<asrwt>0</asrwt>
<pdfrwt beam="2">  1        2 0.81776744E-02 0.13018487E+03</pdfrwt>
<pdfrwt beam="1">  1       -2 0.43653417E-01 0.13018487E+03</pdfrwt>
<totfact> 0.39548214E+03</totfact>
</mgrwt>
</event>
<event>
 7    1  0.5928109E-006  0.2290016E+03  0.7546771E-02  0.1131024E+00
          2   -1    0    0  501    0  0.00000000000E+00  0.00000000000E+00  0.11520727796E+04  0.11520727796E+04  0.00000000000E+00 0.  1.
         -2   -1    0    0    0  501 -0.00000000000E+00 -0.00000000000E+00 -0.45358697042E+02  0.45358697042E+02  0.00000000000E+00 0. -1.
         23    2    1    2    0    0 -0.19003799990E+03  0.26477801872E+02  0.74702200748E+03  0.78133450299E+03  0.12500484190E+03 0.  0.
          5    1    3    3  502    0 -0.74954502830E+02  0.71839871065E+02  0.38242824680E+03  0.39629862290E+03  0.47000000000E+01 0.  1.
         -5    1    3    3    0  502 -0.11508349707E+03 -0.45362069192E+02  0.36459376069E+03  0.38503588008E+03  0.47000000000E+01 0.  1.
        -11    1    1    2    0    0  0.17933229298E+03 -0.43260492979E+00  0.29051018767E+03  0.34140361391E+03  0.00000000000E+00 0. -1.
         11    1    1    2    0    0  0.10705706920E+02 -0.26045196943E+02  0.69181887396E+02  0.74693359733E+02  0.00000000000E+00 0.  1.
<mgrwt>
<rscale>  0 0.22387800E+03</rscale>
<asrwt>0</asrwt>
<pdfrwt beam="1">  1        2 0.17724194E+00 0.22900158E+03</pdfrwt>
<pdfrwt beam="2">  1       -2 0.69782620E-02 0.22900158E+03</pdfrwt>
<totfact> 0.24885990E+03</totfact>
</mgrwt>
</event>
<event>
 6    1  0.5928109E-006  0.2735041E+03  0.7546771E-02  0.1133139E+00
          1   -1    0    0  501    0  0.00000000000E+00  0.00000000000E+00  0.13363585865E+03  0.13363585865E+03  0.00000000000E+00 0. -1.
         -1   -1    0    0    0  501 -0.00000000000E+00 -0.00000000000E+00 -0.28587958934E+03  0.28587958934E+03  0.00000000000E+00 0.  1.
          5    1    1    2  502    0  0.92043817339E+01 -0.10609646434E+03 -0.59399750596E+02  0.12203114668E+03  0.47000000000E+01 0. -1.
         -5    1    1    2    0  502 -0.63627996524E+02  0.15309503963E+03 -0.59622348896E+02  0.17624848251E+03  0.47000000000E+01 0.  1.
        -11    1    1    2    0    0 -0.16327492589E+02  0.12079439079E+02 -0.19298810645E+02  0.28016851269E+02  0.00000000000E+00 0.  1.
         11    1    1    2    0    0  0.70751107379E+02 -0.59078014367E+02 -0.13922820553E+02  0.93218967539E+02  0.00000000000E+00 0. -1.
<mgrwt>
<rscale>  0 0.22100039E+03</rscale>
<asrwt>0</asrwt>
<pdfrwt beam="1">  1        1 0.20559363E-01 0.27350407E+03</pdfrwt>
<pdfrwt beam="2">  1       -1 0.43981475E-01 0.27350407E+03</pdfrwt>
<totfact> 0.12808461E+03</totfact>
</mgrwt>
</event>
<event>
 7    1  0.7146239E-006  0.2566617E+03  0.7546771E-02  0.1111507E+00
          1   -1    0    0  501    0  0.00000000000E+00  0.00000000000E+00  0.15625707266E+03  0.15625707266E+03  0.00000000000E+00 0. -1.
         -1   -1    0    0    0  501 -0.00000000000E+00 -0.00000000000E+00 -0.46798511592E+03  0.46798511592E+03  0.00000000000E+00 0.  1.
         23    2    1    2    0    0  0.58302078940E+02 -0.21645112216E+03 -0.38759662533E+02  0.25957181856E+03  0.12499998742E+03 0.  0.
          5    1    3    3  502    0 -0.21091577274E+00 -0.17584972625E+03  0.47577305985E+01  0.17597697778E+03  0.47000000000E+01 0.  1.
         -5    1    3    3    0  502  0.58512994713E+02 -0.40601395916E+02 -0.43517393132E+02  0.83594840783E+02  0.47000000000E+01 0.  1.
        -11    1    1    2    0    0 -0.82696379990E+02  0.15966245525E+03 -0.20946035537E+03  0.27605150127E+03  0.00000000000E+00 0. -1.
         11    1    1    2    0    0  0.24394301050E+02  0.56788666913E+02 -0.63508025358E+02  0.88618868749E+02  0.00000000000E+00 0.  1.
<mgrwt>
<rscale>  0 0.25286572E+03</rscale>
<asrwt>0</asrwt>
<pdfrwt beam="1">  1        1 0.24039550E-01 0.25666168E+03</pdfrwt>
<pdfrwt beam="2">  1       -1 0.71997709E-01 0.25666168E+03</pdfrwt>
<totfact> 0.40932408E+02</totfact>
</mgrwt>
</event>
<event>
 7    1  0.5928109E-006  0.3793697E+03  0.7546771E-02  0.1052066E+00
          1   -1    0    0  501    0  0.00000000000E+00  0.00000000000E+00  0.39784002440E+03  0.39784002440E+03  0.00000000000E+00 0. -1.
         -1   -1    0    0    0  501 -0.00000000000E+00 -0.00000000000E+00 -0.45862381251E+03  0.45862381251E+03  0.00000000000E+00 0.  1.
         23    2    1    2    0    0  0.15974212532E+03  0.32059091051E+03  0.17511409343E+03  0.41783529485E+03  0.12500123759E+03 0.  0.
          5    1    3    3  502    0  0.63905678555E+02  0.25148890410E+03  0.10223158828E+03  0.27893367003E+03  0.47000000000E+01 0.  1.
         -5    1    3    3    0  502  0.95836446767E+02  0.69102006413E+02  0.72882505156E+02  0.13890162482E+03  0.47000000000E+01 0.  1.
        -11    1    1    2    0    0 -0.57732172982E+02 -0.18394974906E+03 -0.16572513285E+03  0.25423480020E+03  0.00000000000E+00 0.  1.
         11    1    1    2    0    0 -0.10200995234E+03 -0.13664116145E+03 -0.70172748703E+02  0.18439374187E+03  0.00000000000E+00 0. -1.
<mgrwt>
<rscale>  0 0.37695265E+03</rscale>
<asrwt>0</asrwt>
<pdfrwt beam="1">  1        1 0.61206158E-01 0.37936972E+03</pdfrwt>
<pdfrwt beam="2">  1       -1 0.70557509E-01 0.37936972E+03</pdfrwt>
<totfact> 0.12833847E+02</totfact>
</mgrwt>
</event>
<event>
 7    1  0.5928109E-006  0.2527684E+03  0.7546771E-02  0.1113949E+00
          1   -1    0    0  501    0  0.00000000000E+00  0.00000000000E+00  0.21444643191E+03  0.21444643191E+03  0.00000000000E+00 0. -1.
         -1   -1    0    0    0  501 -0.00000000000E+00 -0.00000000000E+00 -0.28672467021E+03  0.28672467021E+03  0.00000000000E+00 0.  1.
         23    2    1    2    0    0  0.16562164430E+03 -0.14435537480E+03 -0.10267051805E+01  0.25277047907E+03  0.12499143039E+03 0.  0.
          5    1    3    3  502    0  0.14259850969E+03 -0.51284088785E+02  0.24168651571E+02  0.15352721728E+03  0.47000000000E+01 0.  1.
         -5    1    3    3    0  502  0.23023134612E+02 -0.93071286019E+02 -0.25195356751E+02  0.99243261788E+02  0.47000000000E+01 0.  1.
        -11    1    1    2    0    0 -0.11756325461E+03  0.14070826678E+03 -0.78879067237E+02  0.19960421444E+03  0.00000000000E+00 0.  1.
         11    1    1    2    0    0 -0.48058389689E+02  0.36471080213E+01  0.76275341189E+01  0.48796408609E+02  0.00000000000E+00 0. -1.
<mgrwt>
<rscale>  0 0.24898269E+03</rscale>
<asrwt>0</asrwt>
<pdfrwt beam="1">  1        1 0.32991759E-01 0.25276839E+03</pdfrwt>
<pdfrwt beam="2">  1       -1 0.44111488E-01 0.25276839E+03</pdfrwt>
<totfact> 0.69612822E+02</totfact>
</mgrwt>
</event>
<event>
 7    1  0.5928109E-006  0.1425516E+03  0.7546771E-02  0.1222190E+00
          2   -1    0    0  501    0  0.00000000000E+00  0.00000000000E+00  0.26920831797E+03  0.26920831797E+03  0.00000000000E+00 0. -1.
         -2   -1    0    0    0  501 -0.00000000000E+00 -0.00000000000E+00 -0.62956235881E+02  0.62956235881E+02  0.00000000000E+00 0.  1.
         23    2    1    2    0    0 -0.65255560115E+02 -0.20923864297E+02  0.15564550956E+03  0.21106039187E+03  0.12499947259E+03 0.  0.
          5    1    3    3  502    0  0.31116235220E+02 -0.27425670091E+02  0.25486618263E+02  0.48908538975E+02  0.47000000000E+01 0.  1.
         -5    1    3    3    0  502 -0.96371795334E+02  0.65018057945E+01  0.13015889130E+03  0.16215185290E+03  0.47000000000E+01 0.  1.
        -11    1    1    2    0    0  0.85090336779E+02  0.88063391393E+01  0.32012270058E+02  0.91338395303E+02  0.00000000000E+00 0.  1.
         11    1    1    2    0    0 -0.19834776665E+02  0.12117525157E+02  0.18594302465E+02  0.29765766670E+02  0.00000000000E+00 0. -1.
<mgrwt>
<rscale>  0 0.13361357E+03</rscale>
<asrwt>0</asrwt>
<pdfrwt beam="1">  1        2 0.41416664E-01 0.14255162E+03</pdfrwt>
<pdfrwt beam="2">  1       -2 0.96855749E-02 0.14255162E+03</pdfrwt>
<totfact> 0.81802934E+03</totfact>
</mgrwt>
</event>
<event>
 7    1  0.5928109E-006  0.1255248E+03  0.7546771E-02  0.1248197E+00
         -2   -1    0    0    0  501 -0.00000000000E+00  0.00000000000E+00  0.43534489713E+02  0.43534489713E+02  0.00000000000E+00 0.  1.
          2   -1    0    0  501    0  0.00000000000E+00 -0.00000000000E+00 -0.57251401425E+03  0.57251401425E+03  0.00000000000E+00 0. -1.
         23    2    1    2    0    0  0.11201601002E+02 -0.23198362263E+01 -0.50229186610E+03  0.51773893192E+03  0.12500250146E+03 0.  0.
          5    1    3    3  502    0  0.27708100776E+01  0.12822312516E+02 -0.49934782657E+03  0.49954222142E+03  0.47000000000E+01 0. -1.
         -5    1    3    3    0  502  0.84307909240E+01 -0.15142148743E+02 -0.29440395304E+01  0.18196710497E+02  0.47000000000E+01 0. -1.
        -11    1    1    2    0    0 -0.33909266819E+02  0.28201363594E+02 -0.41747628458E+02  0.60729068547E+02  0.00000000000E+00 0. -1.
         11    1    1    2    0    0  0.22707665818E+02 -0.25881527368E+02  0.15059970021E+02  0.37580503493E+02  0.00000000000E+00 0.  1.
<mgrwt>
<rscale>  0 0.11696085E+03</rscale>
<asrwt>0</asrwt>
<pdfrwt beam="2">  1        2 0.88079080E-01 0.12552483E+03</pdfrwt>
<pdfrwt beam="1">  1       -2 0.66976138E-02 0.12552483E+03</pdfrwt>
<totfact> 0.63709268E+03</totfact>
</mgrwt>
</event>
<event>
 7    1  0.5928109E-006  0.1212581E+03  0.7546771E-02  0.1256213E+00
          1   -1    0    0  501    0  0.00000000000E+00  0.00000000000E+00  0.14202336446E+04  0.14202336446E+04  0.00000000000E+00 0. -1.
         -1   -1    0    0    0  501 -0.00000000000E+00 -0.00000000000E+00 -0.11701952243E+02  0.11701952243E+02  0.00000000000E+00 0.  1.
         23    2    1    2    0    0 -0.17461027899E+02  0.31484717278E+02  0.11845744285E+04  0.11907645051E+04  0.11579013344E+03 0.  0.
          5    1    3    3  502    0 -0.35061221211E+02  0.68901931150E+02  0.65656400997E+03  0.66111659678E+03  0.47000000000E+01 0. -1.
         -5    1    3    3    0  502  0.17600193312E+02 -0.37417213872E+02  0.52801041851E+03  0.52964790828E+03  0.47000000000E+01 0.  1.
        -11    1    1    2    0    0 -0.31235186675E+02 -0.48018642664E+00  0.91324960446E+02  0.96520028316E+02  0.00000000000E+00 0. -1.
         11    1    1    2    0    0  0.48696214574E+02 -0.31004530851E+02  0.13263230345E+03  0.14465106348E+03  0.00000000000E+00 0.  1.
<mgrwt>
<rscale>  0 0.11238656E+03</rscale>
<asrwt>0</asrwt>
<pdfrwt beam="1">  1        1 0.21849735E+00 0.12125811E+03</pdfrwt>
<pdfrwt beam="2">  1       -1 0.18003015E-02 0.12125811E+03</pdfrwt>
<totfact> 0.63044245E+03</totfact>
</mgrwt>
</event>
<event>
 7    1  0.5928109E-006  0.1327596E+03  0.7546771E-02  0.1235767E+00
          1   -1    0    0  501    0  0.00000000000E+00  0.00000000000E+00  0.56621142321E+02  0.56621142321E+02  0.00000000000E+00 0. -1.
         -1   -1    0    0    0  501 -0.00000000000E+00 -0.00000000000E+00 -0.24711029824E+03  0.24711029824E+03  0.00000000000E+00 0.  1.
         23    2    1    2    0    0 -0.37584788448E+02  0.24235572098E+02 -0.12074695401E+03  0.17945732585E+03  0.12500050249E+03 0.  0.
          5    1    3    3  502    0 -0.15854539121E+02  0.55165942051E+02 -0.12829187693E+03  0.14062554270E+03  0.47000000000E+01 0.  1.
         -5    1    3    3    0  502 -0.21730249327E+02 -0.30930369953E+02  0.75449229176E+01  0.38831783156E+02  0.47000000000E+01 0.  1.
        -11    1    1    2    0    0  0.25171546174E+02 -0.35915726402E+02  0.80894280648E+01  0.44598037918E+02  0.00000000000E+00 0. -1.
         11    1    1    2    0    0  0.12413242274E+02  0.11680154303E+02 -0.77831629974E+02  0.79676076791E+02  0.00000000000E+00 0.  1.
<mgrwt>
<rscale>  0 0.12455481E+03</rscale>
<asrwt>0</asrwt>
<pdfrwt beam="1">  1        1 0.87109449E-02 0.13275958E+03</pdfrwt>
<pdfrwt beam="2">  1       -1 0.38016969E-01 0.13275958E+03</pdfrwt>
<totfact> 0.49834192E+03</totfact>
</mgrwt>
</event>
<event>
 7    1  0.5928109E-006  0.1125606E+03  0.7546771E-02  0.1265989E+00
          2   -1    0    0  501    0  0.00000000000E+00  0.00000000000E+00  0.22634424631E+03  0.22634424631E+03  0.00000000000E+00 0. -1.
         -2   -1    0    0    0  501 -0.00000000000E+00 -0.00000000000E+00 -0.96391523630E+02  0.96391523630E+02  0.00000000000E+00 0.  1.
         23    2    1    2    0    0  0.14251269319E+02  0.69587636440E+01  0.18403031174E+03  0.21572444530E+03  0.11143768480E+03 0.  0.
          5    1    3    3  502    0  0.43632350290E+01  0.21361273916E+02  0.19385756589E+03  0.19513633105E+03  0.47000000000E+01 0. -1.
         -5    1    3    3    0  502  0.98880342899E+01 -0.14402510272E+02 -0.98272541514E+01  0.20588114251E+02  0.47000000000E+01 0.  1.
        -11    1    1    2    0    0 -0.52823449016E+02  0.12304044277E+01 -0.33055225886E+02  0.62325585592E+02  0.00000000000E+00 0.  1.
         11    1    1    2    0    0  0.38572179697E+02 -0.81891680717E+01 -0.21022363176E+02  0.44685739043E+02  0.00000000000E+00 0. -1.
<mgrwt>
<rscale>  0 0.10712466E+03</rscale>
<asrwt>0</asrwt>
<pdfrwt beam="1">  1        2 0.34822192E-01 0.11256056E+03</pdfrwt>
<pdfrwt beam="2">  1       -2 0.14829465E-01 0.11256056E+03</pdfrwt>
<totfact> 0.49092435E+03</totfact>
</mgrwt>
</event>
<event>
 7    1  0.5928109E-006  0.1316705E+03  0.7546771E-02  0.1238080E+00
          1   -1    0    0  501    0  0.00000000000E+00  0.00000000000E+00  0.48283219234E+03  0.48283219234E+03  0.00000000000E+00 0. -1.
         -1   -1    0    0    0  501 -0.00000000000E+00 -0.00000000000E+00 -0.29696067020E+02  0.29696067020E+02  0.00000000000E+00 0.  1.
         23    2    1    2    0    0  0.41314402278E+02 -0.24302637384E+01  0.31712384296E+03  0.34337245228E+03  0.12499729275E+03 0.  0.
          5    1    3    3  502    0  0.85913368836E+02 -0.79752638099E+01  0.20277209383E+03  0.22041625125E+03  0.47000000000E+01 0.  1.
         -5    1    3    3    0  502 -0.44598966558E+02  0.55450000715E+01  0.11435174913E+03  0.12295620103E+03  0.47000000000E+01 0.  1.
        -11    1    1    2    0    0 -0.29645719253E+02 -0.23927728300E+02  0.13504316441E+03  0.14031415148E+03  0.00000000000E+00 0. -1.
         11    1    1    2    0    0 -0.11668683025E+02  0.26357992039E+02  0.96911794693E+00  0.28841655595E+02  0.00000000000E+00 0.  1.
<mgrwt>
<rscale>  0 0.12309304E+03</rscale>
<asrwt>0</asrwt>
<pdfrwt beam="1">  1        1 0.74281870E-01 0.13167046E+03</pdfrwt>
<pdfrwt beam="2">  1       -1 0.45686261E-02 0.13167046E+03</pdfrwt>
<totfact> 0.90738168E+03</totfact>
</mgrwt>
</event>
<event>
 7    1  0.5928109E-006  0.1327730E+03  0.7546771E-02  0.1234681E+00
          2   -1    0    0  501    0  0.00000000000E+00  0.00000000000E+00  0.12973038710E+04  0.12973038710E+04  0.00000000000E+00 0. -1.
         -2   -1    0    0    0  501 -0.00000000000E+00 -0.00000000000E+00 -0.14797130819E+02  0.14797130819E+02  0.00000000000E+00 0.  1.
         23    2    1    2    0    0 -0.41467095652E+02 -0.16846027919E+02  0.10308335005E+04  0.10393490110E+04  0.12500140885E+03 0.  0.
          5    1    3    3  502    0 -0.79487293974E+01 -0.18635507231E+02  0.23246907084E+02  0.31192517016E+02  0.47000000000E+01 0. -1.
         -5    1    3    3    0  502 -0.33518366254E+02  0.17894793116E+01  0.10075865934E+04  0.10081564940E+04  0.47000000000E+01 0. -1.
        -11    1    1    2    0    0  0.14096523040E+02 -0.25734417932E+02  0.19752050829E+02  0.35371114488E+02  0.00000000000E+00 0.  1.
         11    1    1    2    0    0  0.27370572612E+02  0.42580445851E+02  0.23192118886E+03  0.23738087634E+03  0.00000000000E+00 0. -1.
<mgrwt>
<rscale>  0 0.12524872E+03</rscale>
<asrwt>0</asrwt>
<pdfrwt beam="1">  1        2 0.19958512E+00 0.13277297E+03</pdfrwt>
<pdfrwt beam="2">  1       -2 0.22764827E-02 0.13277297E+03</pdfrwt>
<totfact> 0.10888913E+04</totfact>
</mgrwt>
</event>
<event>
 7    1  0.5928109E-006  0.1915057E+03  0.7546771E-02  0.1161748E+00
         -2   -1    0    0    0  501 -0.00000000000E+00  0.00000000000E+00  0.10404208868E+03  0.10404208868E+03  0.00000000000E+00 0.  1.
          2   -1    0    0  501    0  0.00000000000E+00 -0.00000000000E+00 -0.43163940713E+03  0.43163940713E+03  0.00000000000E+00 0. -1.
         23    2    1    2    0    0 -0.13458495566E+03 -0.54161311604E+02 -0.30799421565E+03  0.36267738337E+03  0.12501155774E+03 0.  0.
          5    1    3    3  502    0  0.23178169781E+02 -0.20685264000E+01 -0.55791707619E+02  0.60632590205E+02  0.47000000000E+01 0.  1.
         -5    1    3    3    0  502 -0.15776312545E+03 -0.52092785204E+02 -0.25220250803E+03  0.30204479317E+03  0.47000000000E+01 0.  1.
        -11    1    1    2    0    0  0.28753297267E+02  0.53193223633E+02 -0.28397322906E+02  0.66803286539E+02  0.00000000000E+00 0. -1.
         11    1    1    2    0    0  0.10583165840E+03  0.96808797014E+00  0.87942201081E+01  0.10620082590E+03  0.00000000000E+00 0.  1.
<mgrwt>
<rscale>  0 0.18640130E+03</rscale>
<asrwt>0</asrwt>
<pdfrwt beam="2">  1        2 0.66406062E-01 0.19150574E+03</pdfrwt>
<pdfrwt beam="1">  1       -2 0.16006475E-01 0.19150574E+03</pdfrwt>
<totfact> 0.22282321E+03</totfact>
</mgrwt>
</event>
<event>
 7    1  0.5928109E-006  0.2456448E+03  0.7546771E-02  0.1118625E+00
         -2   -1    0    0    0  501 -0.00000000000E+00  0.00000000000E+00  0.79254860554E+02  0.79254860554E+02  0.00000000000E+00 0.  1.
          2   -1    0    0  501    0  0.00000000000E+00 -0.00000000000E+00 -0.10181592370E+04  0.10181592370E+04  0.00000000000E+00 0. -1.
         23    2    1    2    0    0 -0.89016286273E+02 -0.19180236675E+03 -0.77923315763E+03  0.81703470311E+03  0.12501737890E+03 0.  0.
          5    1    3    3  502    0  0.27792127950E+01  0.10326148947E+02 -0.13705064588E+03  0.13754752965E+03  0.47000000000E+01 0.  1.
         -5    1    3    3    0  502 -0.91795499068E+02 -0.20212851570E+03 -0.64218251175E+03  0.67948717347E+03  0.47000000000E+01 0.  1.
        -11    1    1    2    0    0  0.62885256254E+02  0.11153267199E+03 -0.14712186834E+03  0.19503573139E+03  0.00000000000E+00 0. -1.
         11    1    1    2    0    0  0.26131030019E+02  0.80269694765E+02 -0.12549350488E+02  0.85343663064E+02  0.00000000000E+00 0.  1.
<mgrwt>
<rscale>  0 0.24176068E+03</rscale>
<asrwt>0</asrwt>
<pdfrwt beam="2">  1        2 0.15663987E+00 0.24564485E+03</pdfrwt>
<pdfrwt beam="1">  1       -2 0.12193057E-01 0.24564485E+03</pdfrwt>
<totfact> 0.12343842E+03</totfact>
</mgrwt>
</event>
<event>
 7    1  0.5928109E-006  0.1526342E+03  0.7546771E-02  0.1205113E+00
         -1   -1    0    0    0  501 -0.00000000000E+00  0.00000000000E+00  0.11277637037E+03  0.11277637037E+03  0.00000000000E+00 0.  1.
          1   -1    0    0  501    0  0.00000000000E+00 -0.00000000000E+00 -0.24558187263E+03  0.24558187263E+03  0.00000000000E+00 0. -1.
         23    2    1    2    0    0 -0.85944527027E+02 -0.16894638449E+02 -0.16586076337E+03  0.22540407865E+03  0.12500126124E+03 0.  0.
          5    1    3    3  502    0 -0.10647919800E+03  0.20242256217E+02 -0.10435051514E+03  0.15052803244E+03  0.47000000000E+01 0. -1.
         -5    1    3    3    0  502  0.20534670970E+02 -0.37136894666E+02 -0.61510248235E+02  0.74876046204E+02  0.47000000000E+01 0. -1.
        -11    1    1    2    0    0  0.73473416816E+02  0.24427503752E+02  0.62890858063E+02  0.99751220273E+02  0.00000000000E+00 0.  1.
         11    1    1    2    0    0  0.12471110211E+02 -0.75328653028E+01 -0.29835596952E+02  0.33202944072E+02  0.00000000000E+00 0. -1.
<mgrwt>
<rscale>  0 0.14628528E+03</rscale>
<asrwt>0</asrwt>
<pdfrwt beam="2">  1        1 0.37781826E-01 0.15263422E+03</pdfrwt>
<pdfrwt beam="1">  1       -1 0.17350211E-01 0.15263422E+03</pdfrwt>
<totfact> 0.27992349E+03</totfact>
</mgrwt>
</event>
<event>
 7    1  0.5928109E-006  0.1960693E+03  0.7546771E-02  0.1157432E+00
         -2   -1    0    0    0  501 -0.00000000000E+00  0.00000000000E+00  0.49846353029E+02  0.49846353029E+02  0.00000000000E+00 0. -1.
          2   -1    0    0  501    0  0.00000000000E+00 -0.00000000000E+00 -0.74299958411E+03  0.74299958411E+03  0.00000000000E+00 0.  1.
         23    2    1    2    0    0  0.81996333180E+02 -0.12688178756E+03 -0.46009764590E+03  0.50013300818E+03  0.12498318063E+03 0.  0.
          5    1    3    3  502    0  0.54192062065E+02 -0.87840764010E+02 -0.12768980503E+03  0.16425454551E+03  0.47000000000E+01 0. -1.
         -5    1    3    3    0  502  0.27804271115E+02 -0.39041023550E+02 -0.33240784087E+03  0.33587846267E+03  0.47000000000E+01 0. -1.
        -11    1    1    2    0    0 -0.64195681367E+01  0.86408522567E+02 -0.15069784727E+03  0.17383177154E+03  0.00000000000E+00 0.  1.
         11    1    1    2    0    0 -0.75576765043E+02  0.40473264992E+02 -0.82357737910E+02  0.11888115741E+03  0.00000000000E+00 0. -1.
<mgrwt>
<rscale>  0 0.19114571E+03</rscale>
<asrwt>0</asrwt>
<pdfrwt beam="2">  1        2 0.11430762E+00 0.19606933E+03</pdfrwt>
<pdfrwt beam="1">  1       -2 0.76686699E-02 0.19606933E+03</pdfrwt>
<totfact> 0.38877596E+03</totfact>
</mgrwt>
</event>
<event>
 7    1  0.5928109E-006  0.1549884E+03  0.7546771E-02  0.1202700E+00
         -2   -1    0    0    0  501 -0.00000000000E+00  0.00000000000E+00  0.16482740555E+02  0.16482740555E+02  0.00000000000E+00 0.  1.
          2   -1    0    0  501    0  0.00000000000E+00 -0.00000000000E+00 -0.14173857272E+04  0.14173857272E+04  0.00000000000E+00 0. -1.
         23    2    1    2    0    0 -0.10472768827E+02  0.91030961586E+02 -0.10156904947E+04  0.10274476006E+04  0.12500030463E+03 0.  0.
          5    1    3    3  502    0  0.43501857185E+02  0.74923013193E+02 -0.40739363083E+03  0.41653034694E+03  0.47000000000E+01 0. -1.
         -5    1    3    3    0  502 -0.53974626012E+02  0.16107948393E+02 -0.60829686388E+03  0.61091725370E+03  0.47000000000E+01 0. -1.
        -11    1    1    2    0    0  0.48158123305E+02 -0.29013038895E+02 -0.14635395299E+03  0.15678150664E+03  0.00000000000E+00 0. -1.
         11    1    1    2    0    0 -0.37685354479E+02 -0.62017922691E+02 -0.23885853899E+03  0.24963936052E+03  0.00000000000E+00 0.  1.
<mgrwt>
<rscale>  0 0.14820172E+03</rscale>
<asrwt>0</asrwt>
<pdfrwt beam="2">  1        2 0.21805942E+00 0.15498836E+03</pdfrwt>
<pdfrwt beam="1">  1       -2 0.25358054E-02 0.15498836E+03</pdfrwt>
<totfact> 0.80774599E+03</totfact>
</mgrwt>
</event>
<event>
 7    1  0.5928109E-006  0.1291393E+03  0.7546771E-02  0.1243057E+00
          1   -1    0    0  501    0  0.00000000000E+00  0.00000000000E+00  0.22908212053E+03  0.22908212053E+03  0.00000000000E+00 0. -1.
         -1   -1    0    0    0  501 -0.00000000000E+00 -0.00000000000E+00 -0.55530113125E+02  0.55530113125E+02  0.00000000000E+00 0.  1.
         23    2    1    2    0    0 -0.28576991111E+02 -0.15389985563E+02  0.95755215421E+02  0.16076696768E+03  0.12499384201E+03 0.  0.
          5    1    3    3  502    0 -0.40035924458E+02 -0.36453196263E+01 -0.19025673373E+02  0.44723929273E+02  0.47000000000E+01 0. -1.
         -5    1    3    3    0  502  0.11458933346E+02 -0.11744665937E+02  0.11478088879E+03  0.11604303841E+03  0.47000000000E+01 0. -1.
        -11    1    1    2    0    0  0.43576452229E+02  0.30678240121E+02  0.11967446195E+02  0.54619423049E+02  0.00000000000E+00 0.  1.
         11    1    1    2    0    0 -0.14999461118E+02 -0.15288254558E+02  0.65829345786E+02  0.69225842919E+02  0.00000000000E+00 0. -1.
<mgrwt>
<rscale>  0 0.12002407E+03</rscale>
<asrwt>0</asrwt>
<pdfrwt beam="1">  1        1 0.35243403E-01 0.12913929E+03</pdfrwt>
<pdfrwt beam="2">  1       -1 0.85430945E-02 0.12913929E+03</pdfrwt>
<totfact> 0.90429095E+03</totfact>
</mgrwt>
</event>
<event>
 7    1  0.5928109E-006  0.1615902E+03  0.7546771E-02  0.1193834E+00
          2   -1    0    0  501    0  0.00000000000E+00  0.00000000000E+00  0.12060937106E+04  0.12060937106E+04  0.00000000000E+00 0. -1.
         -2   -1    0    0    0  501 -0.00000000000E+00 -0.00000000000E+00 -0.24750369053E+02  0.24750369053E+02  0.00000000000E+00 0.  1.
         23    2    1    2    0    0 -0.99713178699E+02  0.23340051140E+02  0.92854825167E+03  0.94250371817E+03  0.12499570833E+03 0.  0.
          5    1    3    3  502    0 -0.62322633991E+02 -0.43201309611E+02  0.30667965778E+03  0.31595089232E+03  0.47000000000E+01 0. -1.
         -5    1    3    3    0  502 -0.37390544707E+02  0.66541360751E+02  0.62186859389E+03  0.62655282585E+03  0.47000000000E+01 0. -1.
        -11    1    1    2    0    0  0.41130073761E+02 -0.54316094722E+01  0.17200117577E+02  0.44911350388E+02  0.00000000000E+00 0.  1.
         11    1    1    2    0    0  0.58583104938E+02 -0.17908441668E+02  0.23559497231E+03  0.24342901110E+03  0.00000000000E+00 0. -1.
<mgrwt>
<rscale>  0 0.15553291E+03</rscale>
<asrwt>0</asrwt>
<pdfrwt beam="1">  1        2 0.18555283E+00 0.16159023E+03</pdfrwt>
<pdfrwt beam="2">  1       -2 0.38077500E-02 0.16159023E+03</pdfrwt>
<totfact> 0.57755037E+03</totfact>
</mgrwt>
</event>
<event>
 7    1  0.5928109E-006  0.1377388E+03  0.7546771E-02  0.1228659E+00
         -2   -1    0    0    0  501 -0.00000000000E+00  0.00000000000E+00  0.17189156199E+02  0.17189156199E+02  0.00000000000E+00 0.  1.
          2   -1    0    0  501    0  0.00000000000E+00 -0.00000000000E+00 -0.96411117438E+03  0.96411117438E+03  0.00000000000E+00 0. -1.
         23    2    1    2    0    0 -0.57837659120E+02 -0.21091465648E+01 -0.68130408997E+03  0.69508792936E+03  0.12498929241E+03 0.  0.
          5    1    3    3  502    0 -0.85317733808E+02 -0.16084599600E+02 -0.29552103454E+03  0.30804642816E+03  0.47000000000E+01 0. -1.
         -5    1    3    3    0  502  0.27480074688E+02  0.13975453035E+02 -0.38578305543E+03  0.38704150120E+03  0.47000000000E+01 0. -1.
        -11    1    1    2    0    0  0.13531430191E+02 -0.21508515194E+02 -0.12791505554E+02  0.28448874200E+02  0.00000000000E+00 0.  1.
         11    1    1    2    0    0  0.44306228929E+02  0.23617661759E+02 -0.25282642266E+03  0.25776352703E+03  0.00000000000E+00 0. -1.
<mgrwt>
<rscale>  0 0.12919231E+03</rscale>
<asrwt>0</asrwt>
<pdfrwt beam="2">  1        2 0.14832479E+00 0.13773876E+03</pdfrwt>
<pdfrwt beam="1">  1       -2 0.26444857E-02 0.13773876E+03</pdfrwt>
<totfact> 0.13560465E+04</totfact>
</mgrwt>
</event>
<event>
 7    1  0.5928109E-006  0.1410715E+03  0.7546771E-02  0.1222940E+00
         -2   -1    0    0    0  501 -0.00000000000E+00  0.00000000000E+00  0.20774705541E+03  0.20774705541E+03  0.00000000000E+00 0.  1.
          2   -1    0    0  501    0  0.00000000000E+00 -0.00000000000E+00 -0.77912646543E+02  0.77912646543E+02  0.00000000000E+00 0. -1.
         23    2    1    2    0    0 -0.39849119032E+02 -0.51853169283E+02  0.56364691495E+02  0.15191497279E+03  0.12499790822E+03 0.  0.
          5    1    3    3  502    0 -0.42417882911E+01  0.36334365848E+02  0.41534384410E+02  0.55546142960E+02  0.47000000000E+01 0.  1.
         -5    1    3    3    0  502 -0.35607330741E+02 -0.88187535131E+02  0.14830307086E+02  0.96368829832E+02  0.47000000000E+01 0.  1.
        -11    1    1    2    0    0  0.57619342562E+02  0.19180504458E+02  0.75021341155E+02  0.96519852969E+02  0.00000000000E+00 0.  1.
         11    1    1    2    0    0 -0.17770223530E+02  0.32672664826E+02 -0.15516237815E+01  0.37224876192E+02  0.00000000000E+00 0. -1.
<mgrwt>
<rscale>  0 0.13309117E+03</rscale>
<asrwt>0</asrwt>
<pdfrwt beam="2">  1        2 0.11986561E-01 0.14107154E+03</pdfrwt>
<pdfrwt beam="1">  1       -2 0.31961085E-01 0.14107154E+03</pdfrwt>
<totfact> 0.44525860E+03</totfact>
</mgrwt>
</event>
<event>
 7    1  0.5928109E-006  0.1273793E+03  0.7546771E-02  0.1239033E+00
          1   -1    0    0  501    0  0.00000000000E+00  0.00000000000E+00  0.63689256483E+03  0.63689256483E+03  0.00000000000E+00 0. -1.
         -1   -1    0    0    0  501 -0.00000000000E+00 -0.00000000000E+00 -0.36857001401E+02  0.36857001401E+02  0.00000000000E+00 0.  1.
         23    2    1    2    0    0  0.20878820000E+02 -0.51868331704E+02  0.52798440396E+03  0.54313259146E+03  0.11445187693E+03 0.  0.
          5    1    3    3  502    0  0.58542674237E+02  0.45359449846E+01  0.22157412041E+03  0.22927058324E+03  0.47000000000E+01 0. -1.
         -5    1    3    3    0  502 -0.37663854237E+02 -0.56404276688E+02  0.30641028354E+03  0.31386200822E+03  0.47000000000E+01 0.  1.
        -11    1    1    2    0    0 -0.51991738279E+02  0.18827524921E+02  0.14202961961E+02  0.57090635593E+02  0.00000000000E+00 0.  1.
         11    1    1    2    0    0  0.31112918279E+02  0.33040806782E+02  0.57848197511E+02  0.73526339171E+02  0.00000000000E+00 0. -1.
<mgrwt>
<rscale>  0 0.12249766E+03</rscale>
<asrwt>0</asrwt>
<pdfrwt beam="1">  1        1 0.97983463E-01 0.12737928E+03</pdfrwt>
<pdfrwt beam="2">  1       -1 0.56703084E-02 0.12737928E+03</pdfrwt>
<totfact> 0.45481004E+03</totfact>
</mgrwt>
</event>
<event>
 7    1  0.5928109E-006  0.1656184E+03  0.7546771E-02  0.1189572E+00
          1   -1    0    0  501    0  0.00000000000E+00  0.00000000000E+00  0.87460467494E+03  0.87460467494E+03  0.00000000000E+00 0. -1.
         -1   -1    0    0    0  501 -0.00000000000E+00 -0.00000000000E+00 -0.35954931655E+02  0.35954931655E+02  0.00000000000E+00 0.  1.
         23    2    1    2    0    0 -0.63918121084E+02 -0.87907788671E+02  0.67121053613E+03  0.69134147403E+03  0.12496457257E+03 0.  0.
          5    1    3    3  502    0 -0.36549407629E+02  0.10820808055E+02  0.39224220785E+03  0.39411798830E+03  0.47000000000E+01 0.  1.
         -5    1    3    3    0  502 -0.27368713455E+02 -0.98728596726E+02  0.27896832828E+03  0.29722348573E+03  0.47000000000E+01 0.  1.
        -11    1    1    2    0    0  0.84689410376E+02  0.57916835917E+02  0.13999514663E+03  0.17356640572E+03  0.00000000000E+00 0. -1.
         11    1    1    2    0    0 -0.20771289292E+02  0.29990952754E+02  0.27444060525E+02  0.45651726846E+02  0.00000000000E+00 0.  1.
<mgrwt>
<rscale>  0 0.15922686E+03</rscale>
<asrwt>0</asrwt>
<pdfrwt beam="1">  1        1 0.13455455E+00 0.16561839E+03</pdfrwt>
<pdfrwt beam="2">  1       -1 0.55315286E-02 0.16561839E+03</pdfrwt>
<totfact> 0.29866984E+03</totfact>
</mgrwt>
</event>
<event>
 7    1  0.5928109E-006  0.1316101E+03  0.7546771E-02  0.1252189E+00
          2   -1    0    0  501    0  0.00000000000E+00  0.00000000000E+00  0.76072036526E+03  0.76072036526E+03  0.00000000000E+00 0. -1.
         -2   -1    0    0    0  501 -0.00000000000E+00 -0.00000000000E+00 -0.14781154028E+02  0.14781154028E+02  0.00000000000E+00 0.  1.
         23    2    1    2    0    0 -0.40814641136E+02 -0.55267009445E+01  0.54702496278E+03  0.56263445969E+03  0.12499938391E+03 0.  0.
          5    1    3    3  502    0 -0.62594722002E+01 -0.17107151315E+02  0.51364643461E+01  0.19501509796E+02  0.47000000000E+01 0. -1.
         -5    1    3    3    0  502 -0.34555168936E+02  0.11580450370E+02  0.54188849843E+03  0.54313294989E+03  0.47000000000E+01 0. -1.
        -11    1    1    2    0    0  0.42246421839E+02 -0.48031745524E+01  0.19786954435E+03  0.20238623280E+03  0.00000000000E+00 0. -1.
         11    1    1    2    0    0 -0.14317807029E+01  0.10329875497E+02  0.10447041044E+01  0.10480826801E+02  0.00000000000E+00 0.  1.
<mgrwt>
<rscale>  0 0.11465237E+03</rscale>
<asrwt>0</asrwt>
<pdfrwt beam="1">  1        2 0.11703387E+00 0.13161013E+03</pdfrwt>
<pdfrwt beam="2">  1       -2 0.22740243E-02 0.13161013E+03</pdfrwt>
<totfact> 0.22817487E+04</totfact>
</mgrwt>
</event>
<event>
 7    1  0.5928109E-006  0.1288662E+03  0.7546771E-02  0.1237833E+00
         -3   -1    0    0    0  501 -0.00000000000E+00  0.00000000000E+00  0.66487192507E+02  0.66487192507E+02  0.00000000000E+00 0.  1.
          3   -1    0    0  501    0  0.00000000000E+00 -0.00000000000E+00 -0.33814597336E+03  0.33814597336E+03  0.00000000000E+00 0. -1.
         23    2    1    2    0    0 -0.29313498821E+02  0.11057207191E+02 -0.26727872401E+03  0.29672280062E+03  0.12499984421E+03 0.  0.
          5    1    3    3  502    0 -0.45627779955E+02  0.43895711501E+02 -0.24601650507E+03  0.25407663914E+03  0.47000000000E+01 0. -1.
         -5    1    3    3    0  502  0.16314281133E+02 -0.32838504310E+02 -0.21262218947E+02  0.42646161477E+02  0.47000000000E+01 0. -1.
        -11    1    1    2    0    0  0.40588830891E+02 -0.51422572630E+02  0.18604200112E+01  0.65537739751E+02  0.00000000000E+00 0.  1.
         11    1    1    2    0    0 -0.11275332070E+02  0.40365365439E+02 -0.62404768507E+01  0.42372625498E+02  0.00000000000E+00 0. -1.
<mgrwt>
<rscale>  0 0.12324821E+03</rscale>
<asrwt>0</asrwt>
<pdfrwt beam="2">  1        3 0.52022457E-01 0.12886623E+03</pdfrwt>
<pdfrwt beam="1">  1       -3 0.10228799E-01 0.12886623E+03</pdfrwt>
<totfact> 0.60243769E+02</totfact>
</mgrwt>
</event>
<event>
 7    1  0.5928109E-006  0.1633229E+03  0.7546771E-02  0.1192027E+00
         -2   -1    0    0    0  501 -0.00000000000E+00  0.00000000000E+00  0.52197333666E+02  0.52197333666E+02  0.00000000000E+00 0.  1.
          2   -1    0    0  501    0  0.00000000000E+00 -0.00000000000E+00 -0.44742855851E+03  0.44742855851E+03  0.00000000000E+00 0. -1.
         23    2    1    2    0    0  0.10483974125E+03 -0.75561379390E+01 -0.24484670475E+03  0.29432001659E+03  0.12500358705E+03 0.  0.
          5    1    3    3  502    0  0.11909346044E+03 -0.20284644726E+02 -0.12894176278E+03  0.17675629358E+03  0.47000000000E+01 0.  1.
         -5    1    3    3    0  502 -0.14253719189E+02  0.12728506787E+02 -0.11590494197E+03  0.11756372302E+03  0.47000000000E+01 0.  1.
        -11    1    1    2    0    0 -0.53114010465E+02 -0.33943520496E+02 -0.34679644038E+02  0.71943994899E+02  0.00000000000E+00 0.  1.
         11    1    1    2    0    0 -0.51725730788E+02  0.41499658435E+02 -0.11570487606E+03  0.13336188068E+03  0.00000000000E+00 0. -1.
<mgrwt>
<rscale>  0 0.15708581E+03</rscale>
<asrwt>0</asrwt>
<pdfrwt beam="2">  1        2 0.68835165E-01 0.16332288E+03</pdfrwt>
<pdfrwt beam="1">  1       -2 0.80303588E-02 0.16332288E+03</pdfrwt>
<totfact> 0.64210099E+03</totfact>
</mgrwt>
</event>
<event>
 7    1  0.5928109E-006  0.1571242E+03  0.7546771E-02  0.1199962E+00
          4   -1    0    0  501    0  0.00000000000E+00  0.00000000000E+00  0.18724762351E+03  0.18724762351E+03  0.00000000000E+00 0. -1.
         -4   -1    0    0    0  501 -0.00000000000E+00 -0.00000000000E+00 -0.15712488897E+03  0.15712488897E+03  0.00000000000E+00 0.  1.
         23    2    1    2    0    0  0.94610773667E+02  0.10441253129E+02  0.10844637079E+03  0.19091527617E+03  0.12501123580E+03 0.  0.
          5    1    3    3  502    0  0.77426596512E+02  0.38676495695E+02  0.10348896796E+02  0.87292261006E+02  0.47000000000E+01 0. -1.
         -5    1    3    3    0  502  0.17184177155E+02 -0.28235242566E+02  0.98097473996E+02  0.10362301516E+03  0.47000000000E+01 0. -1.
        -11    1    1    2    0    0 -0.14247359304E+02 -0.25425946570E+02 -0.64188595365E+02  0.70495686258E+02  0.00000000000E+00 0.  1.
         11    1    1    2    0    0 -0.80363414363E+02  0.14984693440E+02 -0.14135040894E+02  0.82961550050E+02  0.00000000000E+00 0. -1.
<mgrwt>
<rscale>  0 0.15041681E+03</rscale>
<asrwt>0</asrwt>
<pdfrwt beam="1">  1        4 0.28807327E-01 0.15712424E+03</pdfrwt>
<pdfrwt beam="2">  1       -4 0.24173060E-01 0.15712424E+03</pdfrwt>
<totfact> 0.31291940E+02</totfact>
</mgrwt>
</event>
<event>
 7    1  0.5928109E-006  0.1332987E+03  0.7546771E-02  0.1234061E+00
         -1   -1    0    0    0  501 -0.00000000000E+00  0.00000000000E+00  0.58330614903E+02  0.58330614903E+02  0.00000000000E+00 0.  1.
          1   -1    0    0  501    0  0.00000000000E+00 -0.00000000000E+00 -0.25200408800E+03  0.25200408800E+03  0.00000000000E+00 0. -1.
         23    2    1    2    0    0  0.81695653207E+00  0.46302414886E+02 -0.13558570084E+03  0.19013685938E+03  0.12499584785E+03 0.  0.
          5    1    3    3  502    0 -0.28873040521E+01 -0.19369867789E+02 -0.12091432443E+03  0.12258014584E+03  0.47000000000E+01 0. -1.
         -5    1    3    3    0  502  0.37042605841E+01  0.65672282675E+02 -0.14671376414E+02  0.67556713538E+02  0.47000000000E+01 0. -1.
        -11    1    1    2    0    0  0.19763774750E+02 -0.27097569402E+02  0.18709005102E+02  0.38404582171E+02  0.00000000000E+00 0.  1.
         11    1    1    2    0    0 -0.20580731282E+02 -0.19204845484E+02 -0.76796777359E+02  0.81793261353E+02  0.00000000000E+00 0. -1.
<mgrwt>
<rscale>  0 0.12564761E+03</rscale>
<asrwt>0</asrwt>
<pdfrwt beam="2">  1        1 0.38769859E-01 0.13329870E+03</pdfrwt>
<pdfrwt beam="1">  1       -1 0.89739408E-02 0.13329870E+03</pdfrwt>
<totfact> 0.74779328E+03</totfact>
</mgrwt>
</event>
<event>
 7    1  0.5928109E-006  0.1629649E+03  0.7546771E-02  0.1193524E+00
         -1   -1    0    0    0  501 -0.00000000000E+00  0.00000000000E+00  0.45627022934E+03  0.45627022934E+03  0.00000000000E+00 0.  1.
          1   -1    0    0  501    0  0.00000000000E+00 -0.00000000000E+00 -0.49549970842E+02  0.49549970842E+02  0.00000000000E+00 0. -1.
         23    2    1    2    0    0  0.26644977916E+02 -0.10111013910E+03  0.19528372318E+03  0.25434873260E+03  0.12499732060E+03 0.  0.
          5    1    3    3  502    0  0.23339116684E+02  0.90746116109E+01  0.11527797394E+03  0.11806000262E+03  0.47000000000E+01 0. -1.
         -5    1    3    3    0  502  0.33058612319E+01 -0.11018475071E+03  0.80005749242E+02  0.13628872998E+03  0.47000000000E+01 0. -1.
        -11    1    1    2    0    0 -0.36787918617E+01  0.10301581985E+03  0.20157924873E+03  0.22640668313E+03  0.00000000000E+00 0.  1.
         11    1    1    2    0    0 -0.22966186055E+02 -0.19056807497E+01  0.98572865967E+01  0.25064784461E+02  0.00000000000E+00 0. -1.
<mgrwt>
<rscale>  0 0.15579811E+03</rscale>
<asrwt>0</asrwt>
<pdfrwt beam="2">  1        1 0.76230727E-02 0.16296486E+03</pdfrwt>
<pdfrwt beam="1">  1       -1 0.70195417E-01 0.16296486E+03</pdfrwt>
<totfact> 0.19406599E+03</totfact>
</mgrwt>
</event>
<event>
 7    1  0.5928109E-006  0.2054984E+03  0.7546771E-02  0.1149195E+00
          1   -1    0    0  501    0  0.00000000000E+00  0.00000000000E+00  0.28277016115E+03  0.28277016115E+03  0.00000000000E+00 0. -1.
         -1   -1    0    0    0  501 -0.00000000000E+00 -0.00000000000E+00 -0.13621673466E+03  0.13621673466E+03  0.00000000000E+00 0.  1.
         23    2    1    2    0    0 -0.79122536334E+02 -0.14263065067E+03  0.84305350657E+02  0.22211927449E+03  0.12500280670E+03 0.  0.
          5    1    3    3  502    0  0.10822004615E+02 -0.86993969508E+02  0.75671181935E+02  0.11590204610E+03  0.47000000000E+01 0.  1.
         -5    1    3    3    0  502 -0.89944540949E+02 -0.55636681162E+02  0.86341687221E+01  0.10621722839E+03  0.47000000000E+01 0.  1.
        -11    1    1    2    0    0  0.84965645447E+01 -0.83991239538E+01 -0.95920977702E+01  0.15321397844E+02  0.00000000000E+00 0.  1.
         11    1    1    2    0    0  0.70625971789E+02  0.15102977462E+03  0.71840173609E+02  0.18154622348E+03  0.00000000000E+00 0. -1.
<mgrwt>
<rscale>  0 0.20064647E+03</rscale>
<asrwt>0</asrwt>
<pdfrwt beam="1">  1        1 0.43503102E-01 0.20549837E+03</pdfrwt>
<pdfrwt beam="2">  1       -1 0.20956421E-01 0.20549837E+03</pdfrwt>
<totfact> 0.17498323E+03</totfact>
</mgrwt>
</event>
<event>
 7    1  0.5928109E-006  0.2187127E+03  0.7546771E-02  0.1138234E+00
          1   -1    0    0  501    0  0.00000000000E+00  0.00000000000E+00  0.19774234598E+04  0.19774234598E+04  0.00000000000E+00 0. -1.
         -1   -1    0    0    0  501 -0.00000000000E+00 -0.00000000000E+00 -0.22376551857E+02  0.22376551857E+02  0.00000000000E+00 0.  1.
         23    2    1    2    0    0 -0.28707915889E+01  0.17944877536E+03  0.10683460650E+04  0.10905038103E+04  0.12500056512E+03 0.  0.
          5    1    3    3  502    0 -0.43671394973E+02  0.13793993211E+03  0.91565719381E+03  0.92703009778E+03  0.47000000000E+01 0.  1.
         -5    1    3    3    0  502  0.40800603384E+02  0.41508843254E+02  0.15268887120E+03  0.16347371254E+03  0.47000000000E+01 0.  1.
        -11    1    1    2    0    0  0.41096568437E+02 -0.14063037892E+03  0.67261913060E+03  0.68839111431E+03  0.00000000000E+00 0. -1.
         11    1    1    2    0    0 -0.38225776848E+02 -0.38818396445E+02  0.21408171236E+03  0.22090508705E+03  0.00000000000E+00 0.  1.
<mgrwt>
<rscale>  0 0.21426247E+03</rscale>
<asrwt>0</asrwt>
<pdfrwt beam="1">  1        1 0.30421886E+00 0.21871270E+03</pdfrwt>
<pdfrwt beam="2">  1       -1 0.34425480E-02 0.21871270E+03</pdfrwt>
<totfact> 0.10778418E+03</totfact>
</mgrwt>
</event>
<event>
 6    1  0.5928109E-006  0.1914022E+03  0.7546771E-02  0.1181428E+00
         -1   -1    0    0    0  501 -0.00000000000E+00  0.00000000000E+00  0.17243707040E+02  0.17243707040E+02  0.00000000000E+00 0.  1.
          1   -1    0    0  501    0  0.00000000000E+00 -0.00000000000E+00 -0.20687250595E+04  0.20687250595E+04  0.00000000000E+00 0. -1.
          5    1    1    2  502    0 -0.20077238708E+02  0.28581809863E+02 -0.88272805616E+02  0.95048374949E+02  0.47000000000E+01 0. -1.
         -5    1    1    2    0  502  0.52308761189E+02 -0.92687207772E+02 -0.17282614949E+04  0.17315418013E+04  0.47000000000E+01 0.  1.
        -11    1    1    2    0    0 -0.51859593005E+02  0.42594454840E+02 -0.21180551925E+03  0.22218299429E+03  0.00000000000E+00 0. -1.
         11    1    1    2    0    0  0.19628070523E+02  0.21510943069E+02 -0.23141532699E+02  0.37195595974E+02  0.00000000000E+00 0.  1.
<mgrwt>
<rscale>  0 0.16661178E+03</rscale>
<asrwt>0</asrwt>
<pdfrwt beam="2">  1        1 0.31826529E+00 0.19140221E+03</pdfrwt>
<pdfrwt beam="1">  1       -1 0.26528789E-02 0.19140221E+03</pdfrwt>
<totfact> 0.13843939E+03</totfact>
</mgrwt>
</event>
<event>
 7    1  0.5928109E-006  0.1599096E+03  0.7546771E-02  0.1196429E+00
         -3   -1    0    0    0  501 -0.00000000000E+00  0.00000000000E+00  0.20034633778E+02  0.20034633778E+02  0.00000000000E+00 0.  1.
          3   -1    0    0  501    0  0.00000000000E+00 -0.00000000000E+00 -0.10948819485E+04  0.10948819485E+04  0.00000000000E+00 0. -1.
         23    2    1    2    0    0  0.82109235310E+02 -0.56616988937E+02 -0.53426581153E+03  0.55768364203E+03  0.12499470891E+03 0.  0.
          5    1    3    3  502    0  0.67157848359E+02 -0.23302767148E+01 -0.10523752749E+03  0.12495052612E+03  0.47000000000E+01 0. -1.
         -5    1    3    3    0  502  0.14951386951E+02 -0.54286712222E+02 -0.42902828405E+03  0.43273311591E+03  0.47000000000E+01 0. -1.
        -11    1    1    2    0    0 -0.26576395222E+02  0.62255856184E+02 -0.40488475865E+03  0.41050428037E+03  0.00000000000E+00 0. -1.
         11    1    1    2    0    0 -0.55532840088E+02 -0.56388672478E+01 -0.13569674456E+03  0.14672865990E+03  0.00000000000E+00 0.  1.
<mgrwt>
<rscale>  0 0.15333932E+03</rscale>
<asrwt>0</asrwt>
<pdfrwt beam="2">  1        3 0.16844337E+00 0.15990962E+03</pdfrwt>
<pdfrwt beam="1">  1       -3 0.30822515E-02 0.15990962E+03</pdfrwt>
<totfact> 0.29782542E+02</totfact>
</mgrwt>
</event>
<event>
 7    1  0.5928109E-006  0.1354053E+03  0.7546771E-02  0.1229699E+00
          1   -1    0    0  501    0  0.00000000000E+00  0.00000000000E+00  0.75807152152E+03  0.75807152152E+03  0.00000000000E+00 0. -1.
         -1   -1    0    0    0  501 -0.00000000000E+00 -0.00000000000E+00 -0.36741571504E+02  0.36741571504E+02  0.00000000000E+00 0.  1.
         23    2    1    2    0    0  0.36086193481E+02  0.46428068364E+02  0.64977452098E+03  0.66373301728E+03  0.12197053422E+03 0.  0.
          5    1    3    3  502    0 -0.42564516860E+02  0.52011509702E+01  0.28670097209E+03  0.28992814190E+03  0.47000000000E+01 0. -1.
         -5    1    3    3    0  502  0.78650710340E+02  0.41226917394E+02  0.36307354888E+03  0.37380487538E+03  0.47000000000E+01 0.  1.
        -11    1    1    2    0    0 -0.18720591735E+02 -0.69718884171E+02  0.25369443362E+02  0.76516612716E+02  0.00000000000E+00 0. -1.
         11    1    1    2    0    0 -0.17365601746E+02  0.23290815807E+02  0.46185985672E+02  0.54563463027E+02  0.00000000000E+00 0.  1.
<mgrwt>
<rscale>  0 0.12850004E+03</rscale>
<asrwt>0</asrwt>
<pdfrwt beam="1">  1        1 0.11662638E+00 0.13540528E+03</pdfrwt>
<pdfrwt beam="2">  1       -1 0.56525500E-02 0.13540528E+03</pdfrwt>
<totfact> 0.35743140E+03</totfact>
</mgrwt>
</event>
<event>
 7    1  0.5928109E-006  0.1633860E+03  0.7546771E-02  0.1188961E+00
          1   -1    0    0  501    0  0.00000000000E+00  0.00000000000E+00  0.13613583774E+04  0.13613583774E+04  0.00000000000E+00 0. -1.
         -1   -1    0    0    0  501 -0.00000000000E+00 -0.00000000000E+00 -0.21932478847E+02  0.21932478847E+02  0.00000000000E+00 0.  1.
         23    2    1    2    0    0  0.10315313774E+02  0.10512419569E+03  0.98822605394E+03  0.10016415102E+04  0.12464942436E+03 0.  0.
          5    1    3    3  502    0 -0.28724262590E+02  0.11110329974E+03  0.56530157518E+03  0.57685092301E+03  0.47000000000E+01 0.  1.
         -5    1    3    3    0  502  0.39039576364E+02 -0.59791040472E+01  0.42292447876E+03  0.42479058716E+03  0.47000000000E+01 0.  1.
        -11    1    1    2    0    0  0.44181352704E+02 -0.52684363271E+02  0.11891327710E+03  0.13736084424E+03  0.00000000000E+00 0.  1.
         11    1    1    2    0    0 -0.54496666478E+02 -0.52439832424E+02  0.23228656753E+03  0.24428850185E+03  0.00000000000E+00 0. -1.
<mgrwt>
<rscale>  0 0.15976640E+03</rscale>
<asrwt>0</asrwt>
<pdfrwt beam="1">  1        1 0.20943968E+00 0.16338599E+03</pdfrwt>
<pdfrwt beam="2">  1       -1 0.33742286E-02 0.16338599E+03</pdfrwt>
<totfact> 0.27930105E+03</totfact>
</mgrwt>
</event>
<event>
 6    1  0.5928109E-006  0.2775660E+03  0.7546771E-02  0.1130714E+00
          1   -1    0    0  501    0  0.00000000000E+00  0.00000000000E+00  0.19714793536E+04  0.19714793536E+04  0.00000000000E+00 0. -1.
         -1   -1    0    0    0  501 -0.00000000000E+00 -0.00000000000E+00 -0.24860601389E+02  0.24860601389E+02  0.00000000000E+00 0.  1.
          5    1    1    2  502    0 -0.40343408545E-01  0.17129432282E+03  0.11454167205E+04  0.11581637623E+04  0.47000000000E+01 0. -1.
         -5    1    1    2    0  502  0.24872423382E+02 -0.10148375294E+03  0.55774068765E+03  0.56746308621E+03  0.47000000000E+01 0.  1.
        -11    1    1    2    0    0  0.13418513794E+01 -0.86702363802E+02  0.18969277821E+03  0.20857241083E+03  0.00000000000E+00 0.  1.
         11    1    1    2    0    0 -0.26173931353E+02  0.16891793919E+02  0.53768565857E+02  0.62140695672E+02  0.00000000000E+00 0. -1.
<mgrwt>
<rscale>  0 0.22430440E+03</rscale>
<asrwt>0</asrwt>
<pdfrwt beam="1">  1        1 0.30330439E+00 0.27756596E+03</pdfrwt>
<pdfrwt beam="2">  1       -1 0.38247095E-02 0.27756596E+03</pdfrwt>
<totfact> 0.92468191E+02</totfact>
</mgrwt>
</event>
<event>
 7    1  0.5928109E-006  0.1491418E+03  0.7546771E-02  0.1210860E+00
          1   -1    0    0  501    0  0.00000000000E+00  0.00000000000E+00  0.38697592923E+03  0.38697592923E+03  0.00000000000E+00 0. -1.
         -1   -1    0    0    0  501 -0.00000000000E+00 -0.00000000000E+00 -0.47655058095E+02  0.47655058095E+02  0.00000000000E+00 0.  1.
         23    2    1    2    0    0  0.21324090318E+02  0.78516404748E+02  0.17469647448E+03  0.22970012939E+03  0.12499499432E+03 0.  0.
          5    1    3    3  502    0 -0.10283949014E+02  0.11584409673E+02 -0.17410041821E+02  0.23773045893E+02  0.47000000000E+01 0. -1.
         -5    1    3    3    0  502  0.31608039332E+02  0.66931995075E+02  0.19210651630E+03  0.20592708350E+03  0.47000000000E+01 0. -1.
        -11    1    1    2    0    0  0.65163437272E+01 -0.37291430290E+02  0.55517132028E+01  0.38261403896E+02  0.00000000000E+00 0. -1.
         11    1    1    2    0    0 -0.27840434045E+02 -0.41224974458E+02  0.15907268345E+03  0.16666945403E+03  0.00000000000E+00 0.  1.
<mgrwt>
<rscale>  0 0.14185067E+03</rscale>
<asrwt>0</asrwt>
<pdfrwt beam="1">  1        1 0.59534756E-01 0.14914185E+03</pdfrwt>
<pdfrwt beam="2">  1       -1 0.73315477E-02 0.14914185E+03</pdfrwt>
<totfact> 0.59963977E+03</totfact>
</mgrwt>
</event>
<event>
 7    1  0.5928109E-006  0.1409259E+03  0.7546771E-02  0.1223451E+00
          2   -1    0    0  501    0  0.00000000000E+00  0.00000000000E+00  0.15599159652E+03  0.15599159652E+03  0.00000000000E+00 0. -1.
         -2   -1    0    0    0  501 -0.00000000000E+00 -0.00000000000E+00 -0.11725974776E+03  0.11725974776E+03  0.00000000000E+00 0.  1.
         23    2    1    2    0    0  0.42752133416E+02  0.49065711873E+02  0.70915630719E+02  0.15776289158E+03  0.12499965715E+03 0.  0.
          5    1    3    3  502    0  0.50034122708E+02  0.44985321449E+02  0.10364596900E+03  0.12365949002E+03  0.47000000000E+01 0. -1.
         -5    1    3    3    0  502 -0.72819892923E+01  0.40803904242E+01 -0.32730338284E+02  0.34103401564E+02  0.47000000000E+01 0. -1.
        -11    1    1    2    0    0 -0.63103885773E+02 -0.56155207525E+02 -0.38782852049E+02  0.92949541929E+02  0.00000000000E+00 0.  1.
         11    1    1    2    0    0  0.20351752357E+02  0.70894956523E+01  0.65990700871E+01  0.22538910768E+02  0.00000000000E+00 0. -1.
<mgrwt>
<rscale>  0 0.13273611E+03</rscale>
<asrwt>0</asrwt>
<pdfrwt beam="1">  1        2 0.23998707E-01 0.14092588E+03</pdfrwt>
<pdfrwt beam="2">  1       -2 0.18039961E-01 0.14092588E+03</pdfrwt>
<totfact> 0.54013680E+03</totfact>
</mgrwt>
</event>
<event>
 7    1  0.8403208E-006  0.1426197E+03  0.7546771E-02  0.1220561E+00
          1   -1    0    0  501    0  0.00000000000E+00  0.00000000000E+00  0.58106754205E+03  0.58106754205E+03  0.00000000000E+00 0. -1.
         -1   -1    0    0    0  501 -0.00000000000E+00 -0.00000000000E+00 -0.29007818893E+02  0.29007818893E+02  0.00000000000E+00 0.  1.
         23    2    1    2    0    0 -0.60881959460E+02 -0.31756074292E+02  0.35499052609E+03  0.38256850575E+03  0.12500130694E+03 0.  0.
          5    1    3    3  502    0  0.87071255667E+01  0.27595539665E+02  0.20309560101E+03  0.20520048975E+03  0.47000000000E+01 0. -1.
         -5    1    3    3    0  502 -0.69589085027E+02 -0.59351613957E+02  0.15189492508E+03  0.17736801600E+03  0.47000000000E+01 0. -1.
        -11    1    1    2    0    0  0.19574110724E+02  0.24603165696E+02  0.61456246079E+01  0.32034829088E+02  0.00000000000E+00 0.  1.
         11    1    1    2    0    0  0.41307848737E+02  0.71529085956E+01  0.19092357246E+03  0.19547202610E+03  0.00000000000E+00 0. -1.
<mgrwt>
<rscale>  0 0.13475831E+03</rscale>
<asrwt>0</asrwt>
<pdfrwt beam="1">  1        1 0.89394998E-01 0.14261973E+03</pdfrwt>
<pdfrwt beam="2">  1       -1 0.44627418E-02 0.14261973E+03</pdfrwt>
<totfact> 0.73915358E+03</totfact>
</mgrwt>
</event>
<event>
 7    1  0.5928109E-006  0.1747753E+03  0.7546771E-02  0.1178905E+00
         -2   -1    0    0    0  501 -0.00000000000E+00  0.00000000000E+00  0.26574545018E+02  0.26574545018E+02  0.00000000000E+00 0.  1.
          2   -1    0    0  501    0  0.00000000000E+00 -0.00000000000E+00 -0.19545544558E+04  0.19545544558E+04  0.00000000000E+00 0. -1.
         23    2    1    2    0    0  0.32541220507E+02 -0.11773949917E+03 -0.16855369235E+04  0.16945740252E+04  0.12499954278E+03 0.  0.
          5    1    3    3  502    0 -0.21306200647E+02 -0.10377736108E+03 -0.13730851257E+04  0.13771741166E+04  0.47000000000E+01 0.  1.
         -5    1    3    3    0  502  0.53847421155E+02 -0.13962138094E+02 -0.31245179779E+03  0.31739990865E+03  0.47000000000E+01 0.  1.
        -11    1    1    2    0    0 -0.57006147240E+02  0.36373744350E+02 -0.11423127287E+03  0.13274612538E+03  0.00000000000E+00 0.  1.
         11    1    1    2    0    0  0.24464926733E+02  0.81365754823E+02 -0.12821171436E+03  0.15380885019E+03  0.00000000000E+00 0. -1.
<mgrwt>
<rscale>  0 0.16899014E+03</rscale>
<asrwt>0</asrwt>
<pdfrwt beam="2">  1        2 0.30070087E+00 0.17477530E+03</pdfrwt>
<pdfrwt beam="1">  1       -2 0.40883891E-02 0.17477530E+03</pdfrwt>
<totfact> 0.20984210E+03</totfact>
</mgrwt>
</event>
<event>
 7    1  0.5928109E-006  0.1591957E+03  0.7546771E-02  0.1197748E+00
         -1   -1    0    0    0  501 -0.00000000000E+00  0.00000000000E+00  0.15578611786E+02  0.15578611786E+02  0.00000000000E+00 0.  1.
          1   -1    0    0  501    0  0.00000000000E+00 -0.00000000000E+00 -0.19170221650E+04  0.19170221650E+04  0.00000000000E+00 0. -1.
         23    2    1    2    0    0  0.54641699064E+02  0.82052907849E+02 -0.15253684000E+04  0.15336531641E+04  0.12499950828E+03 0.  0.
          5    1    3    3  502    0  0.78189852101E+02  0.77806090438E+01 -0.63254969523E+03  0.63742873938E+03  0.47000000000E+01 0.  1.
         -5    1    3    3    0  502 -0.23548153037E+02  0.74272298806E+02 -0.89281870475E+03  0.89622442470E+03  0.47000000000E+01 0.  1.
        -11    1    1    2    0    0 -0.53830535608E+02 -0.28750939437E+02 -0.29943656375E+03  0.30559220997E+03  0.00000000000E+00 0. -1.
         11    1    1    2    0    0 -0.81116345583E+00 -0.53301968412E+02 -0.76638589491E+02  0.93355402746E+02  0.00000000000E+00 0.  1.
<mgrwt>
<rscale>  0 0.15223935E+03</rscale>
<asrwt>0</asrwt>
<pdfrwt beam="2">  1        1 0.29492639E+00 0.15919570E+03</pdfrwt>
<pdfrwt beam="1">  1       -1 0.23967103E-02 0.15919570E+03</pdfrwt>
<totfact> 0.20115387E+03</totfact>
</mgrwt>
</event>
<event>
 6    1  0.5928109E-006  0.1380155E+03  0.7546771E-02  0.1237173E+00
          1   -1    0    0  501    0  0.00000000000E+00  0.00000000000E+00  0.12837093543E+04  0.12837093543E+04  0.00000000000E+00 0. -1.
         -1   -1    0    0    0  501 -0.00000000000E+00 -0.00000000000E+00 -0.16271722974E+02  0.16271722974E+02  0.00000000000E+00 0.  1.
          5    1    1    2  502    0  0.18764282057E+02 -0.47159778062E+02  0.98199019038E+03  0.98331224286E+03  0.47000000000E+01 0. -1.
         -5    1    1    2    0  502 -0.11339244431E+02  0.42552155418E+02  0.13282486339E+03  0.14001356623E+03  0.47000000000E+01 0.  1.
        -11    1    1    2    0    0 -0.15823096831E+02  0.43210932247E+02  0.57440196273E+02  0.73599804394E+02  0.00000000000E+00 0. -1.
         11    1    1    2    0    0  0.83980592056E+01 -0.38603309603E+02  0.95182381332E+02  0.10305546384E+03  0.00000000000E+00 0.  1.
<mgrwt>
<rscale>  0 0.12366347E+03</rscale>
<asrwt>0</asrwt>
<pdfrwt beam="1">  1        1 0.19749367E+00 0.13801547E+03</pdfrwt>
<pdfrwt beam="2">  1       -1 0.25033430E-02 0.13801547E+03</pdfrwt>
<totfact> 0.48458760E+03</totfact>
</mgrwt>
</event>
<event>
 7    1  0.5928109E-006  0.1407940E+03  0.7546771E-02  0.1224027E+00
          2   -1    0    0  501    0  0.00000000000E+00  0.00000000000E+00  0.17247048222E+04  0.17247048222E+04  0.00000000000E+00 0.  1.
         -2   -1    0    0    0  501 -0.00000000000E+00 -0.00000000000E+00 -0.99244775662E+01  0.99244775662E+01  0.00000000000E+00 0. -1.
         23    2    1    2    0    0 -0.13281561953E+02 -0.63418296524E+02  0.12011557255E+04  0.12093791874E+04  0.12499864714E+03 0.  0.
          5    1    3    3  502    0  0.64372784832E+01 -0.98785539490E+02  0.78491219412E+03  0.79114427499E+03  0.47000000000E+01 0. -1.
         -5    1    3    3    0  502 -0.19718840436E+02  0.35367242966E+02  0.41624353137E+03  0.41823491241E+03  0.47000000000E+01 0. -1.
        -11    1    1    2    0    0 -0.37248536813E+02  0.36989290595E+02  0.26802415582E+03  0.27311647555E+03  0.00000000000E+00 0. -1.
         11    1    1    2    0    0  0.50530098766E+02  0.26429005929E+02  0.24560046331E+03  0.25213363681E+03  0.00000000000E+00 0.  1.
<mgrwt>
<rscale>  0 0.13233809E+03</rscale>
<asrwt>0</asrwt>
<pdfrwt beam="1">  1        2 0.26533896E+00 0.14079397E+03</pdfrwt>
<pdfrwt beam="2">  1       -2 0.15268441E-02 0.14079397E+03</pdfrwt>
<totfact> 0.11653545E+04</totfact>
</mgrwt>
</event>
<event>
 7    1  0.5928109E-006  0.1271137E+03  0.7546771E-02  0.1246408E+00
          3   -1    0    0  501    0  0.00000000000E+00  0.00000000000E+00  0.16885889466E+03  0.16885889466E+03  0.00000000000E+00 0. -1.
         -3   -1    0    0    0  501 -0.00000000000E+00 -0.00000000000E+00 -0.76151678104E+02  0.76151678104E+02  0.00000000000E+00 0.  1.
         23    2    1    2    0    0 -0.62797210418E+01  0.22186418892E+02  0.78775696716E+02  0.14954434124E+03  0.12500491000E+03 0.  0.
          5    1    3    3  502    0 -0.37805437689E+02 -0.40355988924E+02  0.45955268915E+02  0.72054380172E+02  0.47000000000E+01 0.  1.
         -5    1    3    3    0  502  0.31525716647E+02  0.62542407816E+02  0.32820427801E+02  0.77489961069E+02  0.47000000000E+01 0.  1.
        -11    1    1    2    0    0  0.47998010317E+02 -0.22623674572E+01  0.98859850768E+01  0.49057721124E+02  0.00000000000E+00 0. -1.
         11    1    1    2    0    0 -0.41718289275E+02 -0.19924051435E+02  0.40455347605E+01  0.46408510395E+02  0.00000000000E+00 0.  1.
<mgrwt>
<rscale>  0 0.11801527E+03</rscale>
<asrwt>0</asrwt>
<pdfrwt beam="1">  1        3 0.25978291E-01 0.12711373E+03</pdfrwt>
<pdfrwt beam="2">  1       -3 0.11715643E-01 0.12711373E+03</pdfrwt>
<totfact> 0.17976861E+03</totfact>
</mgrwt>
</event>
<event>
 7    1  0.5928109E-006  0.1369153E+03  0.7546771E-02  0.1237642E+00
         -1   -1    0    0    0  501 -0.00000000000E+00  0.00000000000E+00  0.20568927746E+03  0.20568927746E+03  0.00000000000E+00 0.  1.
          1   -1    0    0  501    0  0.00000000000E+00 -0.00000000000E+00 -0.88342761428E+02  0.88342761428E+02  0.00000000000E+00 0. -1.
         23    2    1    2    0    0 -0.52848572174E+02  0.18235908251E+02 -0.10747897758E+02  0.13733647470E+03  0.12498107876E+03 0.  0.
          5    1    3    3  502    0  0.10941841289E+02  0.43414603308E+02 -0.42233912193E+02  0.61727992113E+02  0.47000000000E+01 0.  1.
         -5    1    3    3    0  502 -0.63790413463E+02 -0.25178695057E+02  0.31486014435E+02  0.75608482590E+02  0.47000000000E+01 0.  1.
        -11    1    1    2    0    0  0.31436567172E+02 -0.33947155353E+02  0.30172882797E+02  0.55236491275E+02  0.00000000000E+00 0. -1.
         11    1    1    2    0    0  0.21412005002E+02  0.15711247102E+02  0.97921530998E+02  0.10145907291E+03  0.00000000000E+00 0.  1.
<mgrwt>
<rscale>  0 0.12336797E+03</rscale>
<asrwt>0</asrwt>
<pdfrwt beam="2">  1        1 0.13591194E-01 0.13691527E+03</pdfrwt>
<pdfrwt beam="1">  1       -1 0.31644504E-01 0.13691527E+03</pdfrwt>
<totfact> 0.38023490E+03</totfact>
</mgrwt>
</event>
<event>
 7    1  0.6483690E-006  0.2363546E+03  0.7546771E-02  0.1125327E+00
         -1   -1    0    0    0  501 -0.00000000000E+00  0.00000000000E+00  0.95937312336E+02  0.95937312336E+02  0.00000000000E+00 0.  1.
          1   -1    0    0  501    0  0.00000000000E+00 -0.00000000000E+00 -0.54129435703E+03  0.54129435703E+03  0.00000000000E+00 0. -1.
         23    2    1    2    0    0 -0.53470398886E+02  0.19333733239E+03 -0.21671145314E+03  0.32066705662E+03  0.12500039852E+03 0.  0.
          5    1    3    3  502    0 -0.39842494395E+02  0.36043905343E+01 -0.68543416861E+02  0.79502867783E+02  0.47000000000E+01 0. -1.
         -5    1    3    3    0  502 -0.13627904491E+02  0.18973294185E+03 -0.14816803628E+03  0.24116418884E+03  0.47000000000E+01 0. -1.
        -11    1    1    2    0    0 -0.11099222882E+02 -0.71500842558E+02 -0.12359708877E+03  0.14321942462E+03  0.00000000000E+00 0. -1.
         11    1    1    2    0    0  0.64569621768E+02 -0.12183648983E+03 -0.10504850278E+03  0.17334518812E+03  0.00000000000E+00 0.  1.
<mgrwt>
<rscale>  0 0.23187500E+03</rscale>
<asrwt>0</asrwt>
<pdfrwt beam="2">  1        1 0.83276053E-01 0.23635462E+03</pdfrwt>
<pdfrwt beam="1">  1       -1 0.14759587E-01 0.23635462E+03</pdfrwt>
<totfact> 0.13364015E+03</totfact>
</mgrwt>
</event>
<event>
 7    1  0.5928109E-006  0.1678554E+03  0.7546771E-02  0.1186780E+00
         -1   -1    0    0    0  501 -0.00000000000E+00  0.00000000000E+00  0.18857863401E+02  0.18857863401E+02  0.00000000000E+00 0.  1.
          1   -1    0    0  501    0  0.00000000000E+00 -0.00000000000E+00 -0.13314584738E+04  0.13314584738E+04  0.00000000000E+00 0. -1.
         23    2    1    2    0    0  0.79553831197E+02  0.78884314121E+02 -0.81645227396E+03  0.83352850080E+03  0.12499559556E+03 0.  0.
          5    1    3    3  502    0 -0.18395339384E+02  0.53335619862E+02 -0.16992847419E+03  0.17911128718E+03  0.47000000000E+01 0.  1.
         -5    1    3    3    0  502  0.97949170581E+02  0.25548694259E+02 -0.64652379978E+03  0.65441721361E+03  0.47000000000E+01 0.  1.
        -11    1    1    2    0    0 -0.80436818800E+02 -0.17928630335E+02 -0.25146480268E+03  0.26462438397E+03  0.00000000000E+00 0. -1.
         11    1    1    2    0    0  0.88298760292E+00 -0.60955683786E+02 -0.24468353376E+03  0.25216345244E+03  0.00000000000E+00 0.  1.
<mgrwt>
<rscale>  0 0.16170994E+03</rscale>
<asrwt>0</asrwt>
<pdfrwt beam="2">  1        1 0.20483987E+00 0.16785543E+03</pdfrwt>
<pdfrwt beam="1">  1       -1 0.29012082E-02 0.16785543E+03</pdfrwt>
<totfact> 0.36505186E+03</totfact>
</mgrwt>
</event>
<event>
 7    1  0.5928109E-006  0.1258380E+03  0.7546771E-02  0.1242836E+00
          2   -1    0    0  501    0  0.00000000000E+00  0.00000000000E+00  0.14081147190E+03  0.14081147190E+03  0.00000000000E+00 0. -1.
         -2   -1    0    0    0  501 -0.00000000000E+00 -0.00000000000E+00 -0.97521242348E+02  0.97521242348E+02  0.00000000000E+00 0.  1.
         23    2    1    2    0    0 -0.11974476634E+02 -0.81538313562E+01  0.45181973025E+02  0.13370341475E+03  0.12500127748E+03 0.  0.
          5    1    3    3  502    0 -0.14176440880E+02 -0.15766418937E+02  0.87622796684E+02  0.90274004790E+02  0.47000000000E+01 0. -1.
         -5    1    3    3    0  502  0.22019642456E+01  0.76125875808E+01 -0.42440823660E+02  0.43429409956E+02  0.47000000000E+01 0. -1.
        -11    1    1    2    0    0  0.53644607169E+02 -0.14511328890E+02 -0.10117187660E+02  0.56486104757E+02  0.00000000000E+00 0.  1.
         11    1    1    2    0    0 -0.41670130535E+02  0.22665160247E+02  0.82254441847E+01  0.48143194741E+02  0.00000000000E+00 0. -1.
<mgrwt>
<rscale>  0 0.12015845E+03</rscale>
<asrwt>0</asrwt>
<pdfrwt beam="1">  1        2 0.21663303E-01 0.12583796E+03</pdfrwt>
<pdfrwt beam="2">  1       -2 0.15003268E-01 0.12583796E+03</pdfrwt>
<totfact> 0.81407050E+03</totfact>
</mgrwt>
</event>
<event>
 7    1  0.5928109E-006  0.1414795E+03  0.7546771E-02  0.1222710E+00
         -2   -1    0    0    0  501 -0.00000000000E+00  0.00000000000E+00  0.36804978070E+02  0.36804978070E+02  0.00000000000E+00 0.  1.
          2   -1    0    0  501    0  0.00000000000E+00 -0.00000000000E+00 -0.62673096566E+03  0.62673096566E+03  0.00000000000E+00 0. -1.
         23    2    1    2    0    0 -0.63309577003E+01 -0.65964363387E+02 -0.50234470965E+03  0.52188758935E+03  0.12500028137E+03 0.  0.
          5    1    3    3  502    0  0.39809543824E+02 -0.28907880713E+02 -0.71180772078E+02  0.86655973022E+02  0.47000000000E+01 0. -1.
         -5    1    3    3    0  502 -0.46140501525E+02 -0.37056482675E+02 -0.43116393757E+03  0.43523161633E+03  0.47000000000E+01 0. -1.
        -11    1    1    2    0    0 -0.26448171043E+02  0.13425389904E+02 -0.71885635743E+02  0.77764332903E+02  0.00000000000E+00 0. -1.
         11    1    1    2    0    0  0.32779128744E+02  0.52538973483E+02 -0.15695642194E+02  0.63884021475E+02  0.00000000000E+00 0.  1.
<mgrwt>
<rscale>  0 0.13325103E+03</rscale>
<asrwt>0</asrwt>
<pdfrwt beam="2">  1        2 0.96420140E-01 0.14147950E+03</pdfrwt>
<pdfrwt beam="1">  1       -2 0.56623048E-02 0.14147950E+03</pdfrwt>
<totfact> 0.74677891E+03</totfact>
</mgrwt>
</event>
<event>
 7    1  0.5928109E-006  0.2160457E+03  0.7546771E-02  0.1140305E+00
         -2   -1    0    0    0  501 -0.00000000000E+00  0.00000000000E+00  0.98390177349E+02  0.98390177349E+02  0.00000000000E+00 0.  1.
          2   -1    0    0  501    0  0.00000000000E+00 -0.00000000000E+00 -0.45770543075E+03  0.45770543075E+03  0.00000000000E+00 0. -1.
         23    2    1    2    0    0  0.15131170505E+03  0.90303677495E+02 -0.24545387599E+03  0.32699132887E+03  0.12500295062E+03 0.  0.
          5    1    3    3  502    0  0.13991050459E+03  0.10296278711E+03 -0.14893192885E+03  0.22886479470E+03  0.47000000000E+01 0. -1.
         -5    1    3    3    0  502  0.11401200462E+02 -0.12659109615E+02 -0.96521947144E+02  0.98126534172E+02  0.47000000000E+01 0. -1.
        -11    1    1    2    0    0 -0.39808992918E+02  0.15294851563E+02 -0.40877196930E+02  0.59073121048E+02  0.00000000000E+00 0.  1.
         11    1    1    2    0    0 -0.11150271213E+03 -0.10559852906E+03 -0.72984180481E+02  0.17003115818E+03  0.00000000000E+00 0. -1.
<mgrwt>
<rscale>  0 0.21160077E+03</rscale>
<asrwt>0</asrwt>
<pdfrwt beam="2">  1        2 0.70416220E-01 0.21604565E+03</pdfrwt>
<pdfrwt beam="1">  1       -2 0.15136950E-01 0.21604565E+03</pdfrwt>
<totfact> 0.22994344E+03</totfact>
</mgrwt>
</event>
<event>
 7    1  0.5928109E-006  0.1614249E+03  0.7546771E-02  0.1195264E+00
         -1   -1    0    0    0  501 -0.00000000000E+00  0.00000000000E+00  0.20592859700E+03  0.20592859700E+03  0.00000000000E+00 0.  1.
          1   -1    0    0  501    0  0.00000000000E+00 -0.00000000000E+00 -0.10725015606E+03  0.10725015606E+03  0.00000000000E+00 0. -1.
         23    2    1    2    0    0  0.44343711864E+02 -0.92019405055E+02  0.66388841525E+02  0.17454366380E+03  0.12499630637E+03 0.  0.
          5    1    3    3  502    0  0.57886836132E+02 -0.10164678675E+03  0.12238414896E+02  0.11770651576E+03  0.47000000000E+01 0.  1.
         -5    1    3    3    0  502 -0.13543124268E+02  0.96273816913E+01  0.54150426630E+02  0.56837148040E+02  0.47000000000E+01 0.  1.
        -11    1    1    2    0    0 -0.70174789463E+02  0.52787630954E+02  0.22597809023E+02  0.90673568533E+02  0.00000000000E+00 0. -1.
         11    1    1    2    0    0  0.25831077599E+02  0.39231774101E+02  0.96917903960E+01  0.47961520723E+02  0.00000000000E+00 0.  1.
<mgrwt>
<rscale>  0 0.15431867E+03</rscale>
<asrwt>0</asrwt>
<pdfrwt beam="2">  1        1 0.16500024E-01 0.16142494E+03</pdfrwt>
<pdfrwt beam="1">  1       -1 0.31681323E-01 0.16142494E+03</pdfrwt>
<totfact> 0.29757604E+03</totfact>
</mgrwt>
</event>
<event>
 6    1  0.5928109E-006  0.2057041E+03  0.7546771E-02  0.1163044E+00
         -3   -1    0    0    0  501 -0.00000000000E+00  0.00000000000E+00  0.35963269443E+02  0.35963269443E+02  0.00000000000E+00 0.  1.
          3   -1    0    0  501    0  0.00000000000E+00 -0.00000000000E+00 -0.10462140574E+04  0.10462140574E+04  0.00000000000E+00 0. -1.
          5    1    1    2  502    0 -0.12483342270E+03  0.70091174202E+02 -0.75690742029E+03  0.77034218956E+03  0.47000000000E+01 0. -1.
         -5    1    1    2    0  502  0.35314518409E+02 -0.27981232916E+02 -0.84854822894E+02  0.96189893307E+02  0.47000000000E+01 0.  1.
        -11    1    1    2    0    0  0.79727572130E+02 -0.64496016728E+02 -0.15947724218E+03  0.18960277610E+03  0.00000000000E+00 0.  1.
         11    1    1    2    0    0  0.97913321629E+01  0.22386075441E+02 -0.90113026062E+01  0.26042467891E+02  0.00000000000E+00 0. -1.
<mgrwt>
<rscale>  0 0.18500584E+03</rscale>
<asrwt>0</asrwt>
<pdfrwt beam="2">  1        3 0.16095598E+00 0.20570410E+03</pdfrwt>
<pdfrwt beam="1">  1       -3 0.55328117E-02 0.20570410E+03</pdfrwt>
<totfact> 0.13657264E+02</totfact>
</mgrwt>
</event>
<event>
 7    1  0.5928109E-006  0.1167097E+03  0.7546771E-02  0.1257946E+00
          1   -1    0    0  501    0  0.00000000000E+00  0.00000000000E+00  0.86178332243E+03  0.86178332243E+03  0.00000000000E+00 0. -1.
         -1   -1    0    0    0  501 -0.00000000000E+00 -0.00000000000E+00 -0.16620089154E+02  0.16620089154E+02  0.00000000000E+00 0.  1.
         23    2    1    2    0    0 -0.33383195133E+02  0.10147482608E+02  0.65087999535E+03  0.66126085352E+03  0.11137207433E+03 0.  0.
          5    1    3    3  502    0  0.35811824511E+02  0.25564444716E+02  0.20172226659E+03  0.20651874115E+03  0.47000000000E+01 0. -1.
         -5    1    3    3    0  502 -0.69195019643E+02 -0.15416962108E+02  0.44915772876E+03  0.45474211237E+03  0.47000000000E+01 0.  1.
        -11    1    1    2    0    0  0.25651739042E+02 -0.33201723241E+02  0.18715909569E+03  0.19180430976E+03  0.00000000000E+00 0. -1.
         11    1    1    2    0    0  0.77314560909E+01  0.23054240633E+02  0.71241422420E+01  0.25338248304E+02  0.00000000000E+00 0.  1.
<mgrwt>
<rscale>  0 0.11142932E+03</rscale>
<asrwt>0</asrwt>
<pdfrwt beam="1">  1        1 0.13258201E+00 0.11670967E+03</pdfrwt>
<pdfrwt beam="2">  1       -1 0.25569375E-02 0.11670967E+03</pdfrwt>
<totfact> 0.93368244E+03</totfact>
</mgrwt>
</event>
<event>
 7    1  0.5928109E-006  0.1550440E+03  0.7546771E-02  0.1202197E+00
         -2   -1    0    0    0  501 -0.00000000000E+00  0.00000000000E+00  0.14227906472E+02  0.14227906472E+02  0.00000000000E+00 0. -1.
          2   -1    0    0  501    0  0.00000000000E+00 -0.00000000000E+00 -0.14365485154E+04  0.14365485154E+04  0.00000000000E+00 0.  1.
         23    2    1    2    0    0  0.91040874826E+02 -0.11196785922E+02 -0.75988051632E+03  0.77553662208E+03  0.12499937680E+03 0.  0.
          5    1    3    3  502    0  0.60526082080E+02 -0.58160671246E+02 -0.60420606204E+03  0.61002715161E+03  0.47000000000E+01 0. -1.
         -5    1    3    3    0  502  0.30514792746E+02  0.46963885324E+02 -0.15567445428E+03  0.16550947047E+03  0.47000000000E+01 0. -1.
        -11    1    1    2    0    0 -0.17717390795E+02  0.46106688870E+02 -0.23071386416E+03  0.23594198399E+03  0.00000000000E+00 0. -1.
         11    1    1    2    0    0 -0.73323484031E+02 -0.34909902948E+02 -0.43172622844E+03  0.43929781579E+03  0.00000000000E+00 0.  1.
<mgrwt>
<rscale>  0 0.14860565E+03</rscale>
<asrwt>0</asrwt>
<pdfrwt beam="2">  1        2 0.22100749E+00 0.15504404E+03</pdfrwt>
<pdfrwt beam="1">  1       -2 0.21889084E-02 0.15504404E+03</pdfrwt>
<totfact> 0.97865537E+03</totfact>
</mgrwt>
</event>
<event>
 7    1  0.5928109E-006  0.2020665E+03  0.7546771E-02  0.1152203E+00
          1   -1    0    0  501    0  0.00000000000E+00  0.00000000000E+00  0.10686132294E+03  0.10686132294E+03  0.00000000000E+00 0. -1.
         -1   -1    0    0    0  501 -0.00000000000E+00 -0.00000000000E+00 -0.34781853263E+03  0.34781853263E+03  0.00000000000E+00 0.  1.
         23    2    1    2    0    0  0.15507049293E+03  0.33854626599E+02 -0.11410660366E+03  0.23205854747E+03  0.12505142517E+03 0.  0.
          5    1    3    3  502    0  0.12125073874E+03 -0.55166462096E+00 -0.15691358155E+02  0.12235340085E+03  0.47000000000E+01 0. -1.
         -5    1    3    3    0  502  0.33819754194E+02  0.34406291220E+02 -0.98415245503E+02  0.10970514663E+03  0.47000000000E+01 0. -1.
        -11    1    1    2    0    0 -0.36044006494E+02  0.27170183514E+02 -0.53757716763E+02  0.70194596572E+02  0.00000000000E+00 0.  1.
         11    1    1    2    0    0 -0.11902648644E+03 -0.61024810112E+02 -0.73092889275E+02  0.15242671152E+03  0.00000000000E+00 0. -1.
<mgrwt>
<rscale>  0 0.19710665E+03</rscale>
<asrwt>0</asrwt>
<pdfrwt beam="1">  1        1 0.16440203E-01 0.20206646E+03</pdfrwt>
<pdfrwt beam="2">  1       -1 0.53510545E-01 0.20206646E+03</pdfrwt>
<totfact> 0.11867955E+03</totfact>
</mgrwt>
</event>
<event>
 7    1  0.5928109E-006  0.1636141E+03  0.7546771E-02  0.1190539E+00
         -2   -1    0    0    0  501 -0.00000000000E+00  0.00000000000E+00  0.16051672869E+02  0.16051672869E+02  0.00000000000E+00 0.  1.
          2   -1    0    0  501    0  0.00000000000E+00 -0.00000000000E+00 -0.16022034107E+04  0.16022034107E+04  0.00000000000E+00 0. -1.
         23    2    1    2    0    0 -0.85418400692E+02 -0.62038872410E+02 -0.10718721929E+04  0.10842875937E+04  0.12499785206E+03 0.  0.
          5    1    3    3  502    0 -0.32332502689E+02 -0.85772657579E+02 -0.42544141463E+03  0.43522962537E+03  0.47000000000E+01 0. -1.
         -5    1    3    3    0  502 -0.53085898003E+02  0.23733785169E+02 -0.64643077827E+03  0.64905796831E+03  0.47000000000E+01 0. -1.
        -11    1    1    2    0    0  0.13062667396E+02  0.11875114299E+02 -0.68175248395E+01  0.18924329950E+02  0.00000000000E+00 0.  1.
         11    1    1    2    0    0  0.72355733295E+02  0.50163758111E+02 -0.50746202011E+03  0.51504315996E+03  0.00000000000E+00 0. -1.
<mgrwt>
<rscale>  0 0.15837938E+03</rscale>
<asrwt>0</asrwt>
<pdfrwt beam="2">  1        2 0.24649283E+00 0.16361414E+03</pdfrwt>
<pdfrwt beam="1">  1       -2 0.24694881E-02 0.16361414E+03</pdfrwt>
<totfact> 0.67298053E+03</totfact>
</mgrwt>
</event>
<event>
 7    1  0.5928109E-006  0.1293872E+03  0.7546771E-02  0.1242851E+00
         -1   -1    0    0    0  501 -0.00000000000E+00  0.00000000000E+00  0.22629693353E+02  0.22629693353E+02  0.00000000000E+00 0.  1.
          1   -1    0    0  501    0  0.00000000000E+00 -0.00000000000E+00 -0.75147805721E+03  0.75147805721E+03  0.00000000000E+00 0. -1.
         23    2    1    2    0    0  0.73687159111E+01  0.29063466940E+02 -0.59717447783E+03  0.61103060747E+03  0.12586525816E+03 0.  0.
          5    1    3    3  502    0  0.54603206327E+02  0.50296845902E+02 -0.41347310585E+03  0.42011115447E+03  0.47000000000E+01 0. -1.
         -5    1    3    3    0  502 -0.47234490416E+02 -0.21233378963E+02 -0.18370137199E+03  0.19091945301E+03  0.47000000000E+01 0.  1.
        -11    1    1    2    0    0  0.20733997031E+02 -0.46202701318E+02 -0.36647285953E+02  0.62510893528E+02  0.00000000000E+00 0.  1.
         11    1    1    2    0    0 -0.28102712943E+02  0.17139234378E+02 -0.95026600072E+02  0.10056624956E+03  0.00000000000E+00 0. -1.
<mgrwt>
<rscale>  0 0.12014957E+03</rscale>
<asrwt>0</asrwt>
<pdfrwt beam="2">  1        1 0.11561198E+00 0.12938720E+03</pdfrwt>
<pdfrwt beam="1">  1       -1 0.34814921E-02 0.12938720E+03</pdfrwt>
<totfact> 0.73752030E+03</totfact>
</mgrwt>
</event>
<event>
 7    1  0.5928109E-006  0.1339734E+03  0.7546771E-02  0.1233915E+00
         -2   -1    0    0    0  501 -0.00000000000E+00  0.00000000000E+00  0.50345205576E+02  0.50345205576E+02  0.00000000000E+00 0. -1.
          2   -1    0    0  501    0  0.00000000000E+00 -0.00000000000E+00 -0.46046513736E+03  0.46046513736E+03  0.00000000000E+00 0.  1.
         23    2    1    2    0    0  0.10694919538E+02 -0.47022905179E+02 -0.37947218089E+03  0.40242763833E+03  0.12499333225E+03 0.  0.
          5    1    3    3  502    0  0.66388183654E+02 -0.23750138254E+02 -0.16322040059E+03  0.17786075780E+03  0.47000000000E+01 0. -1.
         -5    1    3    3    0  502 -0.55693264116E+02 -0.23272766925E+02 -0.21625178030E+03  0.22456688053E+03  0.47000000000E+01 0. -1.
        -11    1    1    2    0    0  0.32563041935E+02  0.22754562876E+02  0.13524219902E+02  0.41964584541E+02  0.00000000000E+00 0. -1.
         11    1    1    2    0    0 -0.43257961473E+02  0.24268342303E+02 -0.44171970795E+02  0.66418120064E+02  0.00000000000E+00 0.  1.
<mgrwt>
<rscale>  0 0.12574180E+03</rscale>
<asrwt>0</asrwt>
<pdfrwt beam="2">  1        2 0.70840793E-01 0.13397339E+03</pdfrwt>
<pdfrwt beam="1">  1       -2 0.77454160E-02 0.13397339E+03</pdfrwt>
<totfact> 0.65071864E+03</totfact>
</mgrwt>
</event>
<event>
 7    1  0.5928109E-006  0.1437733E+03  0.7546771E-02  0.1218831E+00
         -2   -1    0    0    0  501 -0.00000000000E+00  0.00000000000E+00  0.13255966951E+02  0.13255966951E+02  0.00000000000E+00 0.  1.
          2   -1    0    0  501    0  0.00000000000E+00 -0.00000000000E+00 -0.15980110952E+04  0.15980110952E+04  0.00000000000E+00 0. -1.
         23    2    1    2    0    0  0.70322363412E+02  0.10014419308E+02 -0.12285952045E+04  0.12369789513E+04  0.12500090361E+03 0.  0.
          5    1    3    3  502    0  0.10602289908E+03 -0.87523809900E+00 -0.91679626805E+03  0.92291879831E+03  0.47000000000E+01 0. -1.
         -5    1    3    3    0  502 -0.35700535667E+02  0.10889657407E+02 -0.31179893649E+03  0.31406015297E+03  0.47000000000E+01 0. -1.
        -11    1    1    2    0    0  0.26298592775E+01 -0.30052415575E+02 -0.18087682532E+03  0.18337527036E+03  0.00000000000E+00 0. -1.
         11    1    1    2    0    0 -0.72952222690E+02  0.20037996267E+02 -0.17528309835E+03  0.19091284047E+03  0.00000000000E+00 0.  1.
<mgrwt>
<rscale>  0 0.13598830E+03</rscale>
<asrwt>0</asrwt>
<pdfrwt beam="2">  1        2 0.24584788E+00 0.14377326E+03</pdfrwt>
<pdfrwt beam="1">  1       -2 0.20393793E-02 0.14377326E+03</pdfrwt>
<totfact> 0.89092789E+03</totfact>
</mgrwt>
</event>
<event>
 7    1  0.5928109E-006  0.1292402E+03  0.7546771E-02  0.1241812E+00
          2   -1    0    0  501    0  0.00000000000E+00  0.00000000000E+00  0.13550463959E+04  0.13550463959E+04  0.00000000000E+00 0. -1.
         -2   -1    0    0    0  501 -0.00000000000E+00 -0.00000000000E+00 -0.27056557864E+02  0.27056557864E+02  0.00000000000E+00 0.  1.
         23    2    1    2    0    0  0.16756957884E+02  0.28231337189E+02  0.12492848212E+04  0.12559520628E+04  0.12500086217E+03 0.  0.
          5    1    3    3  502    0 -0.33605215045E+02 -0.12395867766E+02  0.89801536748E+03  0.89874170830E+03  0.47000000000E+01 0. -1.
         -5    1    3    3    0  502  0.50362172929E+02  0.40627204955E+02  0.35126945370E+03  0.35721035448E+03  0.47000000000E+01 0. -1.
        -11    1    1    2    0    0  0.21619281482E+01 -0.17401514573E+02  0.96456948013E+02  0.98037898094E+02  0.00000000000E+00 0. -1.
         11    1    1    2    0    0 -0.18918886032E+02 -0.10829822616E+02 -0.17751931185E+02  0.28112992857E+02  0.00000000000E+00 0.  1.
<mgrwt>
<rscale>  0 0.12078249E+03</rscale>
<asrwt>0</asrwt>
<pdfrwt beam="1">  1        2 0.20846862E+00 0.12924016E+03</pdfrwt>
<pdfrwt beam="2">  1       -2 0.41625484E-02 0.12924016E+03</pdfrwt>
<totfact> 0.41715033E+03</totfact>
</mgrwt>
</event>
<event>
 7    1  0.5928109E-006  0.1292771E+03  0.7546771E-02  0.1256010E+00
         -2   -1    0    0    0  501 -0.00000000000E+00  0.00000000000E+00  0.50626903299E+02  0.50626903299E+02  0.00000000000E+00 0.  1.
          2   -1    0    0  501    0  0.00000000000E+00 -0.00000000000E+00 -0.30794784047E+03  0.30794784047E+03  0.00000000000E+00 0. -1.
         23    2    1    2    0    0 -0.27951327672E+02 -0.17487278317E+02 -0.25323468385E+03  0.28432439402E+03  0.12500189721E+03 0.  0.
          5    1    3    3  502    0  0.70972875932E+01 -0.57891992609E+02 -0.20126677099E+03  0.20960023235E+03  0.47000000000E+01 0. -1.
         -5    1    3    3    0  502 -0.35048615265E+02  0.40404714292E+02 -0.51967912866E+02  0.74724161665E+02  0.47000000000E+01 0. -1.
        -11    1    1    2    0    0  0.11671211064E+02 -0.16689702984E+02 -0.23999483808E+02  0.31476000007E+02  0.00000000000E+00 0. -1.
         11    1    1    2    0    0  0.16280116608E+02  0.34176981300E+02  0.19913230489E+02  0.42774349745E+02  0.00000000000E+00 0.  1.
<mgrwt>
<rscale>  0 0.11249962E+03</rscale>
<asrwt>0</asrwt>
<pdfrwt beam="2">  1        2 0.47376590E-01 0.12927705E+03</pdfrwt>
<pdfrwt beam="1">  1       -2 0.77887545E-02 0.12927705E+03</pdfrwt>
<totfact> 0.98837053E+03</totfact>
</mgrwt>
</event>
<event>
 7    1  0.5928109E-006  0.1333181E+03  0.7546771E-02  0.1234185E+00
          1   -1    0    0  501    0  0.00000000000E+00  0.00000000000E+00  0.20788896362E+03  0.20788896362E+03  0.00000000000E+00 0. -1.
         -1   -1    0    0    0  501 -0.00000000000E+00 -0.00000000000E+00 -0.13567661126E+03  0.13567661126E+03  0.00000000000E+00 0.  1.
         23    2    1    2    0    0 -0.50778307618E+02 -0.14546568788E+02  0.15893571326E+03  0.20744705780E+03  0.12240784962E+03 0.  0.
          5    1    3    3  502    0 -0.77399282914E+02  0.16520051451E+02  0.14257310988E+03  0.16313412505E+03  0.47000000000E+01 0. -1.
         -5    1    3    3    0  502  0.26620975295E+02 -0.31066620240E+02  0.16362603381E+02  0.44312932742E+02  0.47000000000E+01 0.  1.
        -11    1    1    2    0    0  0.75043675475E+02  0.73853552962E+01 -0.80007641492E+02  0.10994234579E+03  0.00000000000E+00 0.  1.
         11    1    1    2    0    0 -0.24265367856E+02  0.71612134920E+01 -0.67157194167E+01  0.26176171286E+02  0.00000000000E+00 0. -1.
<mgrwt>
<rscale>  0 0.12556744E+03</rscale>
<asrwt>0</asrwt>
<pdfrwt beam="1">  1        1 0.31982917E-01 0.13331812E+03</pdfrwt>
<pdfrwt beam="2">  1       -1 0.20873325E-01 0.13331812E+03</pdfrwt>
<totfact> 0.25460000E+03</totfact>
</mgrwt>
</event>
<event>
 7    1  0.5928109E-006  0.2706943E+03  0.7546771E-02  0.1102938E+00
          1   -1    0    0  501    0  0.00000000000E+00  0.00000000000E+00  0.16345678923E+04  0.16345678923E+04  0.00000000000E+00 0. -1.
         -1   -1    0    0    0  501 -0.00000000000E+00 -0.00000000000E+00 -0.13809498033E+03  0.13809498033E+03  0.00000000000E+00 0.  1.
         23    2    1    2    0    0 -0.16860987703E+03 -0.17093957985E+03  0.14915682169E+04  0.15159324305E+04  0.12500303003E+03 0.  0.
          5    1    3    3  502    0 -0.75811741497E+02 -0.51034835070E+00  0.46723793319E+03  0.47337200680E+03  0.47000000000E+01 0.  1.
         -5    1    3    3    0  502 -0.92798135536E+02 -0.17042923150E+03  0.10243302837E+04  0.10425604237E+04  0.47000000000E+01 0.  1.
        -11    1    1    2    0    0  0.13337970232E+03  0.16007303704E+03 -0.24198748153E+02  0.20975962812E+03  0.00000000000E+00 0.  1.
         11    1    1    2    0    0  0.35230174711E+02  0.10866542810E+02  0.29103443230E+02  0.46970814030E+02  0.00000000000E+00 0. -1.
<mgrwt>
<rscale>  0 0.26712149E+03</rscale>
<asrwt>0</asrwt>
<pdfrwt beam="1">  1        1 0.25147197E+00 0.27069427E+03</pdfrwt>
<pdfrwt beam="2">  1       -1 0.21245383E-01 0.27069427E+03</pdfrwt>
<totfact> 0.10741826E+02</totfact>
</mgrwt>
</event>
<event>
 7    1  0.5928109E-006  0.1398402E+03  0.7546771E-02  0.1225418E+00
          1   -1    0    0  501    0  0.00000000000E+00  0.00000000000E+00  0.97938087306E+03  0.97938087306E+03  0.00000000000E+00 0. -1.
         -1   -1    0    0    0  501 -0.00000000000E+00 -0.00000000000E+00 -0.20218085331E+02  0.20218085331E+02  0.00000000000E+00 0.  1.
         23    2    1    2    0    0 -0.33547417892E+01 -0.62606459639E+02  0.75830779887E+03  0.77109403025E+03  0.12499785031E+03 0.  0.
          5    1    3    3  502    0 -0.34299589694E+02  0.26008310768E+02  0.31269074391E+03  0.31567465120E+03  0.47000000000E+01 0.  1.
         -5    1    3    3    0  502  0.30944847904E+02 -0.88614770407E+02  0.44561705495E+03  0.45541937905E+03  0.47000000000E+01 0.  1.
        -11    1    1    2    0    0 -0.33524369145E+02  0.62081356663E+02  0.11294348231E+03  0.13316984782E+03  0.00000000000E+00 0. -1.
         11    1    1    2    0    0  0.36879110934E+02  0.52510297634E+00  0.87911506548E+02  0.95335080321E+02  0.00000000000E+00 0.  1.
<mgrwt>
<rscale>  0 0.13138280E+03</rscale>
<asrwt>0</asrwt>
<pdfrwt beam="1">  1        1 0.15067394E+00 0.13984021E+03</pdfrwt>
<pdfrwt beam="2">  1       -1 0.31104754E-02 0.13984021E+03</pdfrwt>
<totfact> 0.57755243E+03</totfact>
</mgrwt>
</event>
<event>
 7    1  0.5928109E-006  0.1477174E+03  0.7546771E-02  0.1212890E+00
          1   -1    0    0  501    0  0.00000000000E+00  0.00000000000E+00  0.63347176551E+03  0.63347176551E+03  0.00000000000E+00 0. -1.
         -1   -1    0    0    0  501 -0.00000000000E+00 -0.00000000000E+00 -0.52403088081E+02  0.52403088081E+02  0.00000000000E+00 0.  1.
         23    2    1    2    0    0 -0.17976615552E+02 -0.76640588384E+02  0.53829711610E+03  0.55819728230E+03  0.12499392895E+03 0.  0.
          5    1    3    3  502    0 -0.44491710899E+02 -0.93154931251E+02  0.28928030607E+03  0.30718486134E+03  0.47000000000E+01 0. -1.
         -5    1    3    3    0  502  0.26515095347E+02  0.16514342867E+02  0.24901681003E+03  0.25101242097E+03  0.47000000000E+01 0. -1.
        -11    1    1    2    0    0 -0.60756955455E+01  0.80554607435E+01  0.53292893404E+02  0.54239625843E+02  0.00000000000E+00 0. -1.
         11    1    1    2    0    0  0.24052311097E+02  0.68585127641E+02 -0.10521332075E+02  0.73437945446E+02  0.00000000000E+00 0.  1.
<mgrwt>
<rscale>  0 0.14032670E+03</rscale>
<asrwt>0</asrwt>
<pdfrwt beam="1">  1        1 0.97457189E-01 0.14771737E+03</pdfrwt>
<pdfrwt beam="2">  1       -1 0.80620140E-02 0.14771737E+03</pdfrwt>
<totfact> 0.27207565E+03</totfact>
</mgrwt>
</event>
<event>
 7    1  0.5928109E-006  0.1337060E+03  0.7546771E-02  0.1233864E+00
         -1   -1    0    0    0  501 -0.00000000000E+00  0.00000000000E+00  0.36954956406E+02  0.36954956406E+02  0.00000000000E+00 0.  1.
          1   -1    0    0  501    0  0.00000000000E+00 -0.00000000000E+00 -0.40763334647E+03  0.40763334647E+03  0.00000000000E+00 0. -1.
         23    2    1    2    0    0  0.47450492508E+02 -0.38194345744E+01 -0.15400617225E+03  0.20394897719E+03  0.12494457525E+03 0.  0.
          5    1    3    3  502    0 -0.38306785316E+02  0.21412896754E+02 -0.48155253849E+02  0.65321821943E+02  0.47000000000E+01 0.  1.
         -5    1    3    3    0  502  0.85757277825E+02 -0.25232331329E+02 -0.10585091840E+03  0.13862715525E+03  0.47000000000E+01 0.  1.
        -11    1    1    2    0    0 -0.13802529974E+02  0.37956711534E+02 -0.37314719159E+02  0.54987362640E+02  0.00000000000E+00 0.  1.
         11    1    1    2    0    0 -0.33647962534E+02 -0.34137276960E+02 -0.17935749865E+03  0.18565196305E+03  0.00000000000E+00 0. -1.
<mgrwt>
<rscale>  0 0.12577420E+03</rscale>
<asrwt>0</asrwt>
<pdfrwt beam="2">  1        1 0.62712828E-01 0.13370596E+03</pdfrwt>
<pdfrwt beam="1">  1       -1 0.56853774E-02 0.13370596E+03</pdfrwt>
<totfact> 0.81590105E+03</totfact>
</mgrwt>
</event>
<event>
 7    1  0.5928109E-006  0.1350242E+03  0.7546771E-02  0.1231643E+00
          2   -1    0    0  501    0  0.00000000000E+00  0.00000000000E+00  0.99693389431E+03  0.99693389431E+03  0.00000000000E+00 0. -1.
         -2   -1    0    0    0  501 -0.00000000000E+00 -0.00000000000E+00 -0.22083552954E+02  0.22083552954E+02  0.00000000000E+00 0.  1.
         23    2    1    2    0    0 -0.41310568465E+02 -0.29999270104E+02  0.82055971147E+03  0.83159472392E+03  0.12500010197E+03 0.  0.
          5    1    3    3  502    0 -0.95170966989E+01  0.48777017782E+02  0.29564139542E+03  0.29982611174E+03  0.47000000000E+01 0. -1.
         -5    1    3    3    0  502 -0.31793471766E+02 -0.78776287886E+02  0.52491831605E+03  0.53176861218E+03  0.47000000000E+01 0. -1.
        -11    1    1    2    0    0  0.56476968101E+02  0.16740859894E+02  0.39606840924E+02  0.70983139997E+02  0.00000000000E+00 0.  1.
         11    1    1    2    0    0 -0.15166399636E+02  0.13258410210E+02  0.11468378896E+03  0.11643958335E+03  0.00000000000E+00 0. -1.
<mgrwt>
<rscale>  0 0.12721773E+03</rscale>
<asrwt>0</asrwt>
<pdfrwt beam="1">  1        2 0.15337441E+00 0.13502424E+03</pdfrwt>
<pdfrwt beam="2">  1       -2 0.33974705E-02 0.13502424E+03</pdfrwt>
<totfact> 0.89542174E+03</totfact>
</mgrwt>
</event>
<event>
 7    1  0.5928109E-006  0.2016200E+03  0.7546771E-02  0.1152463E+00
         -2   -1    0    0    0  501 -0.00000000000E+00  0.00000000000E+00  0.15054287985E+03  0.15054287985E+03  0.00000000000E+00 0.  1.
          2   -1    0    0  501    0  0.00000000000E+00 -0.00000000000E+00 -0.39297703136E+03  0.39297703136E+03  0.00000000000E+00 0. -1.
         23    2    1    2    0    0  0.36315651709E+01 -0.15816257390E+03 -0.29111635502E+03  0.35411773534E+03  0.12498820053E+03 0.  0.
          5    1    3    3  502    0 -0.17804364975E+02 -0.15602299827E+03 -0.29250351616E+03  0.33202495142E+03  0.47000000000E+01 0.  1.
         -5    1    3    3    0  502  0.21435930146E+02 -0.21395756338E+01  0.13871611398E+01  0.22092783916E+02  0.47000000000E+01 0.  1.
        -11    1    1    2    0    0 -0.55344751219E+01  0.16419270881E+02  0.44311549312E+02  0.47578737620E+02  0.00000000000E+00 0.  1.
         11    1    1    2    0    0  0.19029099510E+01  0.14174330302E+03  0.43706542010E+01  0.14182343825E+03  0.00000000000E+00 0. -1.
<mgrwt>
<rscale>  0 0.19680498E+03</rscale>
<asrwt>0</asrwt>
<pdfrwt beam="2">  1        2 0.60458004E-01 0.20162003E+03</pdfrwt>
<pdfrwt beam="1">  1       -2 0.23160443E-01 0.20162003E+03</pdfrwt>
<totfact> 0.13188370E+03</totfact>
</mgrwt>
</event>
<event>
 7    1  0.5928109E-006  0.1256641E+03  0.7546771E-02  0.1252552E+00
         -4   -1    0    0    0  501 -0.00000000000E+00  0.00000000000E+00  0.18359514467E+03  0.18359514467E+03  0.00000000000E+00 0.  1.
          4   -1    0    0  501    0  0.00000000000E+00 -0.00000000000E+00 -0.63647523704E+02  0.63647523704E+02  0.00000000000E+00 0. -1.
         23    2    1    2    0    0  0.12862583624E+02  0.48909962506E+00  0.47129448912E+02  0.13421117139E+03  0.12500307314E+03 0.  0.
          5    1    3    3  502    0 -0.54863806305E+02  0.47098337638E+01  0.82926253958E+01  0.55884500645E+02  0.47000000000E+01 0.  1.
         -5    1    3    3    0  502  0.67726389929E+02 -0.42207341387E+01  0.38836823516E+02  0.78326670747E+02  0.47000000000E+01 0.  1.
        -11    1    1    2    0    0 -0.46458489264E+02  0.36456736756E+01  0.20946604489E+02  0.51092488693E+02  0.00000000000E+00 0. -1.
         11    1    1    2    0    0  0.33595905640E+02 -0.41347733006E+01  0.51871567563E+02  0.61939008286E+02  0.00000000000E+00 0.  1.
<mgrwt>
<rscale>  0 0.11444577E+03</rscale>
<asrwt>0</asrwt>
<pdfrwt beam="2">  1        4 0.97919268E-02 0.12566405E+03</pdfrwt>
<pdfrwt beam="1">  1       -4 0.28245407E-01 0.12566405E+03</pdfrwt>
<totfact> 0.15166708E+03</totfact>
</mgrwt>
</event>
<event>
 7    1  0.6750455E-006  0.3707975E+03  0.7546771E-02  0.1055365E+00
          1   -1    0    0  501    0  0.00000000000E+00  0.00000000000E+00  0.44606655891E+03  0.44606655891E+03  0.00000000000E+00 0. -1.
         -1   -1    0    0    0  501 -0.00000000000E+00 -0.00000000000E+00 -0.30835045117E+03  0.30835045117E+03  0.00000000000E+00 0.  1.
         23    2    1    2    0    0 -0.28643665632E+03 -0.19955107366E+03  0.13225410124E+03  0.39367742932E+03  0.12499672787E+03 0.  0.
          5    1    3    3  502    0 -0.16365249443E+03 -0.16369128674E+03  0.13029797342E+03  0.26566262094E+03  0.47000000000E+01 0.  1.
         -5    1    3    3    0  502 -0.12278416188E+03 -0.35859786916E+02  0.19561278262E+01  0.12801480838E+03  0.47000000000E+01 0.  1.
        -11    1    1    2    0    0  0.20113558555E+03  0.18240490251E+03  0.21069607209E+02  0.27234353413E+03  0.00000000000E+00 0.  1.
         11    1    1    2    0    0  0.85301070763E+02  0.17146171149E+02 -0.15607600714E+02  0.88396046622E+02  0.00000000000E+00 0. -1.
<mgrwt>
<rscale>  0 0.36824646E+03</rscale>
<asrwt>0</asrwt>
<pdfrwt beam="1">  1        1 0.68625624E-01 0.37079748E+03</pdfrwt>
<pdfrwt beam="2">  1       -1 0.47438531E-01 0.37079748E+03</pdfrwt>
<totfact> 0.23791326E+02</totfact>
</mgrwt>
</event>
<event>
 7    1  0.5928109E-006  0.1506812E+03  0.7546771E-02  0.1208828E+00
         -1   -1    0    0    0  501 -0.00000000000E+00  0.00000000000E+00  0.25389659690E+02  0.25389659690E+02  0.00000000000E+00 0.  1.
          1   -1    0    0  501    0  0.00000000000E+00 -0.00000000000E+00 -0.94574132726E+03  0.94574132726E+03  0.00000000000E+00 0. -1.
         23    2    1    2    0    0  0.72514146892E+02  0.42685891440E+02 -0.72098105737E+03  0.73655855882E+03  0.12499775459E+03 0.  0.
          5    1    3    3  502    0  0.70158263361E+02  0.81512986033E+02 -0.44643370372E+03  0.45922945313E+03  0.47000000000E+01 0.  1.
         -5    1    3    3    0  502  0.23558835316E+01 -0.38827094592E+02 -0.27454735366E+03  0.27732910569E+03  0.47000000000E+01 0.  1.
        -11    1    1    2    0    0 -0.74791318846E+02 -0.62457438917E+01 -0.79784619659E+02  0.10953691718E+03  0.00000000000E+00 0. -1.
         11    1    1    2    0    0  0.22771719538E+01 -0.36440147549E+02 -0.11958599054E+03  0.12503551095E+03  0.00000000000E+00 0.  1.
<mgrwt>
<rscale>  0 0.14339831E+03</rscale>
<asrwt>0</asrwt>
<pdfrwt beam="2">  1        1 0.14549866E+00 0.15068120E+03</pdfrwt>
<pdfrwt beam="1">  1       -1 0.39061016E-02 0.15068120E+03</pdfrwt>
<totfact> 0.43962160E+03</totfact>
</mgrwt>
</event>
<event>
 6    1  0.5928109E-006  0.2053901E+03  0.7546771E-02  0.1180643E+00
         -2   -1    0    0    0  501 -0.00000000000E+00  0.00000000000E+00  0.40439218908E+02  0.40439218908E+02  0.00000000000E+00 0.  1.
          2   -1    0    0  501    0  0.00000000000E+00 -0.00000000000E+00 -0.90551147814E+03  0.90551147814E+03  0.00000000000E+00 0. -1.
          5    1    1    2  502    0  0.78947910244E+02 -0.68761435774E+02 -0.47600612796E+03  0.48740622835E+03  0.47000000000E+01 0. -1.
         -5    1    1    2    0  502 -0.74638455609E+02  0.64648572006E+02 -0.34303324171E+03  0.35699332184E+03  0.47000000000E+01 0.  1.
        -11    1    1    2    0    0  0.23166998721E+02  0.33663306159E+02 -0.45554492456E+02  0.61197547289E+02  0.00000000000E+00 0.  1.
         11    1    1    2    0    0 -0.27476453356E+02 -0.29550442391E+02 -0.47839710681E+00  0.40353599571E+02  0.00000000000E+00 0. -1.
<mgrwt>
<rscale>  0 0.16734745E+03</rscale>
<asrwt>0</asrwt>
<pdfrwt beam="2">  1        2 0.13930946E+00 0.20539014E+03</pdfrwt>
<pdfrwt beam="1">  1       -2 0.62214182E-02 0.20539014E+03</pdfrwt>
<totfact> 0.41756703E+03</totfact>
</mgrwt>
</event>
<event>
 6    1  0.5928109E-006  0.1554242E+03  0.7546771E-02  0.1206334E+00
         -1   -1    0    0    0  501 -0.00000000000E+00  0.00000000000E+00  0.15311508725E+03  0.15311508725E+03  0.00000000000E+00 0.  1.
          1   -1    0    0  501    0  0.00000000000E+00 -0.00000000000E+00 -0.17584325942E+03  0.17584325942E+03  0.00000000000E+00 0. -1.
          5    1    1    2  502    0 -0.75784791681E+02  0.70324816854E+02 -0.65551719569E+02  0.12250727511E+03  0.47000000000E+01 0. -1.
         -5    1    1    2    0  502  0.16873874420E+02 -0.48818751363E+02 -0.36654670185E+02  0.63511046039E+02  0.47000000000E+01 0.  1.
        -11    1    1    2    0    0 -0.20616597154E+02 -0.32215939859E+02  0.20875831599E+02  0.43574203425E+02  0.00000000000E+00 0. -1.
         11    1    1    2    0    0  0.79527514415E+02  0.10709874368E+02  0.58602385990E+02  0.99365822101E+02  0.00000000000E+00 0.  1.
<mgrwt>
<rscale>  0 0.14532799E+03</rscale>
<asrwt>0</asrwt>
<pdfrwt beam="2">  1        1 0.27052809E-01 0.15542416E+03</pdfrwt>
<pdfrwt beam="1">  1       -1 0.23556167E-01 0.15542416E+03</pdfrwt>
<totfact> 0.25943645E+03</totfact>
</mgrwt>
</event>
<event>
 7    1  0.5928109E-006  0.1325304E+03  0.7546771E-02  0.1231497E+00
         -2   -1    0    0    0  501 -0.00000000000E+00  0.00000000000E+00  0.22053154900E+02  0.22053154900E+02  0.00000000000E+00 0.  1.
          2   -1    0    0  501    0  0.00000000000E+00 -0.00000000000E+00 -0.75663558846E+03  0.75663558846E+03  0.00000000000E+00 0. -1.
         23    2    1    2    0    0 -0.30089015190E+02  0.32168733285E+02 -0.51524006174E+03  0.53201187518E+03  0.12499655146E+03 0.  0.
          5    1    3    3  502    0  0.34627046812E+02  0.15459010468E+02 -0.37107163898E+03  0.37303386526E+03  0.47000000000E+01 0. -1.
         -5    1    3    3    0  502 -0.64716062002E+02  0.16709722818E+02 -0.14416842276E+03  0.15897800992E+03  0.47000000000E+01 0. -1.
        -11    1    1    2    0    0  0.50144381881E+02 -0.51464764714E+02 -0.94197343149E+02  0.11847455633E+03  0.00000000000E+00 0.  1.
         11    1    1    2    0    0 -0.20055366690E+02  0.19296031429E+02 -0.12514502867E+03  0.12820231185E+03  0.00000000000E+00 0. -1.
<mgrwt>
<rscale>  0 0.12731397E+03</rscale>
<asrwt>0</asrwt>
<pdfrwt beam="2">  1        2 0.11640546E+00 0.13253043E+03</pdfrwt>
<pdfrwt beam="1">  1       -2 0.33927934E-02 0.13253043E+03</pdfrwt>
<totfact> 0.12787067E+04</totfact>
</mgrwt>
</event>
<event>
 7    1  0.5928109E-006  0.1283682E+03  0.7546771E-02  0.1239103E+00
         -2   -1    0    0    0  501 -0.00000000000E+00  0.00000000000E+00  0.13523116435E+02  0.13523116435E+02  0.00000000000E+00 0.  1.
          2   -1    0    0  501    0  0.00000000000E+00 -0.00000000000E+00 -0.10257973888E+04  0.10257973888E+04  0.00000000000E+00 0. -1.
         23    2    1    2    0    0 -0.76289066077E+01  0.28196047250E+02 -0.59841925040E+03  0.61203267901E+03  0.12500073453E+03 0.  0.
          5    1    3    3  502    0  0.14407920612E+02 -0.22099673145E+02 -0.27276891162E+02  0.38237449195E+02  0.47000000000E+01 0.  1.
         -5    1    3    3    0  502 -0.22036827220E+02  0.50295720395E+02 -0.57114235924E+03  0.57379522982E+03  0.47000000000E+01 0.  1.
        -11    1    1    2    0    0  0.49603857765E+02  0.15793713560E+01 -0.13751240111E+03  0.14619404084E+03  0.00000000000E+00 0.  1.
         11    1    1    2    0    0 -0.41974951158E+02 -0.29775418606E+02 -0.27634262083E+03  0.28109378535E+03  0.00000000000E+00 0. -1.
<mgrwt>
<rscale>  0 0.12245392E+03</rscale>
<asrwt>0</asrwt>
<pdfrwt beam="2">  1        2 0.15781504E+00 0.12836822E+03</pdfrwt>
<pdfrwt beam="1">  1       -2 0.20804788E-02 0.12836822E+03</pdfrwt>
<totfact> 0.17585801E+04</totfact>
</mgrwt>
</event>
<event>
 7    1  0.5928109E-006  0.1589621E+03  0.7546771E-02  0.1197689E+00
         -1   -1    0    0    0  501 -0.00000000000E+00  0.00000000000E+00  0.20185881916E+02  0.20185881916E+02  0.00000000000E+00 0.  1.
          1   -1    0    0  501    0  0.00000000000E+00 -0.00000000000E+00 -0.11063521716E+04  0.11063521716E+04  0.00000000000E+00 0. -1.
         23    2    1    2    0    0 -0.85459386267E+02  0.48399239625E+02 -0.69976703609E+03  0.71759519364E+03  0.12499265590E+03 0.  0.
          5    1    3    3  502    0 -0.10544624027E+03  0.21829404245E+02 -0.64025012303E+03  0.64925938000E+03  0.47000000000E+01 0.  1.
         -5    1    3    3    0  502  0.19986854000E+02  0.26569835380E+02 -0.59516913064E+02  0.68335813638E+02  0.47000000000E+01 0.  1.
        -11    1    1    2    0    0  0.44537682500E+02  0.14233798540E+02 -0.72643542442E+02  0.86390337665E+02  0.00000000000E+00 0.  1.
         11    1    1    2    0    0  0.40921703767E+02 -0.62633038165E+02 -0.31375571114E+03  0.32255252221E+03  0.00000000000E+00 0. -1.
<mgrwt>
<rscale>  0 0.15228861E+03</rscale>
<asrwt>0</asrwt>
<pdfrwt beam="2">  1        1 0.17020802E+00 0.15896212E+03</pdfrwt>
<pdfrwt beam="1">  1       -1 0.31055205E-02 0.15896212E+03</pdfrwt>
<totfact> 0.47097884E+03</totfact>
</mgrwt>
</event>
<event>
 7    1  0.5928109E-006  0.1375638E+03  0.7546771E-02  0.1228604E+00
         -2   -1    0    0    0  501 -0.00000000000E+00  0.00000000000E+00  0.86500572762E+02  0.86500572762E+02  0.00000000000E+00 0. -1.
          2   -1    0    0  501    0  0.00000000000E+00 -0.00000000000E+00 -0.17799080734E+03  0.17799080734E+03  0.00000000000E+00 0.  1.
         23    2    1    2    0    0  0.29905677316E+02  0.49030935456E+02 -0.73134780618E+02  0.15579636937E+03  0.12500172161E+03 0.  0.
          5    1    3    3  502    0  0.34591091559E+02 -0.21164458954E+02 -0.74859015098E+02  0.85266875629E+02  0.47000000000E+01 0. -1.
         -5    1    3    3    0  502 -0.46854142432E+01  0.70195394410E+02  0.17242344796E+01  0.70529493742E+02  0.47000000000E+01 0. -1.
        -11    1    1    2    0    0 -0.16574843068E+02 -0.60483533412E+02 -0.44709078776E+02  0.77018731240E+02  0.00000000000E+00 0.  1.
         11    1    1    2    0    0 -0.13330834248E+02  0.11452597956E+02  0.26353624815E+02  0.31676279493E+02  0.00000000000E+00 0. -1.
<mgrwt>
<rscale>  0 0.12922901E+03</rscale>
<asrwt>0</asrwt>
<pdfrwt beam="2">  1        2 0.27383201E-01 0.13756385E+03</pdfrwt>
<pdfrwt beam="1">  1       -2 0.13307781E-01 0.13756385E+03</pdfrwt>
<totfact> 0.76836855E+03</totfact>
</mgrwt>
</event>
<event>
 7    1  0.5928109E-006  0.1676071E+03  0.7546771E-02  0.1186801E+00
         -1   -1    0    0    0  501 -0.00000000000E+00  0.00000000000E+00  0.16086501489E+03  0.16086501489E+03  0.00000000000E+00 0.  1.
          1   -1    0    0  501    0  0.00000000000E+00 -0.00000000000E+00 -0.17383240296E+03  0.17383240296E+03  0.00000000000E+00 0. -1.
         23    2    1    2    0    0  0.11067764126E+03  0.14707869041E+02 -0.66020370349E+02  0.18014116019E+03  0.12500514632E+03 0.  0.
          5    1    3    3  502    0  0.84706761637E+02  0.62524852253E+02 -0.68113944786E+02  0.12548383199E+03  0.47000000000E+01 0.  1.
         -5    1    3    3    0  502  0.25970879621E+02 -0.47816983212E+02  0.20935744372E+01  0.54657328198E+02  0.47000000000E+01 0.  1.
        -11    1    1    2    0    0 -0.96239530019E+02 -0.42212488723E+02  0.16157259779E+02  0.10632496596E+03  0.00000000000E+00 0. -1.
         11    1    1    2    0    0 -0.14438111239E+02  0.27504619682E+02  0.36895722508E+02  0.48231291703E+02  0.00000000000E+00 0.  1.
<mgrwt>
<rscale>  0 0.16169076E+03</rscale>
<asrwt>0</asrwt>
<pdfrwt beam="2">  1        1 0.26743446E-01 0.16760712E+03</pdfrwt>
<pdfrwt beam="1">  1       -1 0.24748464E-01 0.16760712E+03</pdfrwt>
<totfact> 0.24342874E+03</totfact>
</mgrwt>
</event>
<event>
 7    1  0.5928109E-006  0.1559825E+03  0.7546771E-02  0.1198876E+00
          1   -1    0    0  501    0  0.00000000000E+00  0.00000000000E+00  0.93093179233E+03  0.93093179233E+03  0.00000000000E+00 0. -1.
         -1   -1    0    0    0  501 -0.00000000000E+00 -0.00000000000E+00 -0.33451899732E+02  0.33451899732E+02  0.00000000000E+00 0.  1.
         23    2    1    2    0    0  0.58474869600E+02  0.52680469170E+01  0.69605613348E+03  0.70962484056E+03  0.12500484272E+03 0.  0.
          5    1    3    3  502    0 -0.25190940480E+02 -0.30553206525E+02  0.12124735894E+03  0.12763656984E+03  0.47000000000E+01 0. -1.
         -5    1    3    3    0  502  0.83665810080E+02  0.35821253442E+02  0.57480877454E+03  0.58198827072E+03  0.47000000000E+01 0. -1.
        -11    1    1    2    0    0  0.48086846628E+02  0.74597595949E+01  0.63329592371E+02  0.79866326457E+02  0.00000000000E+00 0.  1.
         11    1    1    2    0    0 -0.10656171623E+03 -0.12727806512E+02  0.13809416675E+03  0.17489252504E+03  0.00000000000E+00 0. -1.
<mgrwt>
<rscale>  0 0.15130737E+03</rscale>
<asrwt>0</asrwt>
<pdfrwt beam="1">  1        1 0.14322026E+00 0.15598250E+03</pdfrwt>
<pdfrwt beam="2">  1       -1 0.51464468E-02 0.15598250E+03</pdfrwt>
<totfact> 0.30039012E+03</totfact>
</mgrwt>
</event>
<event>
 7    1  0.5928109E-006  0.1356911E+03  0.7546771E-02  0.1230417E+00
          3   -1    0    0  501    0  0.00000000000E+00  0.00000000000E+00  0.12321997917E+04  0.12321997917E+04  0.00000000000E+00 0. -1.
         -3   -1    0    0    0  501 -0.00000000000E+00 -0.00000000000E+00 -0.12672868169E+02  0.12672868169E+02  0.00000000000E+00 0.  1.
         23    2    1    2    0    0 -0.10984231684E+01  0.52745079556E+02  0.81893198841E+03  0.83009739406E+03  0.12501532720E+03 0.  0.
          5    1    3    3  502    0  0.49619822637E+02 -0.13672407394E+02  0.28591843536E+03  0.29055206625E+03  0.47000000000E+01 0. -1.
         -5    1    3    3    0  502 -0.50718245805E+02  0.66417486950E+02  0.53301355304E+03  0.53954532781E+03  0.47000000000E+01 0. -1.
        -11    1    1    2    0    0 -0.37865446380E+02  0.12113088042E+01  0.10086455195E+03  0.10774468497E+03  0.00000000000E+00 0.  1.
         11    1    1    2    0    0  0.38963869549E+02 -0.53956388360E+02  0.29973038317E+03  0.30703058084E+03  0.00000000000E+00 0. -1.
<mgrwt>
<rscale>  0 0.12802469E+03</rscale>
<asrwt>0</asrwt>
<pdfrwt beam="1">  1        3 0.18956910E+00 0.13569113E+03</pdfrwt>
<pdfrwt beam="2">  1       -3 0.19496730E-02 0.13569113E+03</pdfrwt>
<totfact> 0.43202856E+02</totfact>
</mgrwt>
</event>
<event>
 7    1  0.5928109E-006  0.1692400E+03  0.7546771E-02  0.1185990E+00
         -2   -1    0    0    0  501 -0.00000000000E+00  0.00000000000E+00  0.39013780730E+02  0.39013780730E+02  0.00000000000E+00 0.  1.
          2   -1    0    0  501    0  0.00000000000E+00 -0.00000000000E+00 -0.68282746022E+03  0.68282746022E+03  0.00000000000E+00 0. -1.
         23    2    1    2    0    0 -0.65512190616E+02 -0.93403983019E+02 -0.44902167836E+03  0.47985689117E+03  0.12500406873E+03 0.  0.
          5    1    3    3  502    0 -0.63416897258E+02  0.36399655906E+01 -0.10926103941E+03  0.12647140760E+03  0.47000000000E+01 0. -1.
         -5    1    3    3    0  502 -0.20952933581E+01 -0.97043948610E+02 -0.33976063895E+03  0.35338548357E+03  0.47000000000E+01 0. -1.
        -11    1    1    2    0    0  0.15423549568E+02  0.40295068987E+02 -0.15057502377E+03  0.15663465852E+03  0.00000000000E+00 0. -1.
         11    1    1    2    0    0  0.50088641048E+02  0.53108914033E+02 -0.44216977355E+02  0.85349691260E+02  0.00000000000E+00 0.  1.
<mgrwt>
<rscale>  0 0.16242151E+03</rscale>
<asrwt>0</asrwt>
<pdfrwt beam="2">  1        2 0.10505038E+00 0.16923997E+03</pdfrwt>
<pdfrwt beam="1">  1       -2 0.60021202E-02 0.16923997E+03</pdfrwt>
<totfact> 0.62407404E+03</totfact>
</mgrwt>
</event>
<event>
 7    1  0.5928109E-006  0.1647675E+03  0.7546771E-02  0.1190343E+00
          2   -1    0    0  501    0  0.00000000000E+00  0.00000000000E+00  0.36712167738E+03  0.36712167738E+03  0.00000000000E+00 0.  1.
         -2   -1    0    0    0  501 -0.00000000000E+00 -0.00000000000E+00 -0.65052948396E+02  0.65052948396E+02  0.00000000000E+00 0. -1.
         23    2    1    2    0    0  0.96984620430E+02  0.46112798929E+02  0.19254017604E+03  0.25341677716E+03  0.12496374167E+03 0.  0.
          5    1    3    3  502    0 -0.11064182445E+02  0.23657935731E+01  0.10958205114E+03  0.11026481326E+03  0.47000000000E+01 0. -1.
         -5    1    3    3    0  502  0.10804880288E+03  0.43747005356E+02  0.82958124901E+02  0.14315196390E+03  0.47000000000E+01 0. -1.
        -11    1    1    2    0    0 -0.58906399274E+02  0.16526124907E+02  0.23021022354E+02  0.65368525684E+02  0.00000000000E+00 0. -1.
         11    1    1    2    0    0 -0.38078221156E+02 -0.62638923835E+02  0.86507530589E+02  0.11338932293E+03  0.00000000000E+00 0.  1.
<mgrwt>
<rscale>  0 0.15855064E+03</rscale>
<asrwt>0</asrwt>
<pdfrwt beam="1">  1        2 0.56480257E-01 0.16476754E+03</pdfrwt>
<pdfrwt beam="2">  1       -2 0.10008146E-01 0.16476754E+03</pdfrwt>
<totfact> 0.56336615E+03</totfact>
</mgrwt>
</event>
<event>
 7    1  0.5928109E-006  0.1354332E+03  0.7546771E-02  0.1232066E+00
          2   -1    0    0  501    0  0.00000000000E+00  0.00000000000E+00  0.22618345327E+03  0.22618345327E+03  0.00000000000E+00 0. -1.
         -2   -1    0    0    0  501 -0.00000000000E+00 -0.00000000000E+00 -0.87448748306E+02  0.87448748306E+02  0.00000000000E+00 0.  1.
         23    2    1    2    0    0  0.27215497959E+02  0.44484958848E+02  0.15718869200E+03  0.20748597407E+03  0.12499019821E+03 0.  0.
          5    1    3    3  502    0 -0.29524422743E+02  0.47165324959E+02  0.20667022276E+02  0.59543893276E+02  0.47000000000E+01 0.  1.
         -5    1    3    3    0  502  0.56739920702E+02 -0.26803661104E+01  0.13652166973E+03  0.14794208079E+03  0.47000000000E+01 0.  1.
        -11    1    1    2    0    0 -0.58104371629E+02 -0.13061205182E+02 -0.17501368395E+02  0.62072626647E+02  0.00000000000E+00 0. -1.
         11    1    1    2    0    0  0.30888873670E+02 -0.31423753666E+02 -0.95261863879E+00  0.44073600866E+02  0.00000000000E+00 0.  1.
<mgrwt>
<rscale>  0 0.12694155E+03</rscale>
<asrwt>0</asrwt>
<pdfrwt beam="1">  1        2 0.34797454E-01 0.13543317E+03</pdfrwt>
<pdfrwt beam="2">  1       -2 0.13453654E-01 0.13543317E+03</pdfrwt>
<totfact> 0.58206542E+03</totfact>
</mgrwt>
</event>
<event>
 7    1  0.5928109E-006  0.3272464E+03  0.7546771E-02  0.1073663E+00
          1   -1    0    0  501    0  0.00000000000E+00  0.00000000000E+00  0.17452329739E+03  0.17452329739E+03  0.00000000000E+00 0. -1.
         -1   -1    0    0    0  501 -0.00000000000E+00 -0.00000000000E+00 -0.59651202431E+03  0.59651202431E+03  0.00000000000E+00 0.  1.
         23    2    1    2    0    0 -0.30176021567E+03  0.20149035891E+02 -0.18265284432E+03  0.37476965286E+03  0.12500007902E+03 0.  0.
          5    1    3    3  502    0 -0.23976189609E+03  0.41515546970E+02 -0.86502054536E+02  0.25829053970E+03  0.47000000000E+01 0. -1.
         -5    1    3    3    0  502 -0.61998319578E+02 -0.21366511079E+02 -0.96150789783E+02  0.11647911316E+03  0.47000000000E+01 0. -1.
        -11    1    1    2    0    0  0.12300125353E+03 -0.18537827922E+02 -0.45169147932E+02  0.13233749037E+03  0.00000000000E+00 0.  1.
         11    1    1    2    0    0  0.17875896215E+03 -0.16112079689E+01 -0.19416673467E+03  0.26392817847E+03  0.00000000000E+00 0. -1.
<mgrwt>
<rscale>  0 0.32435268E+03</rscale>
<asrwt>0</asrwt>
<pdfrwt beam="1">  1        1 0.26849738E-01 0.32724644E+03</pdfrwt>
<pdfrwt beam="2">  1       -1 0.91771081E-01 0.32724644E+03</pdfrwt>
<totfact> 0.21289193E+02</totfact>
</mgrwt>
</event>
<event>
 7    1  0.5928109E-006  0.1366335E+03  0.7546771E-02  0.1230199E+00
          1   -1    0    0  501    0  0.00000000000E+00  0.00000000000E+00  0.18926080049E+03  0.18926080049E+03  0.00000000000E+00 0. -1.
         -1   -1    0    0    0  501 -0.00000000000E+00 -0.00000000000E+00 -0.82499952330E+02  0.82499952330E+02  0.00000000000E+00 0.  1.
         23    2    1    2    0    0 -0.39991975022E+02  0.37989761495E+02  0.92529730659E+02  0.16501658208E+03  0.12500456496E+03 0.  0.
          5    1    3    3  502    0  0.21899035266E+02  0.18830510571E+02 -0.19747801617E+02  0.35301863162E+02  0.47000000000E+01 0.  1.
         -5    1    3    3    0  502 -0.61891010289E+02  0.19159250923E+02  0.11227753228E+03  0.12971471892E+03  0.47000000000E+01 0.  1.
        -11    1    1    2    0    0  0.23096920613E+02  0.25554139154E+02  0.21480351507E+02  0.40594177792E+02  0.00000000000E+00 0. -1.
         11    1    1    2    0    0  0.16895054409E+02 -0.63543900649E+02 -0.72492340062E+01  0.66149992947E+02  0.00000000000E+00 0.  1.
<mgrwt>
<rscale>  0 0.12816824E+03</rscale>
<asrwt>0</asrwt>
<pdfrwt beam="1">  1        1 0.29117046E-01 0.13663353E+03</pdfrwt>
<pdfrwt beam="2">  1       -1 0.12692300E-01 0.13663353E+03</pdfrwt>
<totfact> 0.62805928E+03</totfact>
</mgrwt>
</event>
<event>
 7    1  0.5928109E-006  0.1275899E+03  0.7546771E-02  0.1246368E+00
         -2   -1    0    0    0  501 -0.00000000000E+00  0.00000000000E+00  0.16411044608E+02  0.16411044608E+02  0.00000000000E+00 0.  1.
          2   -1    0    0  501    0  0.00000000000E+00 -0.00000000000E+00 -0.10918154576E+04  0.10918154576E+04  0.00000000000E+00 0. -1.
         23    2    1    2    0    0  0.14126200328E-01 -0.25494650257E+02 -0.90432224143E+03  0.91327865798E+03  0.12501685237E+03 0.  0.
          5    1    3    3  502    0 -0.24234141794E+02 -0.43636532902E+02 -0.14657816512E+03  0.15491510295E+03  0.47000000000E+01 0. -1.
         -5    1    3    3    0  502  0.24248267994E+02  0.18141882645E+02 -0.75774407631E+03  0.75836355503E+03  0.47000000000E+01 0. -1.
        -11    1    1    2    0    0  0.18948077474E+02  0.30412116670E+02 -0.17165008770E+03  0.17535016136E+03  0.00000000000E+00 0. -1.
         11    1    1    2    0    0 -0.18962203674E+02 -0.49174664124E+01  0.56791617136E+00  0.19597682844E+02  0.00000000000E+00 0.  1.
<mgrwt>
<rscale>  0 0.11803848E+03</rscale>
<asrwt>0</asrwt>
<pdfrwt beam="2">  1        2 0.16797161E+00 0.12758993E+03</pdfrwt>
<pdfrwt beam="1">  1       -2 0.25247761E-02 0.12758993E+03</pdfrwt>
<totfact> 0.12143864E+04</totfact>
</mgrwt>
</event>
<event>
 7    1  0.5928109E-006  0.1742817E+03  0.7546771E-02  0.1179535E+00
         -2   -1    0    0    0  501 -0.00000000000E+00  0.00000000000E+00  0.58698367010E+02  0.58698367010E+02  0.00000000000E+00 0.  1.
          2   -1    0    0  501    0  0.00000000000E+00 -0.00000000000E+00 -0.45529970087E+03  0.45529970087E+03  0.00000000000E+00 0. -1.
         23    2    1    2    0    0 -0.37129680110E+02  0.11562945171E+03 -0.22962092148E+03  0.28827048055E+03  0.12500127651E+03 0.  0.
          5    1    3    3  502    0 -0.34134709791E+02 -0.56110649770E+01 -0.83436297195E+01  0.35893852114E+02  0.47000000000E+01 0. -1.
         -5    1    3    3    0  502 -0.29949703191E+01  0.12124051669E+03 -0.22127729176E+03  0.25237662844E+03  0.47000000000E+01 0. -1.
        -11    1    1    2    0    0 -0.16796639242E+02 -0.28032466211E+02 -0.94230176867E+02  0.99736013977E+02  0.00000000000E+00 0.  1.
         11    1    1    2    0    0  0.53926319352E+02 -0.87596985499E+02 -0.72750235512E+02  0.12599157335E+03  0.00000000000E+00 0. -1.
<mgrwt>
<rscale>  0 0.16839178E+03</rscale>
<asrwt>0</asrwt>
<pdfrwt beam="2">  1        2 0.70046110E-01 0.17428168E+03</pdfrwt>
<pdfrwt beam="1">  1       -2 0.90305177E-02 0.17428168E+03</pdfrwt>
<totfact> 0.52636804E+03</totfact>
</mgrwt>
</event>
<event>
 7    1  0.5928109E-006  0.2190659E+03  0.7546771E-02  0.1137942E+00
         -2   -1    0    0    0  501 -0.00000000000E+00  0.00000000000E+00  0.49930748037E+03  0.49930748037E+03  0.00000000000E+00 0. -1.
          2   -1    0    0  501    0  0.00000000000E+00 -0.00000000000E+00 -0.95528685864E+02  0.95528685864E+02  0.00000000000E+00 0.  1.
         23    2    1    2    0    0  0.78592705697E+02  0.16182636589E+03  0.28883041932E+03  0.36250912727E+03  0.12500108055E+03 0.  0.
          5    1    3    3  502    0  0.61378629897E+02  0.15131744305E+03  0.29801741207E+03  0.33985404614E+03  0.47000000000E+01 0.  1.
         -5    1    3    3    0  502  0.17214075801E+02  0.10508922836E+02 -0.91869927501E+01  0.22655081122E+02  0.47000000000E+01 0.  1.
        -11    1    1    2    0    0 -0.89039896121E+01 -0.11482106126E+03  0.47599093003E+02  0.12461472944E+03  0.00000000000E+00 0.  1.
         11    1    1    2    0    0 -0.69688716085E+02 -0.47005304634E+02  0.67349282178E+02  0.10771230952E+03  0.00000000000E+00 0. -1.
<mgrwt>
<rscale>  0 0.21464162E+03</rscale>
<asrwt>0</asrwt>
<pdfrwt beam="2">  1        2 0.14696721E-01 0.21906587E+03</pdfrwt>
<pdfrwt beam="1">  1       -2 0.76816534E-01 0.21906587E+03</pdfrwt>
<totfact> 0.62055520E+02</totfact>
</mgrwt>
</event>
<event>
 6    1  0.5928109E-006  0.2207942E+03  0.7546771E-02  0.1165075E+00
          1   -1    0    0  501    0  0.00000000000E+00  0.00000000000E+00  0.25291334966E+02  0.25291334966E+02  0.00000000000E+00 0. -1.
         -1   -1    0    0    0  501 -0.00000000000E+00 -0.00000000000E+00 -0.10421957214E+04  0.10421957214E+04  0.00000000000E+00 0.  1.
          5    1    1    2  502    0  0.11160918914E+02 -0.79396625416E+02 -0.26194560298E+03  0.27398171318E+03  0.47000000000E+01 0. -1.
         -5    1    1    2    0  502  0.32506026174E+02  0.13654485709E+03 -0.43946869286E+03  0.46136315602E+03  0.47000000000E+01 0.  1.
        -11    1    1    2    0    0 -0.36932557807E+00 -0.36355965905E+02 -0.47164015451E+02  0.59551129391E+02  0.00000000000E+00 0.  1.
         11    1    1    2    0    0 -0.43297619510E+02 -0.20792265766E+02 -0.26832607510E+03  0.27259105773E+03  0.00000000000E+00 0. -1.
<mgrwt>
<rscale>  0 0.18284806E+03</rscale>
<asrwt>0</asrwt>
<pdfrwt beam="1">  1        1 0.38909745E-02 0.22079416E+03</pdfrwt>
<pdfrwt beam="2">  1       -1 0.16033781E+00 0.22079416E+03</pdfrwt>
<totfact> 0.74531555E+02</totfact>
</mgrwt>
</event>
<event>
 7    1  0.5928109E-006  0.1153781E+03  0.7546771E-02  0.1260173E+00
          1   -1    0    0  501    0  0.00000000000E+00  0.00000000000E+00  0.24424210473E+03  0.24424210473E+03  0.00000000000E+00 0. -1.
         -1   -1    0    0    0  501 -0.00000000000E+00 -0.00000000000E+00 -0.74330526795E+02  0.74330526795E+02  0.00000000000E+00 0.  1.
         23    2    1    2    0    0 -0.17530974795E+02 -0.24195280036E+02  0.18822439398E+03  0.22077256533E+03  0.11144216644E+03 0.  0.
          5    1    3    3  502    0 -0.48140685504E+02 -0.50590134945E+02  0.14718697006E+03  0.16298153733E+03  0.47000000000E+01 0. -1.
         -5    1    3    3    0  502  0.30609710710E+02  0.26394854909E+02  0.41037423918E+02  0.57791027999E+02  0.47000000000E+01 0.  1.
        -11    1    1    2    0    0 -0.14854722369E+02  0.45755804797E+02 -0.30582793376E+02  0.57004944522E+02  0.00000000000E+00 0.  1.
         11    1    1    2    0    0  0.32385697163E+02 -0.21560524762E+02  0.12269977335E+02  0.40795121676E+02  0.00000000000E+00 0. -1.
<mgrwt>
<rscale>  0 0.11021475E+03</rscale>
<asrwt>0</asrwt>
<pdfrwt beam="1">  1        1 0.37575708E-01 0.11537809E+03</pdfrwt>
<pdfrwt beam="2">  1       -1 0.11435466E-01 0.11537809E+03</pdfrwt>
<totfact> 0.53197121E+03</totfact>
</mgrwt>
</event>
<event>
 7    1  0.5928109E-006  0.2948168E+03  0.7546771E-02  0.1089561E+00
         -1   -1    0    0    0  501 -0.00000000000E+00  0.00000000000E+00  0.25756741507E+03  0.25756741507E+03  0.00000000000E+00 0.  1.
          1   -1    0    0  501    0  0.00000000000E+00 -0.00000000000E+00 -0.33007072173E+03  0.33007072173E+03  0.00000000000E+00 0. -1.
         23    2    1    2    0    0 -0.30999233818E+02 -0.26519575381E+03 -0.80799263374E+02  0.30568848052E+03  0.12500874299E+03 0.  0.
          5    1    3    3  502    0  0.93188166043E+01 -0.17768663122E+03  0.28363228337E+01  0.17801548805E+03  0.47000000000E+01 0.  1.
         -5    1    3    3    0  502 -0.40318050422E+02 -0.87509122591E+02 -0.83635586207E+02  0.12767299247E+03  0.47000000000E+01 0.  1.
        -11    1    1    2    0    0 -0.26495966307E+02  0.63442139966E+02  0.20687932526E+02  0.71797854468E+02  0.00000000000E+00 0.  1.
         11    1    1    2    0    0  0.57495200125E+02  0.20175361385E+03 -0.12391975814E+02  0.21015180181E+03  0.00000000000E+00 0. -1.
<mgrwt>
<rscale>  0 0.29151440E+03</rscale>
<asrwt>0</asrwt>
<pdfrwt beam="2">  1        1 0.50780111E-01 0.29481677E+03</pdfrwt>
<pdfrwt beam="1">  1       -1 0.39625756E-01 0.29481677E+03</pdfrwt>
<totfact> 0.48911214E+02</totfact>
</mgrwt>
</event>
<event>
 7    1  0.5928109E-006  0.1572296E+03  0.7546771E-02  0.1199403E+00
         -1   -1    0    0    0  501 -0.00000000000E+00  0.00000000000E+00  0.19676635779E+02  0.19676635779E+02  0.00000000000E+00 0.  1.
          1   -1    0    0  501    0  0.00000000000E+00 -0.00000000000E+00 -0.11697715868E+04  0.11697715868E+04  0.00000000000E+00 0. -1.
         23    2    1    2    0    0  0.88107442604E+02 -0.36523375141E+02 -0.78943024838E+03  0.80493556103E+03  0.12499704789E+03 0.  0.
          5    1    3    3  502    0 -0.37203132642E+01 -0.57673794034E+02 -0.40321736700E+03  0.40736524435E+03  0.47000000000E+01 0. -1.
         -5    1    3    3    0  502  0.91827755869E+02  0.21150418893E+02 -0.38621288138E+03  0.39757031668E+03  0.47000000000E+01 0. -1.
        -11    1    1    2    0    0 -0.10508311491E+03  0.36474371412E+02 -0.34020308672E+03  0.35792594349E+03  0.00000000000E+00 0. -1.
         11    1    1    2    0    0  0.16975672303E+02  0.49003729266E-01 -0.20461615962E+02  0.26586718099E+02  0.00000000000E+00 0.  1.
<mgrwt>
<rscale>  0 0.15087405E+03</rscale>
<asrwt>0</asrwt>
<pdfrwt beam="2">  1        1 0.17996482E+00 0.15722958E+03</pdfrwt>
<pdfrwt beam="1">  1       -1 0.30271753E-02 0.15722958E+03</pdfrwt>
<totfact> 0.44124140E+03</totfact>
</mgrwt>
</event>
<event>
 7    1  0.5928109E-006  0.2206844E+03  0.7546771E-02  0.1136590E+00
         -4   -1    0    0    0  501 -0.00000000000E+00  0.00000000000E+00  0.12842293898E+03  0.12842293898E+03  0.00000000000E+00 0.  1.
          4   -1    0    0  501    0  0.00000000000E+00 -0.00000000000E+00 -0.38301312305E+03  0.38301312305E+03  0.00000000000E+00 0. -1.
         23    2    1    2    0    0 -0.53174775617E+02  0.17392274754E+03 -0.20549443189E+03  0.30154528557E+03  0.12499967535E+03 0.  0.
          5    1    3    3  502    0 -0.93224952856E+02  0.13561467717E+03 -0.14522179621E+03  0.21953061881E+03  0.47000000000E+01 0.  1.
         -5    1    3    3    0  502  0.40050177238E+02  0.38308070366E+02 -0.60272635684E+02  0.82014666763E+02  0.47000000000E+01 0.  1.
        -11    1    1    2    0    0  0.79538868555E+02 -0.12432443090E+03 -0.30380176340E+02  0.15068493901E+03  0.00000000000E+00 0.  1.
         11    1    1    2    0    0 -0.26364092937E+02 -0.49598316643E+02 -0.18715575840E+02  0.59205837459E+02  0.00000000000E+00 0. -1.
<mgrwt>
<rscale>  0 0.21640756E+03</rscale>
<asrwt>0</asrwt>
<pdfrwt beam="2">  1        4 0.58925095E-01 0.22068438E+03</pdfrwt>
<pdfrwt beam="1">  1       -4 0.19757375E-01 0.22068438E+03</pdfrwt>
<totfact> 0.11449296E+02</totfact>
</mgrwt>
</event>
<event>
 7    1  0.5928109E-006  0.1406982E+03  0.7546771E-02  0.1222972E+00
         -4   -1    0    0    0  501 -0.00000000000E+00  0.00000000000E+00  0.10765543905E+03  0.10765543905E+03  0.00000000000E+00 0.  1.
          4   -1    0    0  501    0  0.00000000000E+00 -0.00000000000E+00 -0.14954708667E+03  0.14954708667E+03  0.00000000000E+00 0. -1.
         23    2    1    2    0    0 -0.60338597554E+02  0.23005925299E+02 -0.31246660788E+02  0.14412610161E+03  0.12500384155E+03 0.  0.
          5    1    3    3  502    0  0.20829068289E+02  0.46969473062E+01  0.32522368473E+02  0.39188083021E+02  0.47000000000E+01 0.  1.
         -5    1    3    3    0  502 -0.81167665843E+02  0.18308977993E+02 -0.63769029261E+02  0.10493801859E+03  0.47000000000E+01 0.  1.
        -11    1    1    2    0    0  0.68211141068E+02 -0.92003864131E+01  0.25651269482E+02  0.73453349155E+02  0.00000000000E+00 0.  1.
         11    1    1    2    0    0 -0.78725435146E+01 -0.13805538886E+02 -0.36296256316E+02  0.39623074942E+02  0.00000000000E+00 0. -1.
<mgrwt>
<rscale>  0 0.13306877E+03</rscale>
<asrwt>0</asrwt>
<pdfrwt beam="2">  1        4 0.23007244E-01 0.14069819E+03</pdfrwt>
<pdfrwt beam="1">  1       -4 0.16562375E-01 0.14069819E+03</pdfrwt>
<totfact> 0.91975327E+02</totfact>
</mgrwt>
</event>
<event>
 7    1  0.5928109E-006  0.1543908E+03  0.7546771E-02  0.1202604E+00
         -3   -1    0    0    0  501 -0.00000000000E+00  0.00000000000E+00  0.19651196876E+03  0.19651196876E+03  0.00000000000E+00 0.  1.
          3   -1    0    0  501    0  0.00000000000E+00 -0.00000000000E+00 -0.17331876473E+03  0.17331876473E+03  0.00000000000E+00 0. -1.
         23    2    1    2    0    0  0.72280084120E+02 -0.53438102863E+02 -0.10466272223E+03  0.18652295821E+03  0.12552484660E+03 0.  0.
          5    1    3    3  502    0  0.24292029934E+02 -0.20171050839E+02 -0.12145765277E+03  0.12558274335E+03  0.47000000000E+01 0. -1.
         -5    1    3    3    0  502  0.47988054186E+02 -0.33267052024E+02  0.16794930540E+02  0.60940214857E+02  0.47000000000E+01 0.  1.
        -11    1    1    2    0    0 -0.96607074545E+01 -0.26761391198E+02  0.18506685566E+02  0.33941106906E+02  0.00000000000E+00 0. -1.
         11    1    1    2    0    0 -0.62619376666E+02  0.80199494061E+02  0.10934924069E+03  0.14936666837E+03  0.00000000000E+00 0.  1.
<mgrwt>
<rscale>  0 0.14827886E+03</rscale>
<asrwt>0</asrwt>
<pdfrwt beam="2">  1        3 0.26664425E-01 0.15439083E+03</pdfrwt>
<pdfrwt beam="1">  1       -3 0.30232610E-01 0.15439083E+03</pdfrwt>
<totfact> 0.33447054E+02</totfact>
</mgrwt>
</event>
<event>
 7    1  0.5928109E-006  0.1299886E+03  0.7546771E-02  0.1236091E+00
         -2   -1    0    0    0  501 -0.00000000000E+00  0.00000000000E+00  0.17061954448E+02  0.17061954448E+02  0.00000000000E+00 0.  1.
          2   -1    0    0  501    0  0.00000000000E+00 -0.00000000000E+00 -0.85680825816E+03  0.85680825816E+03  0.00000000000E+00 0. -1.
         23    2    1    2    0    0  0.18914916475E+02  0.50842884340E+02 -0.52415982729E+03  0.54003755410E+03  0.11812816069E+03 0.  0.
          5    1    3    3  502    0  0.57924706266E+02 -0.55226925831E+01 -0.18514962082E+03  0.19413460233E+03  0.47000000000E+01 0. -1.
         -5    1    3    3    0  502 -0.39009789791E+02  0.56365576923E+02 -0.33901020646E+03  0.34590295178E+03  0.47000000000E+01 0.  1.
        -11    1    1    2    0    0 -0.33919230655E+02  0.50086141053E+01 -0.42085868984E+02  0.54284627581E+02  0.00000000000E+00 0.  1.
         11    1    1    2    0    0  0.15004314180E+02 -0.55851498445E+02 -0.27350060744E+03  0.27954803093E+03  0.00000000000E+00 0. -1.
<mgrwt>
<rscale>  0 0.12434865E+03</rscale>
<asrwt>0</asrwt>
<pdfrwt beam="2">  1        2 0.13181662E+00 0.12998860E+03</pdfrwt>
<pdfrwt beam="1">  1       -2 0.26249168E-02 0.12998860E+03</pdfrwt>
<totfact> 0.15941949E+04</totfact>
</mgrwt>
</event>
<event>
 7    1  0.5928109E-006  0.1660798E+03  0.7546771E-02  0.1190000E+00
         -1   -1    0    0    0  501 -0.00000000000E+00  0.00000000000E+00  0.15814228375E+03  0.15814228375E+03  0.00000000000E+00 0.  1.
          1   -1    0    0  501    0  0.00000000000E+00 -0.00000000000E+00 -0.15863531498E+03  0.15863531498E+03  0.00000000000E+00 0. -1.
         23    2    1    2    0    0  0.72479715040E+02 -0.81858795794E+02 -0.42759248705E+02  0.17149597518E+03  0.12501337773E+03 0.  0.
          5    1    3    3  502    0  0.81691635174E+02 -0.99921724932E+02 -0.60451037289E+01  0.12929233407E+03  0.47000000000E+01 0. -1.
         -5    1    3    3    0  502 -0.92119201338E+01  0.18062929138E+02 -0.36714144976E+02  0.42203641110E+02  0.47000000000E+01 0. -1.
        -11    1    1    2    0    0 -0.47092371172E+02  0.33738436419E+02  0.64331422051E+02  0.86570811350E+02  0.00000000000E+00 0.  1.
         11    1    1    2    0    0 -0.25387343868E+02  0.48120359376E+02 -0.22065204578E+02  0.58710812191E+02  0.00000000000E+00 0. -1.
<mgrwt>
<rscale>  0 0.15885083E+03</rscale>
<asrwt>0</asrwt>
<pdfrwt beam="2">  1        1 0.24405433E-01 0.16607985E+03</pdfrwt>
<pdfrwt beam="1">  1       -1 0.24329582E-01 0.16607985E+03</pdfrwt>
<totfact> 0.28089558E+03</totfact>
</mgrwt>
</event>
<event>
 7    1  0.5928109E-006  0.1371769E+03  0.7546771E-02  0.1230354E+00
         -2   -1    0    0    0  501 -0.00000000000E+00  0.00000000000E+00  0.10988453138E+03  0.10988453138E+03  0.00000000000E+00 0.  1.
          2   -1    0    0  501    0  0.00000000000E+00 -0.00000000000E+00 -0.40920942922E+03  0.40920942922E+03  0.00000000000E+00 0. -1.
         23    2    1    2    0    0  0.36659661564E+02  0.43043927932E+02 -0.36904469061E+03  0.39371499176E+03  0.12498320108E+03 0.  0.
          5    1    3    3  502    0  0.59196556100E+02  0.49815115820E+02 -0.11586580813E+03  0.13940141144E+03  0.47000000000E+01 0.  1.
         -5    1    3    3    0  502 -0.22536894536E+02 -0.67711878879E+01 -0.25317888248E+03  0.25431358032E+03  0.47000000000E+01 0.  1.
        -11    1    1    2    0    0  0.25445881365E+02 -0.32382544373E+02  0.28349990940E+02  0.49998440424E+02  0.00000000000E+00 0.  1.
         11    1    1    2    0    0 -0.62105542929E+02 -0.10661383559E+02  0.41369801820E+02  0.75380528418E+02  0.00000000000E+00 0. -1.
<mgrwt>
<rscale>  0 0.12806626E+03</rscale>
<asrwt>0</asrwt>
<pdfrwt beam="2">  1        2 0.62955297E-01 0.13717693E+03</pdfrwt>
<pdfrwt beam="1">  1       -2 0.16905313E-01 0.13717693E+03</pdfrwt>
<totfact> 0.21339899E+03</totfact>
</mgrwt>
</event>
<event>
 7    1  0.5928109E-006  0.1442973E+03  0.7546771E-02  0.1216792E+00
          1   -1    0    0  501    0  0.00000000000E+00  0.00000000000E+00  0.64955408488E+02  0.64955408488E+02  0.00000000000E+00 0. -1.
         -1   -1    0    0    0  501 -0.00000000000E+00 -0.00000000000E+00 -0.27148672637E+03  0.27148672637E+03  0.00000000000E+00 0.  1.
         23    2    1    2    0    0  0.11826686045E+02  0.71116669294E+02 -0.90285334835E+02  0.17021498784E+03  0.12499699694E+03 0.  0.
          5    1    3    3  502    0  0.38830992196E+02  0.98119610106E+02 -0.70004216158E+02  0.12672010149E+03  0.47000000000E+01 0.  1.
         -5    1    3    3    0  502 -0.27004306151E+02 -0.27002940812E+02 -0.20281118677E+02  0.43494886343E+02  0.47000000000E+01 0.  1.
        -11    1    1    2    0    0  0.29981482705E+02 -0.12542386633E+02 -0.37947564581E+01  0.32720038879E+02  0.00000000000E+00 0. -1.
         11    1    1    2    0    0 -0.41808168750E+02 -0.58574282661E+02 -0.11245122659E+03  0.13350710815E+03  0.00000000000E+00 0.  1.
<mgrwt>
<rscale>  0 0.13745689E+03</rscale>
<asrwt>0</asrwt>
<pdfrwt beam="1">  1        1 0.99931396E-02 0.14429726E+03</pdfrwt>
<pdfrwt beam="2">  1       -1 0.41767189E-01 0.14429726E+03</pdfrwt>
<totfact> 0.35375267E+03</totfact>
</mgrwt>
</event>
<event>
 7    1  0.5928109E-006  0.1508614E+03  0.7546771E-02  0.1208251E+00
          2   -1    0    0  501    0  0.00000000000E+00  0.00000000000E+00  0.11050561705E+04  0.11050561705E+04  0.00000000000E+00 0. -1.
         -2   -1    0    0    0  501 -0.00000000000E+00 -0.00000000000E+00 -0.18230487030E+02  0.18230487030E+02  0.00000000000E+00 0.  1.
         23    2    1    2    0    0 -0.79526607865E+02 -0.28449658491E+02  0.72652620691E+03  0.74202392181E+03  0.12500122711E+03 0.  0.
          5    1    3    3  502    0 -0.10250979284E+03  0.16440691752E+01  0.38762866203E+03  0.40098507481E+03  0.47000000000E+01 0. -1.
         -5    1    3    3    0  502  0.22983184973E+02 -0.30093727666E+02  0.33889754488E+03  0.34103884700E+03  0.47000000000E+01 0. -1.
        -11    1    1    2    0    0 -0.18032882210E+02  0.73029186512E+00  0.10528056219E+03  0.10681626721E+03  0.00000000000E+00 0. -1.
         11    1    1    2    0    0  0.97559490075E+02  0.27719366626E+02  0.25501891437E+03  0.27444646850E+03  0.00000000000E+00 0.  1.
<mgrwt>
<rscale>  0 0.14384159E+03</rscale>
<asrwt>0</asrwt>
<pdfrwt beam="1">  1        2 0.17000859E+00 0.15086143E+03</pdfrwt>
<pdfrwt beam="2">  1       -2 0.28046912E-02 0.15086143E+03</pdfrwt>
<totfact> 0.10324868E+04</totfact>
</mgrwt>
</event>
<event>
 7    1  0.5928109E-006  0.1481612E+03  0.7546771E-02  0.1211861E+00
          3   -1    0    0  501    0  0.00000000000E+00  0.00000000000E+00  0.67429074875E+02  0.67429074875E+02  0.00000000000E+00 0. -1.
         -3   -1    0    0    0  501 -0.00000000000E+00 -0.00000000000E+00 -0.28570589168E+03  0.28570589168E+03  0.00000000000E+00 0.  1.
         23    2    1    2    0    0 -0.21751886200E+02 -0.76509498758E+02 -0.78415029035E+02  0.16763252770E+03  0.12499959845E+03 0.  0.
          5    1    3    3  502    0  0.30303934884E+02  0.16589549870E+02 -0.42531774540E+02  0.54996213322E+02  0.47000000000E+01 0. -1.
         -5    1    3    3    0  502 -0.52055821084E+02 -0.93099048628E+02 -0.35883254495E+02  0.11263631438E+03  0.47000000000E+01 0. -1.
        -11    1    1    2    0    0  0.52494616283E+02  0.19559378839E+02 -0.77508982061E+02  0.95634179765E+02  0.00000000000E+00 0. -1.
         11    1    1    2    0    0 -0.30742730083E+02  0.56950119919E+02 -0.62352805710E+02  0.89868259089E+02  0.00000000000E+00 0.  1.
<mgrwt>
<rscale>  0 0.14109646E+03</rscale>
<asrwt>0</asrwt>
<pdfrwt beam="1">  1        3 0.10373704E-01 0.14816122E+03</pdfrwt>
<pdfrwt beam="2">  1       -3 0.43954753E-01 0.14816122E+03</pdfrwt>
<totfact> 0.83873233E+02</totfact>
</mgrwt>
</event>
<event>
 7    1  0.5928109E-006  0.2893399E+03  0.7546771E-02  0.1092482E+00
         -2   -1    0    0    0  501 -0.00000000000E+00  0.00000000000E+00  0.36093944785E+02  0.36093944785E+02  0.00000000000E+00 0.  1.
          2   -1    0    0  501    0  0.00000000000E+00 -0.00000000000E+00 -0.22173662178E+04  0.22173662178E+04  0.00000000000E+00 0. -1.
         23    2    1    2    0    0 -0.15960810751E+02 -0.26045686796E+03 -0.10716474257E+04  0.11100206345E+04  0.12500030582E+03 0.  0.
          5    1    3    3  502    0 -0.12947768825E+02 -0.14763018451E+02 -0.14954890210E+02  0.25126284495E+02  0.47000000000E+01 0.  1.
         -5    1    3    3    0  502 -0.30130419266E+01 -0.24569384951E+03 -0.10566925355E+04  0.10848943500E+04  0.47000000000E+01 0.  1.
        -11    1    1    2    0    0 -0.36644099460E+02  0.13635889084E+03 -0.57683684893E+03  0.59386638853E+03  0.00000000000E+00 0.  1.
         11    1    1    2    0    0  0.52604910211E+02  0.12409797712E+03 -0.53278799842E+03  0.54957313959E+03  0.00000000000E+00 0. -1.
<mgrwt>
<rscale>  0 0.28595070E+03</rscale>
<asrwt>0</asrwt>
<pdfrwt beam="2">  1        2 0.34113333E+00 0.28933995E+03</pdfrwt>
<pdfrwt beam="1">  1       -2 0.55529135E-02 0.28933995E+03</pdfrwt>
<totfact> 0.94811149E+02</totfact>
</mgrwt>
</event>
<event>
 7    1  0.5928109E-006  0.1359186E+03  0.7546771E-02  0.1230743E+00
         -1   -1    0    0    0  501 -0.00000000000E+00  0.00000000000E+00  0.30675519366E+02  0.30675519366E+02  0.00000000000E+00 0. -1.
          1   -1    0    0  501    0  0.00000000000E+00 -0.00000000000E+00 -0.66103664095E+03  0.66103664095E+03  0.00000000000E+00 0.  1.
         23    2    1    2    0    0 -0.50687924691E+02 -0.16713874793E+02 -0.52406820675E+03  0.54140682707E+03  0.12500099101E+03 0.  0.
          5    1    3    3  502    0 -0.42513903569E+02  0.23965180729E+02 -0.47256889472E+03  0.47510547476E+03  0.47000000000E+01 0. -1.
         -5    1    3    3    0  502 -0.81740211216E+01 -0.40679055522E+02 -0.51499312028E+02  0.66301352315E+02  0.47000000000E+01 0. -1.
        -11    1    1    2    0    0  0.41038796384E+02 -0.18054536861E+02 -0.79266481542E+01  0.45529999570E+02  0.00000000000E+00 0. -1.
         11    1    1    2    0    0  0.96491283072E+01  0.34768411655E+02 -0.98366266679E+02  0.10477533367E+03  0.00000000000E+00 0.  1.
<mgrwt>
<rscale>  0 0.12780940E+03</rscale>
<asrwt>0</asrwt>
<pdfrwt beam="2">  1        1 0.10169796E+00 0.13591860E+03</pdfrwt>
<pdfrwt beam="1">  1       -1 0.47193101E-02 0.13591860E+03</pdfrwt>
<totfact> 0.56849512E+03</totfact>
</mgrwt>
</event>
<event>
 7    1  0.5928109E-006  0.1361108E+03  0.7546771E-02  0.1232202E+00
          1   -1    0    0  501    0  0.00000000000E+00  0.00000000000E+00  0.14862468782E+03  0.14862468782E+03  0.00000000000E+00 0. -1.
         -1   -1    0    0    0  501 -0.00000000000E+00 -0.00000000000E+00 -0.11247237975E+03  0.11247237975E+03  0.00000000000E+00 0.  1.
         23    2    1    2    0    0  0.37669852807E+02  0.38391959143E+02  0.69893232753E+02  0.15300724681E+03  0.12503276872E+03 0.  0.
          5    1    3    3  502    0  0.23464316536E+02  0.34478610406E+02  0.10584916651E+03  0.11386608265E+03  0.47000000000E+01 0.  1.
         -5    1    3    3    0  502  0.14205536271E+02  0.39133487369E+01 -0.35955933760E+02  0.39141164158E+02  0.47000000000E+01 0.  1.
        -11    1    1    2    0    0 -0.61492400001E+02 -0.19155439868E+02 -0.41351229382E+02  0.76538685028E+02  0.00000000000E+00 0.  1.
         11    1    1    2    0    0  0.23822547194E+02 -0.19236519275E+02  0.76103046996E+01  0.31551135736E+02  0.00000000000E+00 0. -1.
<mgrwt>
<rscale>  0 0.12685281E+03</rscale>
<asrwt>0</asrwt>
<pdfrwt beam="1">  1        1 0.22865337E-01 0.13611081E+03</pdfrwt>
<pdfrwt beam="2">  1       -1 0.17303443E-01 0.13611081E+03</pdfrwt>
<totfact> 0.52317952E+03</totfact>
</mgrwt>
</event>
<event>
 7    1  0.5928109E-006  0.1333067E+03  0.7546771E-02  0.1235916E+00
          2   -1    0    0  501    0  0.00000000000E+00  0.00000000000E+00  0.76748191016E+02  0.76748191016E+02  0.00000000000E+00 0. -1.
         -2   -1    0    0    0  501 -0.00000000000E+00 -0.00000000000E+00 -0.21688388626E+03  0.21688388626E+03  0.00000000000E+00 0.  1.
         23    2    1    2    0    0 -0.19473965828E+02 -0.42032794299E+02 -0.17304455411E+02  0.13442518184E+03  0.12499877677E+03 0.  0.
          5    1    3    3  502    0 -0.19546469080E+02  0.37402204765E+02  0.19530942796E+02  0.46739031882E+02  0.47000000000E+01 0. -1.
         -5    1    3    3    0  502  0.72503252175E-01 -0.79434999064E+02 -0.36835398207E+02  0.87686149956E+02  0.47000000000E+01 0. -1.
        -11    1    1    2    0    0  0.17373814386E+02  0.19991737993E+02 -0.13244609720E+03  0.13506845553E+03  0.00000000000E+00 0.  1.
         11    1    1    2    0    0  0.21001514423E+01  0.22041056306E+02  0.96148573685E+01  0.24138439912E+02  0.00000000000E+00 0. -1.
<mgrwt>
<rscale>  0 0.12445974E+03</rscale>
<asrwt>0</asrwt>
<pdfrwt beam="1">  1        2 0.11807414E-01 0.13330673E+03</pdfrwt>
<pdfrwt beam="2">  1       -2 0.33366752E-01 0.13330673E+03</pdfrwt>
<totfact> 0.41764453E+03</totfact>
</mgrwt>
</event>
<event>
 7    1  0.5928109E-006  0.1478311E+03  0.7546771E-02  0.1208513E+00
         -1   -1    0    0    0  501 -0.00000000000E+00  0.00000000000E+00  0.43486945875E+02  0.43486945875E+02  0.00000000000E+00 0.  1.
          1   -1    0    0  501    0  0.00000000000E+00 -0.00000000000E+00 -0.71847017653E+03  0.71847017653E+03  0.00000000000E+00 0. -1.
         23    2    1    2    0    0  0.85134275044E+02  0.41223687822E+02 -0.58252104933E+03  0.60098653798E+03  0.11360813657E+03 0.  0.
          5    1    3    3  502    0 -0.26409654080E+02 -0.19379832729E+01 -0.79712756210E+02  0.84127516963E+02  0.47000000000E+01 0. -1.
         -5    1    3    3    0  502  0.11154392912E+03  0.43161671095E+02 -0.50280829311E+03  0.51685902101E+03  0.47000000000E+01 0.  1.
        -11    1    1    2    0    0 -0.97854583815E+02 -0.35239972362E+02 -0.10062406816E+03  0.14471550822E+03  0.00000000000E+00 0. -1.
         11    1    1    2    0    0  0.12720308771E+02 -0.59837154600E+01  0.81618868319E+01  0.16255076210E+02  0.00000000000E+00 0.  1.
<mgrwt>
<rscale>  0 0.14363996E+03</rscale>
<asrwt>0</asrwt>
<pdfrwt beam="2">  1        1 0.11053387E+00 0.14783114E+03</pdfrwt>
<pdfrwt beam="1">  1       -1 0.66902996E-02 0.14783114E+03</pdfrwt>
<totfact> 0.30145699E+03</totfact>
</mgrwt>
</event>
<event>
 7    1  0.5928109E-006  0.1716376E+03  0.7546771E-02  0.1182683E+00
          2   -1    0    0  501    0  0.00000000000E+00  0.00000000000E+00  0.28733082032E+03  0.28733082032E+03  0.00000000000E+00 0. -1.
         -2   -1    0    0    0  501 -0.00000000000E+00 -0.00000000000E+00 -0.90899875252E+02  0.90899875252E+02  0.00000000000E+00 0.  1.
         23    2    1    2    0    0  0.37571646763E+02 -0.11146444283E+03  0.13259594548E+03  0.21688975240E+03  0.12499411700E+03 0.  0.
          5    1    3    3  502    0 -0.13982458559E+02 -0.25613234180E+02  0.11029642832E+03  0.11418817370E+03  0.47000000000E+01 0. -1.
         -5    1    3    3    0  502  0.51554105322E+02 -0.85851208653E+02  0.22299517158E+02  0.10270157870E+03  0.47000000000E+01 0. -1.
        -11    1    1    2    0    0 -0.51037618247E+02  0.32439989309E+02  0.53068138367E+02  0.80457558330E+02  0.00000000000E+00 0. -1.
         11    1    1    2    0    0  0.13465971484E+02  0.79024453524E+02  0.10766861226E+02  0.80883384842E+02  0.00000000000E+00 0.  1.
<mgrwt>
<rscale>  0 0.16544496E+03</rscale>
<asrwt>0</asrwt>
<pdfrwt beam="1">  1        2 0.44204741E-01 0.17163764E+03</pdfrwt>
<pdfrwt beam="2">  1       -2 0.13984596E-01 0.17163764E+03</pdfrwt>
<totfact> 0.42898133E+03</totfact>
</mgrwt>
</event>
<event>
 7    1  0.5928109E-006  0.1645679E+03  0.7546771E-02  0.1190703E+00
         -1   -1    0    0    0  501 -0.00000000000E+00  0.00000000000E+00  0.91640266829E+02  0.91640266829E+02  0.00000000000E+00 0.  1.
          1   -1    0    0  501    0  0.00000000000E+00 -0.00000000000E+00 -0.27709347515E+03  0.27709347515E+03  0.00000000000E+00 0. -1.
         23    2    1    2    0    0 -0.71202968322E+02  0.79921633999E+02 -0.46503496415E+02  0.17101220473E+03  0.12500107483E+03 0.  0.
          5    1    3    3  502    0 -0.94791052895E+02  0.15983254724E+02 -0.26205287663E+02  0.99747758081E+02  0.47000000000E+01 0. -1.
         -5    1    3    3    0  502  0.23588084574E+02  0.63938379274E+02 -0.20298208752E+02  0.71264446652E+02  0.47000000000E+01 0. -1.
        -11    1    1    2    0    0  0.33574182385E+02 -0.93750551616E+02 -0.88013813092E+02  0.13290155359E+03  0.00000000000E+00 0. -1.
         11    1    1    2    0    0  0.37628785936E+02  0.13828917617E+02 -0.50935898814E+02  0.64819983658E+02  0.00000000000E+00 0.  1.
<mgrwt>
<rscale>  0 0.15823618E+03</rscale>
<asrwt>0</asrwt>
<pdfrwt beam="2">  1        1 0.42629764E-01 0.16456792E+03</pdfrwt>
<pdfrwt beam="1">  1       -1 0.14098503E-01 0.16456792E+03</pdfrwt>
<totfact> 0.33542710E+03</totfact>
</mgrwt>
</event>
<event>
 6    1  0.5928109E-006  0.2141706E+03  0.7546771E-02  0.1172527E+00
         -2   -1    0    0    0  501 -0.00000000000E+00  0.00000000000E+00  0.33320708805E+02  0.33320708805E+02  0.00000000000E+00 0.  1.
          2   -1    0    0  501    0  0.00000000000E+00 -0.00000000000E+00 -0.84800662629E+03  0.84800662629E+03  0.00000000000E+00 0. -1.
          5    1    1    2  502    0  0.33959292534E+02 -0.27652447252E+02 -0.70436511128E+03  0.70574088118E+03  0.47000000000E+01 0. -1.
         -5    1    1    2    0  502 -0.78018135842E+01  0.22851645899E+02  0.54978522258E+01  0.25206792628E+02  0.47000000000E+01 0.  1.
        -11    1    1    2    0    0 -0.11704409068E+02 -0.38465526594E+02 -0.21465553201E+02  0.45578063825E+02  0.00000000000E+00 0.  1.
         11    1    1    2    0    0 -0.14453069881E+02  0.43266327947E+02 -0.94353105236E+02  0.10480159746E+03  0.00000000000E+00 0. -1.
<mgrwt>
<rscale>  0 0.17520395E+03</rscale>
<asrwt>0</asrwt>
<pdfrwt beam="2">  1        2 0.13046254E+00 0.21417062E+03</pdfrwt>
<pdfrwt beam="1">  1       -2 0.51262637E-02 0.21417062E+03</pdfrwt>
<totfact> 0.61263738E+03</totfact>
</mgrwt>
</event>
<event>
 7    1  0.5928109E-006  0.2203812E+03  0.7546771E-02  0.1137107E+00
         -1   -1    0    0    0  501 -0.00000000000E+00  0.00000000000E+00  0.10028860149E+03  0.10028860149E+03  0.00000000000E+00 0.  1.
          1   -1    0    0  501    0  0.00000000000E+00 -0.00000000000E+00 -0.44608921112E+03  0.44608921112E+03  0.00000000000E+00 0. -1.
         23    2    1    2    0    0  0.27034576782E+01 -0.18147617445E+03 -0.17017846974E+03  0.27843955271E+03  0.12500784925E+03 0.  0.
          5    1    3    3  502    0 -0.42668874437E+02 -0.17559327617E+02 -0.16684410612E+02  0.49289171118E+02  0.47000000000E+01 0. -1.
         -5    1    3    3    0  502  0.45372332115E+02 -0.16391684683E+03 -0.15349405913E+03  0.22915038160E+03  0.47000000000E+01 0. -1.
        -11    1    1    2    0    0  0.12829744059E+01  0.11737942368E+03 -0.16553236389E+03  0.20292988597E+03  0.00000000000E+00 0.  1.
         11    1    1    2    0    0 -0.39864320841E+01  0.64096750772E+02 -0.10089776002E+02  0.65008373923E+02  0.00000000000E+00 0. -1.
<mgrwt>
<rscale>  0 0.21572958E+03</rscale>
<asrwt>0</asrwt>
<pdfrwt beam="2">  1        1 0.68629110E-01 0.22038120E+03</pdfrwt>
<pdfrwt beam="1">  1       -1 0.15429016E-01 0.22038120E+03</pdfrwt>
<totfact> 0.16075350E+03</totfact>
</mgrwt>
</event>
<event>
 7    1  0.5928109E-006  0.1624425E+03  0.7546771E-02  0.1194978E+00
         -3   -1    0    0    0  501 -0.00000000000E+00  0.00000000000E+00  0.19440228394E+03  0.19440228394E+03  0.00000000000E+00 0.  1.
          3   -1    0    0  501    0  0.00000000000E+00 -0.00000000000E+00 -0.11353718075E+03  0.11353718075E+03  0.00000000000E+00 0. -1.
         23    2    1    2    0    0 -0.28277663696E+02  0.99846331322E+02  0.60043971508E+02  0.17318444392E+03  0.12497462526E+03 0.  0.
          5    1    3    3  502    0 -0.18898786023E+02  0.56301579945E+02 -0.34303459481E+02  0.68744813257E+02  0.47000000000E+01 0.  1.
         -5    1    3    3    0  502 -0.93788776730E+01  0.43544751378E+02  0.94347430990E+02  0.10443963066E+03  0.47000000000E+01 0.  1.
        -11    1    1    2    0    0  0.43377989772E+02 -0.10398565770E+03  0.30012207814E+02  0.11659931227E+03  0.00000000000E+00 0.  1.
         11    1    1    2    0    0 -0.15100326076E+02  0.41393263744E+01 -0.91910761378E+01  0.18155708497E+02  0.00000000000E+00 0. -1.
<mgrwt>
<rscale>  0 0.15456078E+03</rscale>
<asrwt>0</asrwt>
<pdfrwt beam="2">  1        3 0.17467259E-01 0.16244252E+03</pdfrwt>
<pdfrwt beam="1">  1       -3 0.29908044E-01 0.16244252E+03</pdfrwt>
<totfact> 0.73025673E+02</totfact>
</mgrwt>
</event>
<event>
 7    1  0.5928109E-006  0.1337071E+03  0.7546771E-02  0.1234551E+00
         -2   -1    0    0    0  501 -0.00000000000E+00  0.00000000000E+00  0.72303490736E+02  0.72303490736E+02  0.00000000000E+00 0.  1.
          2   -1    0    0  501    0  0.00000000000E+00 -0.00000000000E+00 -0.28026819508E+03  0.28026819508E+03  0.00000000000E+00 0. -1.
         23    2    1    2    0    0 -0.41062704304E+02  0.23826370598E+02 -0.21043034198E+03  0.24931610504E+03  0.12499499905E+03 0.  0.
          5    1    3    3  502    0 -0.31481165499E+01  0.70869450024E+02 -0.13481378590E+03  0.15241140526E+03  0.47000000000E+01 0.  1.
         -5    1    3    3    0  502 -0.37914587754E+02 -0.47043079426E+02 -0.75616556086E+02  0.96904699787E+02  0.47000000000E+01 0.  1.
        -11    1    1    2    0    0  0.69851142035E+02 -0.20851184717E+02 -0.58826075270E+01  0.73133843186E+02  0.00000000000E+00 0.  1.
         11    1    1    2    0    0 -0.28788437731E+02 -0.29751858805E+01  0.83482451638E+01  0.30121737588E+02  0.00000000000E+00 0. -1.
<mgrwt>
<rscale>  0 0.12533238E+03</rscale>
<asrwt>0</asrwt>
<pdfrwt beam="2">  1        2 0.43118184E-01 0.13370711E+03</pdfrwt>
<pdfrwt beam="1">  1       -2 0.11123614E-01 0.13370711E+03</pdfrwt>
<totfact> 0.62746136E+03</totfact>
</mgrwt>
</event>
<event>
 7    1  0.5928109E-006  0.1277100E+03  0.7546771E-02  0.1245346E+00
         -2   -1    0    0    0  501 -0.00000000000E+00  0.00000000000E+00  0.28029548235E+02  0.28029548235E+02  0.00000000000E+00 0.  1.
          2   -1    0    0  501    0  0.00000000000E+00 -0.00000000000E+00 -0.66621611295E+03  0.66621611295E+03  0.00000000000E+00 0. -1.
         23    2    1    2    0    0 -0.15359642465E+02  0.21176683566E+02 -0.54962439503E+03  0.56426661044E+03  0.12500184601E+03 0.  0.
          5    1    3    3  502    0 -0.56512050068E+02  0.16326976924E+02 -0.47606378269E+03  0.47970719941E+03  0.47000000000E+01 0.  1.
         -5    1    3    3    0  502  0.41152407603E+02  0.48497066419E+01 -0.73560612338E+02  0.84559411029E+02  0.47000000000E+01 0.  1.
        -11    1    1    2    0    0  0.91846386288E+01  0.34473799707E+02 -0.52160922771E+02  0.63194638359E+02  0.00000000000E+00 0.  1.
         11    1    1    2    0    0  0.61750038357E+01 -0.55650483273E+02 -0.36401246919E+02  0.66784412389E+02  0.00000000000E+00 0. -1.
<mgrwt>
<rscale>  0 0.11864718E+03</rscale>
<asrwt>0</asrwt>
<pdfrwt beam="2">  1        2 0.10249478E+00 0.12770995E+03</pdfrwt>
<pdfrwt beam="1">  1       -2 0.43122384E-02 0.12770995E+03</pdfrwt>
<totfact> 0.10403330E+04</totfact>
</mgrwt>
</event>
<event>
 7    1  0.5928109E-006  0.1440811E+03  0.7546771E-02  0.1217844E+00
         -1   -1    0    0    0  501 -0.00000000000E+00  0.00000000000E+00  0.38811615639E+02  0.38811615639E+02  0.00000000000E+00 0.  1.
          1   -1    0    0  501    0  0.00000000000E+00 -0.00000000000E+00 -0.95172930657E+03  0.95172930657E+03  0.00000000000E+00 0. -1.
         23    2    1    2    0    0  0.45777748163E+02  0.55128389674E+02 -0.84138084762E+03  0.85362819325E+03  0.12499847992E+03 0.  0.
          5    1    3    3  502    0 -0.28745363467E+01  0.84686064912E+02 -0.42935496908E+03  0.43766170957E+03  0.47000000000E+01 0.  1.
         -5    1    3    3    0  502  0.48652284509E+02 -0.29557675238E+02 -0.41202587854E+03  0.41596648368E+03  0.47000000000E+01 0.  1.
        -11    1    1    2    0    0  0.16529115855E+02 -0.40089967747E+02 -0.36016293309E+01  0.43513089051E+02  0.00000000000E+00 0.  1.
         11    1    1    2    0    0 -0.62306864017E+02 -0.15038421927E+02 -0.67935213978E+02  0.93399639913E+02  0.00000000000E+00 0. -1.
<mgrwt>
<rscale>  0 0.13669656E+03</rscale>
<asrwt>0</asrwt>
<pdfrwt beam="2">  1        1 0.14641988E+00 0.14408109E+03</pdfrwt>
<pdfrwt beam="1">  1       -1 0.59710185E-02 0.14408109E+03</pdfrwt>
<totfact> 0.23179997E+03</totfact>
</mgrwt>
</event>
<event>
 7    1  0.5928109E-006  0.1299710E+03  0.7546771E-02  0.1242304E+00
          2   -1    0    0  501    0  0.00000000000E+00  0.00000000000E+00  0.90917178838E+02  0.90917178838E+02  0.00000000000E+00 0. -1.
         -2   -1    0    0    0  501 -0.00000000000E+00 -0.00000000000E+00 -0.14084125159E+03  0.14084125159E+03  0.00000000000E+00 0.  1.
         23    2    1    2    0    0 -0.60441433444E+01 -0.35083886276E+02 -0.35279737641E+02  0.13467413531E+03  0.12500020835E+03 0.  0.
          5    1    3    3  502    0 -0.38587143059E+02 -0.63256140494E+02  0.64682690366E+01  0.74526743012E+02  0.47000000000E+01 0. -1.
         -5    1    3    3    0  502  0.32542999714E+02  0.28172254218E+02 -0.41748006677E+02  0.60147392293E+02  0.47000000000E+01 0. -1.
        -11    1    1    2    0    0 -0.11887365632E+02 -0.15963619108E+02  0.23566206746E+02  0.30846599441E+02  0.00000000000E+00 0. -1.
         11    1    1    2    0    0  0.17931508976E+02  0.51047505383E+02 -0.38210541852E+02  0.66237695678E+02  0.00000000000E+00 0.  1.
<mgrwt>
<rscale>  0 0.12048213E+03</rscale>
<asrwt>0</asrwt>
<pdfrwt beam="1">  1        2 0.13987258E-01 0.12997101E+03</pdfrwt>
<pdfrwt beam="2">  1       -2 0.21667885E-01 0.12997101E+03</pdfrwt>
<totfact> 0.73043899E+03</totfact>
</mgrwt>
</event>
<event>
 7    1  0.5928109E-006  0.1336370E+03  0.7546771E-02  0.1235018E+00
         -1   -1    0    0    0  501 -0.00000000000E+00  0.00000000000E+00  0.12490678864E+02  0.12490678864E+02  0.00000000000E+00 0.  1.
          1   -1    0    0  501    0  0.00000000000E+00 -0.00000000000E+00 -0.11673812454E+04  0.11673812454E+04  0.00000000000E+00 0. -1.
         23    2    1    2    0    0  0.26916525450E+02 -0.38872150302E+02 -0.77417742056E+03  0.78562682962E+03  0.12499317383E+03 0.  0.
          5    1    3    3  502    0  0.52944992333E+02  0.14577750273E+01 -0.65363213252E+03  0.65579139365E+03  0.47000000000E+01 0. -1.
         -5    1    3    3    0  502 -0.26028466884E+02 -0.40329925329E+02 -0.12054528804E+03  0.12983543597E+03  0.47000000000E+01 0. -1.
        -11    1    1    2    0    0 -0.61166305081E+01 -0.29449953287E+02 -0.90229752937E+02  0.95111099418E+02  0.00000000000E+00 0.  1.
         11    1    1    2    0    0 -0.20799894942E+02  0.68322103589E+02 -0.29048339307E+03  0.29913399525E+03  0.00000000000E+00 0. -1.
<mgrwt>
<rscale>  0 0.12503303E+03</rscale>
<asrwt>0</asrwt>
<pdfrwt beam="2">  1        1 0.17959714E+00 0.13363696E+03</pdfrwt>
<pdfrwt beam="1">  1       -1 0.19216426E-02 0.13363696E+03</pdfrwt>
<totfact> 0.85088759E+03</totfact>
</mgrwt>
</event>
<event>
 7    1  0.5928109E-006  0.1383875E+03  0.7546771E-02  0.1226751E+00
          1   -1    0    0  501    0  0.00000000000E+00  0.00000000000E+00  0.33266213277E+03  0.33266213277E+03  0.00000000000E+00 0. -1.
         -1   -1    0    0    0  501 -0.00000000000E+00 -0.00000000000E+00 -0.47751363473E+02  0.47751363473E+02  0.00000000000E+00 0.  1.
         23    2    1    2    0    0  0.50699962316E+02  0.30916722467E+02  0.19345814807E+03  0.23785951303E+03  0.12499905189E+03 0.  0.
          5    1    3    3  502    0  0.77893436059E+02  0.40585435328E+02  0.74219590739E+02  0.11508780383E+03  0.47000000000E+01 0. -1.
         -5    1    3    3    0  502 -0.27193473743E+02 -0.96687128611E+01  0.11923855734E+03  0.12277170919E+03  0.47000000000E+01 0. -1.
        -11    1    1    2    0    0  0.22562576688E+01 -0.30848691912E+02  0.83448116203E+02  0.88996183004E+02  0.00000000000E+00 0. -1.
         11    1    1    2    0    0 -0.52956219985E+02 -0.68030555200E-01  0.80045050208E+01  0.53557800215E+02  0.00000000000E+00 0.  1.
<mgrwt>
<rscale>  0 0.13047586E+03</rscale>
<asrwt>0</asrwt>
<pdfrwt beam="1">  1        1 0.51178788E-01 0.13838747E+03</pdfrwt>
<pdfrwt beam="2">  1       -1 0.73463638E-02 0.13838747E+03</pdfrwt>
<totfact> 0.71913361E+03</totfact>
</mgrwt>
</event>
<event>
 7    1  0.5928109E-006  0.1550934E+03  0.7546771E-02  0.1202464E+00
          1   -1    0    0  501    0  0.00000000000E+00  0.00000000000E+00  0.10649541841E+04  0.10649541841E+04  0.00000000000E+00 0. -1.
         -1   -1    0    0    0  501 -0.00000000000E+00 -0.00000000000E+00 -0.31567513148E+02  0.31567513148E+02  0.00000000000E+00 0.  1.
         23    2    1    2    0    0 -0.90682326179E+02 -0.14363348763E+02  0.88827938057E+03  0.90171736768E+03  0.12499745256E+03 0.  0.
          5    1    3    3  502    0 -0.30110850554E+02 -0.64294710167E+02  0.54017737547E+03  0.54484324355E+03  0.47000000000E+01 0.  1.
         -5    1    3    3    0  502 -0.60571475625E+02  0.49931361404E+02  0.34810200511E+03  0.35687412413E+03  0.47000000000E+01 0.  1.
        -11    1    1    2    0    0  0.69849855852E+02  0.44714627055E+01  0.15472309602E+03  0.16981823455E+03  0.00000000000E+00 0. -1.
         11    1    1    2    0    0  0.20832470328E+02  0.98918860575E+01 -0.96158055975E+01  0.24986095074E+02  0.00000000000E+00 0.  1.
<mgrwt>
<rscale>  0 0.14839080E+03</rscale>
<asrwt>0</asrwt>
<pdfrwt beam="1">  1        1 0.16383908E+00 0.15509337E+03</pdfrwt>
<pdfrwt beam="2">  1       -1 0.48565413E-02 0.15509337E+03</pdfrwt>
<totfact> 0.26074963E+03</totfact>
</mgrwt>
</event>
<event>
 7    1  0.5928109E-006  0.1281076E+03  0.7546771E-02  0.1248498E+00
          1   -1    0    0  501    0  0.00000000000E+00  0.00000000000E+00  0.62287074144E+02  0.62287074144E+02  0.00000000000E+00 0. -1.
         -1   -1    0    0    0  501 -0.00000000000E+00 -0.00000000000E+00 -0.20535144875E+03  0.20535144875E+03  0.00000000000E+00 0.  1.
         23    2    1    2    0    0 -0.10182548893E+02  0.26114171538E+02 -0.45536929770E+02  0.13596012927E+03  0.12500364203E+03 0.  0.
          5    1    3    3  502    0 -0.98174140240E+01  0.68489669552E+02  0.53698690634E+01  0.69556753427E+02  0.47000000000E+01 0. -1.
         -5    1    3    3    0  502 -0.36513486946E+00 -0.42375498014E+02 -0.50906798834E+02  0.66403375840E+02  0.47000000000E+01 0. -1.
        -11    1    1    2    0    0  0.15396409202E+02  0.14851302188E+02  0.42787028181E+01  0.21815542413E+02  0.00000000000E+00 0. -1.
         11    1    1    2    0    0 -0.52138603087E+01 -0.40965473726E+02 -0.10180614765E+03  0.10986285121E+03  0.00000000000E+00 0.  1.
<mgrwt>
<rscale>  0 0.11678434E+03</rscale>
<asrwt>0</asrwt>
<pdfrwt beam="1">  1        1 0.95826268E-02 0.12810755E+03</pdfrwt>
<pdfrwt beam="2">  1       -1 0.31592531E-01 0.12810755E+03</pdfrwt>
<totfact> 0.60111151E+03</totfact>
</mgrwt>
</event>
<event>
 7    1  0.5928109E-006  0.1567534E+03  0.7546771E-02  0.1200250E+00
         -3   -1    0    0    0  501 -0.00000000000E+00  0.00000000000E+00  0.12513986954E+03  0.12513986954E+03  0.00000000000E+00 0.  1.
          3   -1    0    0  501    0  0.00000000000E+00 -0.00000000000E+00 -0.20216803570E+03  0.20216803570E+03  0.00000000000E+00 0. -1.
         23    2    1    2    0    0 -0.94529593911E+02 -0.32023322076E+01 -0.10961052260E+03  0.19127493406E+03  0.12500213870E+03 0.  0.
          5    1    3    3  502    0 -0.10815662264E+03 -0.35892335344E+02 -0.56539042289E+02  0.12729834272E+03  0.47000000000E+01 0.  1.
         -5    1    3    3    0  502  0.13627028728E+02  0.32690003136E+02 -0.53071480308E+02  0.63976591337E+02  0.47000000000E+01 0.  1.
        -11    1    1    2    0    0  0.44150988847E+02  0.43943240879E+02  0.34511761129E+02  0.71213621529E+02  0.00000000000E+00 0.  1.
         11    1    1    2    0    0  0.50378605065E+02 -0.40740908672E+02 -0.19294046928E+01  0.64819349658E+02  0.00000000000E+00 0. -1.
<mgrwt>
<rscale>  0 0.15018153E+03</rscale>
<asrwt>0</asrwt>
<pdfrwt beam="2">  1        3 0.31102775E-01 0.15675342E+03</pdfrwt>
<pdfrwt beam="1">  1       -3 0.19252288E-01 0.15675342E+03</pdfrwt>
<totfact> 0.56985497E+02</totfact>
</mgrwt>
</event>
<event>
 7    1  0.5928109E-006  0.1321768E+03  0.7546771E-02  0.1237570E+00
          2   -1    0    0  501    0  0.00000000000E+00  0.00000000000E+00  0.10959489123E+04  0.10959489123E+04  0.00000000000E+00 0. -1.
         -2   -1    0    0    0  501 -0.00000000000E+00 -0.00000000000E+00 -0.19293264464E+02  0.19293264464E+02  0.00000000000E+00 0.  1.
         23    2    1    2    0    0  0.38482972903E+02  0.19089059566E+02  0.91793087853E+03  0.92739840960E+03  0.12500152382E+03 0.  0.
          5    1    3    3  502    0  0.34763940660E+02  0.50242743905E+02  0.85232069887E+03  0.85452064259E+03  0.47000000000E+01 0. -1.
         -5    1    3    3    0  502  0.37190322428E+01 -0.31153684339E+02  0.65610179659E+02  0.72877767005E+02  0.47000000000E+01 0. -1.
        -11    1    1    2    0    0 -0.38517405279E+02  0.26895424404E+02  0.11568442687E+03  0.12485928473E+03  0.00000000000E+00 0. -1.
         11    1    1    2    0    0  0.34432375832E-01 -0.45984483970E+02  0.43040342443E+02  0.62984482448E+02  0.00000000000E+00 0.  1.
<mgrwt>
<rscale>  0 0.12341336E+03</rscale>
<asrwt>0</asrwt>
<pdfrwt beam="1">  1        2 0.16860748E+00 0.13217682E+03</pdfrwt>
<pdfrwt beam="2">  1       -2 0.29681954E-02 0.13217682E+03</pdfrwt>
<totfact> 0.95501889E+03</totfact>
</mgrwt>
</event>
<event>
 7    1  0.5928109E-006  0.1308650E+03  0.7546771E-02  0.1239755E+00
         -2   -1    0    0    0  501 -0.00000000000E+00  0.00000000000E+00  0.14428372647E+03  0.14428372647E+03  0.00000000000E+00 0.  1.
          2   -1    0    0  501    0  0.00000000000E+00 -0.00000000000E+00 -0.20550102146E+03  0.20550102146E+03  0.00000000000E+00 0. -1.
         23    2    1    2    0    0  0.35522392859E+02  0.15463385620E+02 -0.16216943357E+03  0.20838566515E+03  0.12499881425E+03 0.  0.
          5    1    3    3  502    0  0.64976675536E+02  0.51618567806E+02 -0.11496413844E+03  0.14186362477E+03  0.47000000000E+01 0. -1.
         -5    1    3    3    0  502 -0.29454282677E+02 -0.36155182187E+02 -0.47205295130E+02  0.66522040372E+02  0.47000000000E+01 0. -1.
        -11    1    1    2    0    0 -0.99753623902E-01 -0.41895613439E+02  0.84358429898E+02  0.94189155804E+02  0.00000000000E+00 0.  1.
         11    1    1    2    0    0 -0.35422639235E+02  0.26432227820E+02  0.16593708684E+02  0.47209926984E+02  0.00000000000E+00 0. -1.
<mgrwt>
<rscale>  0 0.12204897E+03</rscale>
<asrwt>0</asrwt>
<pdfrwt beam="2">  1        2 0.31615542E-01 0.13086505E+03</pdfrwt>
<pdfrwt beam="1">  1       -2 0.22197496E-01 0.13086505E+03</pdfrwt>
<totfact> 0.28023015E+03</totfact>
</mgrwt>
</event>
<event>
 6    1  0.5928109E-006  0.1352465E+03  0.7546771E-02  0.1278156E+00
         -2   -1    0    0    0  501 -0.00000000000E+00  0.00000000000E+00  0.20715916840E+02  0.20715916840E+02  0.00000000000E+00 0.  1.
          2   -1    0    0  501    0  0.00000000000E+00 -0.00000000000E+00 -0.13345936028E+04  0.13345936028E+04  0.00000000000E+00 0. -1.
          5    1    1    2  502    0  0.51860057187E+02  0.39610587403E+01 -0.58447653913E+03  0.58680496786E+03  0.47000000000E+01 0. -1.
         -5    1    1    2    0  502 -0.81350932008E+02  0.99577068356E+01 -0.72088900007E+03  0.72554818619E+03  0.47000000000E+01 0. -1.
        -11    1    1    2    0    0  0.15459420785E+02 -0.20203812286E+02 -0.10364976415E+02  0.27470355986E+02  0.00000000000E+00 0.  1.
         11    1    1    2    0    0  0.14031454036E+02  0.62850467098E+01  0.18528296836E+01  0.15486009568E+02  0.00000000000E+00 0. -1.
<mgrwt>
<rscale>  0 0.10102450E+03</rscale>
<asrwt>0</asrwt>
<pdfrwt beam="2">  1        2 0.20532213E+00 0.13524648E+03</pdfrwt>
<pdfrwt beam="1">  1       -2 0.31870635E-02 0.13524648E+03</pdfrwt>
<totfact> 0.63585502E+03</totfact>
</mgrwt>
</event>
<event>
 7    1  0.5928109E-006  0.1473296E+03  0.7546771E-02  0.1213092E+00
          2   -1    0    0  501    0  0.00000000000E+00  0.00000000000E+00  0.47608121709E+03  0.47608121709E+03  0.00000000000E+00 0. -1.
         -2   -1    0    0    0  501 -0.00000000000E+00 -0.00000000000E+00 -0.38114412959E+02  0.38114412959E+02  0.00000000000E+00 0.  1.
         23    2    1    2    0    0  0.77977002724E+02 -0.87423143076E+00  0.21492310354E+03  0.26057236542E+03  0.12499935980E+03 0.  0.
          5    1    3    3  502    0  0.92876693413E+02  0.36810121733E+02  0.11365122596E+03  0.15139272243E+03  0.47000000000E+01 0. -1.
         -5    1    3    3    0  502 -0.14899690689E+02 -0.37684353164E+02  0.10127187758E+03  0.10917964299E+03  0.47000000000E+01 0. -1.
        -11    1    1    2    0    0 -0.44518383930E+02 -0.35997502019E+02  0.17617625717E+03  0.18524518954E+03  0.00000000000E+00 0. -1.
         11    1    1    2    0    0 -0.33458618795E+02  0.36871733449E+02  0.46867443422E+02  0.68378075084E+02  0.00000000000E+00 0.  1.
<mgrwt>
<rscale>  0 0.14017590E+03</rscale>
<asrwt>0</asrwt>
<pdfrwt beam="1">  1        2 0.73243260E-01 0.14732962E+03</pdfrwt>
<pdfrwt beam="2">  1       -2 0.58637562E-02 0.14732962E+03</pdfrwt>
<totfact> 0.96591122E+03</totfact>
</mgrwt>
</event>
<event>
 7    1  0.5928109E-006  0.1348154E+03  0.7546771E-02  0.1234017E+00
         -2   -1    0    0    0  501 -0.00000000000E+00  0.00000000000E+00  0.43622474104E+02  0.43622474104E+02  0.00000000000E+00 0.  1.
          2   -1    0    0  501    0  0.00000000000E+00 -0.00000000000E+00 -0.38383197604E+03  0.38383197604E+03  0.00000000000E+00 0. -1.
         23    2    1    2    0    0  0.32126770154E+02  0.38955953274E+02 -0.27578478443E+03  0.30697302223E+03  0.12500197358E+03 0.  0.
          5    1    3    3  502    0 -0.31656718181E+02  0.16362935302E+02 -0.17590373947E+02  0.40017555064E+02  0.47000000000E+01 0.  1.
         -5    1    3    3    0  502  0.63783488335E+02  0.22593017972E+02 -0.25819441049E+03  0.26695546717E+03  0.47000000000E+01 0.  1.
        -11    1    1    2    0    0  0.21772477563E+02 -0.86762390522E+01 -0.52535293232E+02  0.57526297797E+02  0.00000000000E+00 0.  1.
         11    1    1    2    0    0 -0.53899247716E+02 -0.30279714222E+02 -0.11889424268E+02  0.62955130110E+02  0.00000000000E+00 0. -1.
<mgrwt>
<rscale>  0 0.12567589E+03</rscale>
<asrwt>0</asrwt>
<pdfrwt beam="2">  1        2 0.59051071E-01 0.13481539E+03</pdfrwt>
<pdfrwt beam="1">  1       -2 0.67111501E-02 0.13481539E+03</pdfrwt>
<totfact> 0.98602677E+03</totfact>
</mgrwt>
</event>
<event>
 7    1  0.5928109E-006  0.1499953E+03  0.7546771E-02  0.1204555E+00
         -2   -1    0    0    0  501 -0.00000000000E+00  0.00000000000E+00  0.84432081239E+02  0.84432081239E+02  0.00000000000E+00 0.  1.
          2   -1    0    0  501    0  0.00000000000E+00 -0.00000000000E+00 -0.26883936696E+03  0.26883936696E+03  0.00000000000E+00 0. -1.
         23    2    1    2    0    0 -0.56808011050E+02 -0.25988033456E+01 -0.14165751892E+03  0.19730304285E+03  0.12501093613E+03 0.  0.
          5    1    3    3  502    0  0.62211318859E+01  0.39645991113E+02 -0.47222838796E+01  0.40680425985E+02  0.47000000000E+01 0. -1.
         -5    1    3    3    0  502 -0.63029142936E+02 -0.42244794459E+02 -0.13693523504E+03  0.15662261687E+03  0.47000000000E+01 0. -1.
        -11    1    1    2    0    0  0.89236569655E+02 -0.37077924093E+02 -0.15301453572E+02  0.97836967963E+02  0.00000000000E+00 0.  1.
         11    1    1    2    0    0 -0.32428558605E+02  0.39676727438E+02 -0.27448313230E+02  0.58131437386E+02  0.00000000000E+00 0. -1.
<mgrwt>
<rscale>  0 0.14672555E+03</rscale>
<asrwt>0</asrwt>
<pdfrwt beam="2">  1        2 0.41359902E-01 0.14999534E+03</pdfrwt>
<pdfrwt beam="1">  1       -2 0.12989551E-01 0.14999534E+03</pdfrwt>
<totfact> 0.51536559E+03</totfact>
</mgrwt>
</event>
<event>
 7    1  0.5928109E-006  0.1540619E+03  0.7546771E-02  0.1203596E+00
         -1   -1    0    0    0  501 -0.00000000000E+00  0.00000000000E+00  0.75173165825E+02  0.75173165825E+02  0.00000000000E+00 0.  1.
          1   -1    0    0  501    0  0.00000000000E+00 -0.00000000000E+00 -0.38361815814E+03  0.38361815814E+03  0.00000000000E+00 0. -1.
         23    2    1    2    0    0 -0.50403011128E+02 -0.74625864609E+02 -0.28960085676E+03  0.32803006378E+03  0.12500233320E+03 0.  0.
          5    1    3    3  502    0 -0.87547200345E+02 -0.71193932859E+02 -0.24442384639E+03  0.26925488863E+03  0.47000000000E+01 0. -1.
         -5    1    3    3    0  502  0.37144189217E+02 -0.34319317503E+01 -0.45177010366E+02  0.58775175148E+02  0.47000000000E+01 0. -1.
        -11    1    1    2    0    0  0.64786983519E+02  0.87477021430E+02 -0.22428725354E+02  0.11114238720E+03  0.00000000000E+00 0. -1.
         11    1    1    2    0    0 -0.14383972391E+02 -0.12851156821E+02  0.35845897960E+01  0.19618872990E+02  0.00000000000E+00 0.  1.
<mgrwt>
<rscale>  0 0.14748637E+03</rscale>
<asrwt>0</asrwt>
<pdfrwt beam="2">  1        1 0.59018177E-01 0.15406189E+03</pdfrwt>
<pdfrwt beam="1">  1       -1 0.11565103E-01 0.15406189E+03</pdfrwt>
<totfact> 0.30314777E+03</totfact>
</mgrwt>
</event>
<event>
 7    1  0.5928109E-006  0.3083609E+03  0.7546771E-02  0.1082937E+00
          1   -1    0    0  501    0  0.00000000000E+00  0.00000000000E+00  0.36383806833E+03  0.36383806833E+03  0.00000000000E+00 0. -1.
         -1   -1    0    0    0  501 -0.00000000000E+00 -0.00000000000E+00 -0.30386726806E+03  0.30386726806E+03  0.00000000000E+00 0.  1.
         23    2    1    2    0    0  0.65642855713E+02  0.27413054846E+03  0.17222223717E+03  0.35319535144E+03  0.12501965925E+03 0.  0.
          5    1    3    3  502    0 -0.12448975242E+02 -0.76414008674E+01  0.41079269802E+01  0.15884994676E+02  0.47000000000E+01 0.  1.
         -5    1    3    3    0  502  0.78091830955E+02  0.28177194933E+03  0.16811431019E+03  0.33731035676E+03  0.47000000000E+01 0.  1.
        -11    1    1    2    0    0 -0.73858195175E+02 -0.14580167779E+03 -0.45663618694E+02  0.16970070216E+03  0.00000000000E+00 0. -1.
         11    1    1    2    0    0  0.82153394620E+01 -0.12832887067E+03 -0.66587818210E+02  0.14480928280E+03  0.00000000000E+00 0.  1.
<mgrwt>
<rscale>  0 0.30465338E+03</rscale>
<asrwt>0</asrwt>
<pdfrwt beam="1">  1        1 0.55975088E-01 0.30836092E+03</pdfrwt>
<pdfrwt beam="2">  1       -1 0.46748810E-01 0.30836092E+03</pdfrwt>
<totfact> 0.32002197E+02</totfact>
</mgrwt>
</event>
<event>
 6    1  0.5928109E-006  0.5676386E+03  0.7546771E-02  0.1014100E+00
          2   -1    0    0  501    0  0.00000000000E+00  0.00000000000E+00  0.77247031649E+03  0.77247031649E+03  0.00000000000E+00 0. -1.
         -2   -1    0    0    0  501 -0.00000000000E+00 -0.00000000000E+00 -0.26872920214E+03  0.26872920214E+03  0.00000000000E+00 0.  1.
          5    1    1    2  502    0 -0.21660578210E+03  0.15594635579E+03  0.47562994915E+03  0.54542026847E+03  0.47000000000E+01 0. -1.
         -5    1    1    2    0  502 -0.13087306817E+02  0.75291268378E+02 -0.10688214249E+03  0.13147598670E+03  0.47000000000E+01 0.  1.
        -11    1    1    2    0    0  0.21915958044E+03 -0.22753909618E+03  0.10598900222E+03  0.33322459480E+03  0.00000000000E+00 0. -1.
         11    1    1    2    0    0  0.10533508480E+02 -0.36985279800E+01  0.29004305478E+02  0.31078668671E+02  0.00000000000E+00 0.  1.
<mgrwt>
<rscale>  0 0.49877151E+03</rscale>
<asrwt>0</asrwt>
<pdfrwt beam="1">  1        2 0.11884159E+00 0.56763861E+03</pdfrwt>
<pdfrwt beam="2">  1       -2 0.41342954E-01 0.56763861E+03</pdfrwt>
<totfact> 0.20398564E+02</totfact>
</mgrwt>
</event>
<event>
 7    1  0.5928109E-006  0.1629935E+03  0.7546771E-02  0.1192885E+00
         -2   -1    0    0    0  501 -0.00000000000E+00  0.00000000000E+00  0.20309037661E+02  0.20309037661E+02  0.00000000000E+00 0.  1.
          2   -1    0    0  501    0  0.00000000000E+00 -0.00000000000E+00 -0.11227978531E+04  0.11227978531E+04  0.00000000000E+00 0. -1.
         23    2    1    2    0    0  0.10381242120E+03  0.12826523853E+02 -0.64378311163E+03  0.66409607147E+03  0.12500143524E+03 0.  0.
          5    1    3    3  502    0  0.58087049587E+02  0.22858121444E+02 -0.58711486245E+03  0.59044267356E+03  0.47000000000E+01 0. -1.
         -5    1    3    3    0  502  0.45725371609E+02 -0.10031597591E+02 -0.56668249176E+02  0.73653397910E+02  0.47000000000E+01 0. -1.
        -11    1    1    2    0    0 -0.67041461103E+02  0.33953762472E+02 -0.30673810731E+03  0.31580956598E+03  0.00000000000E+00 0.  1.
         11    1    1    2    0    0 -0.36770960093E+02 -0.46780286325E+02 -0.15196759651E+03  0.16320125331E+03  0.00000000000E+00 0. -1.
<mgrwt>
<rscale>  0 0.15634624E+03</rscale>
<asrwt>0</asrwt>
<pdfrwt beam="2">  1        2 0.17273818E+00 0.16299355E+03</pdfrwt>
<pdfrwt beam="1">  1       -2 0.31244665E-02 0.16299355E+03</pdfrwt>
<totfact> 0.86333843E+03</totfact>
</mgrwt>
</event>
<event>
 7    1  0.5928109E-006  0.3343751E+03  0.7546771E-02  0.1070454E+00
         -3   -1    0    0    0  501 -0.00000000000E+00  0.00000000000E+00  0.60997407833E+03  0.60997407833E+03  0.00000000000E+00 0.  1.
          3   -1    0    0  501    0  0.00000000000E+00 -0.00000000000E+00 -0.18117489199E+03  0.18117489199E+03  0.00000000000E+00 0. -1.
         23    2    1    2    0    0  0.27311500373E+03  0.14693754571E+03  0.15956514947E+03  0.37049665054E+03  0.12499713413E+03 0.  0.
          5    1    3    3  502    0  0.54682374578E+02  0.74898328019E+02  0.43072391530E+01  0.92954633766E+02  0.47000000000E+01 0. -1.
         -5    1    3    3    0  502  0.21843262915E+03  0.72039217688E+02  0.15525791031E+03  0.27754201678E+03  0.47000000000E+01 0. -1.
        -11    1    1    2    0    0 -0.87223712833E+02 -0.28729070886E+02  0.32847563037E+02  0.97531010411E+02  0.00000000000E+00 0. -1.
         11    1    1    2    0    0 -0.18589129089E+03 -0.11820847482E+03  0.23638647384E+03  0.32312130937E+03  0.00000000000E+00 0.  1.
<mgrwt>
<rscale>  0 0.33154690E+03</rscale>
<asrwt>0</asrwt>
<pdfrwt beam="2">  1        3 0.27873061E-01 0.33437514E+03</pdfrwt>
<pdfrwt beam="1">  1       -3 0.93842165E-01 0.33437514E+03</pdfrwt>
<totfact> 0.32358639E+01</totfact>
</mgrwt>
</event>
<event>
 7    1  0.5928109E-006  0.1293190E+03  0.7546771E-02  0.1242809E+00
         -2   -1    0    0    0  501 -0.00000000000E+00  0.00000000000E+00  0.43277180981E+02  0.43277180981E+02  0.00000000000E+00 0.  1.
          2   -1    0    0  501    0  0.00000000000E+00 -0.00000000000E+00 -0.29472380463E+03  0.29472380463E+03  0.00000000000E+00 0. -1.
         23    2    1    2    0    0  0.20991671282E+02  0.25605159436E+02 -0.14933080289E+03  0.19754260685E+03  0.12500847322E+03 0.  0.
          5    1    3    3  502    0 -0.43754894367E+02  0.43537636354E+02 -0.74693645250E+02  0.97011582819E+02  0.47000000000E+01 0.  1.
         -5    1    3    3    0  502  0.64746565650E+02 -0.17932476918E+02 -0.74637157635E+02  0.10053102403E+03  0.47000000000E+01 0.  1.
        -11    1    1    2    0    0 -0.15074474414E+02  0.13838064819E+02  0.90345700422E+01  0.22368622502E+02  0.00000000000E+00 0.  1.
         11    1    1    2    0    0 -0.59171968685E+01 -0.39443224254E+02 -0.11115039081E+03  0.11808975627E+03  0.00000000000E+00 0. -1.
<mgrwt>
<rscale>  0 0.12017451E+03</rscale>
<asrwt>0</asrwt>
<pdfrwt beam="2">  1        2 0.45342123E-01 0.12931896E+03</pdfrwt>
<pdfrwt beam="1">  1       -2 0.66580279E-02 0.12931896E+03</pdfrwt>
<totfact> 0.13165120E+04</totfact>
</mgrwt>
</event>
<event>
 7    1  0.5928109E-006  0.3509844E+03  0.7546771E-02  0.1063181E+00
          1   -1    0    0  501    0  0.00000000000E+00  0.00000000000E+00  0.15935126427E+03  0.15935126427E+03  0.00000000000E+00 0. -1.
         -1   -1    0    0    0  501 -0.00000000000E+00 -0.00000000000E+00 -0.94048923038E+03  0.94048923038E+03  0.00000000000E+00 0.  1.
         23    2    1    2    0    0  0.30584418648E+03  0.11843861804E+03 -0.14902636824E+03  0.38131212123E+03  0.12498681015E+03 0.  0.
          5    1    3    3  502    0  0.24887473794E+03  0.14474314330E+03 -0.11850078617E+03  0.31137395370E+03  0.47000000000E+01 0.  1.
         -5    1    3    3    0  502  0.56969448546E+02 -0.26304525258E+02 -0.30525582069E+02  0.69938167529E+02  0.47000000000E+01 0.  1.
        -11    1    1    2    0    0 -0.12279120585E+03 -0.82830174885E+02 -0.35338775279E+03  0.38317283558E+03  0.00000000000E+00 0.  1.
         11    1    1    2    0    0 -0.18305298064E+03 -0.35608443159E+02 -0.27872384508E+03  0.33535553784E+03  0.00000000000E+00 0. -1.
<mgrwt>
<rscale>  0 0.34862466E+03</rscale>
<asrwt>0</asrwt>
<pdfrwt beam="1">  1        1 0.24515579E-01 0.35098444E+03</pdfrwt>
<pdfrwt beam="2">  1       -1 0.14469065E+00 0.35098444E+03</pdfrwt>
<totfact> 0.81107347E+01</totfact>
</mgrwt>
</event>
<event>
 7    1  0.5928109E-006  0.1964377E+03  0.7546771E-02  0.1157196E+00
          2   -1    0    0  501    0  0.00000000000E+00  0.00000000000E+00  0.14424688595E+04  0.14424688595E+04  0.00000000000E+00 0. -1.
         -2   -1    0    0    0  501 -0.00000000000E+00 -0.00000000000E+00 -0.32869578352E+02  0.32869578352E+02  0.00000000000E+00 0.  1.
         23    2    1    2    0    0  0.13225878576E+03  0.73959587150E+02  0.11105585644E+04  0.11277979044E+04  0.12500152484E+03 0.  0.
          5    1    3    3  502    0  0.12402013860E+03  0.16840951944E+02  0.54123379385E+03  0.55553642729E+03  0.47000000000E+01 0.  1.
         -5    1    3    3    0  502  0.82386471574E+01  0.57118635206E+02  0.56932477060E+03  0.57226147713E+03  0.47000000000E+01 0.  1.
        -11    1    1    2    0    0 -0.12064640270E+03 -0.93737422841E+02  0.24364851268E+03  0.28758799811E+03  0.00000000000E+00 0.  1.
         11    1    1    2    0    0 -0.11612383064E+02  0.19777835690E+02  0.55392204028E+02  0.59952535326E+02  0.00000000000E+00 0. -1.
<mgrwt>
<rscale>  0 0.19140977E+03</rscale>
<asrwt>0</asrwt>
<pdfrwt beam="1">  1        2 0.22191824E+00 0.19643775E+03</pdfrwt>
<pdfrwt beam="2">  1       -2 0.50568593E-02 0.19643775E+03</pdfrwt>
<totfact> 0.28159369E+03</totfact>
</mgrwt>
</event>
<event>
 7    1  0.5928109E-006  0.1361172E+03  0.7546771E-02  0.1233512E+00
         -1   -1    0    0    0  501 -0.00000000000E+00  0.00000000000E+00  0.36183727828E+03  0.36183727828E+03  0.00000000000E+00 0.  1.
          1   -1    0    0  501    0  0.00000000000E+00 -0.00000000000E+00 -0.55215723264E+02  0.55215723264E+02  0.00000000000E+00 0. -1.
         23    2    1    2    0    0 -0.45939447893E+02  0.28181302009E+02  0.55907611414E+02  0.14715144831E+03  0.12499307609E+03 0.  0.
          5    1    3    3  502    0 -0.77741932342E+02 -0.45799603705E+01  0.43745317241E+01  0.78140966266E+02  0.47000000000E+01 0. -1.
         -5    1    3    3    0  502  0.31802484449E+02  0.32761262379E+02  0.51533079690E+02  0.69010482046E+02  0.47000000000E+01 0. -1.
        -11    1    1    2    0    0 -0.17686080631E+02  0.13819195268E+02  0.76771572714E+02  0.79985261035E+02  0.00000000000E+00 0.  1.
         11    1    1    2    0    0  0.63625528524E+02 -0.42000497276E+02  0.17394237089E+03  0.18991629219E+03  0.00000000000E+00 0. -1.
<mgrwt>
<rscale>  0 0.12600186E+03</rscale>
<asrwt>0</asrwt>
<pdfrwt beam="2">  1        1 0.84947269E-02 0.13611718E+03</pdfrwt>
<pdfrwt beam="1">  1       -1 0.55667272E-01 0.13611718E+03</pdfrwt>
<totfact> 0.25997963E+03</totfact>
</mgrwt>
</event>
<event>
 7    1  0.5928109E-006  0.1422409E+03  0.7546771E-02  0.1220442E+00
          3   -1    0    0  501    0  0.00000000000E+00  0.00000000000E+00  0.21283774794E+03  0.21283774794E+03  0.00000000000E+00 0. -1.
         -3   -1    0    0    0  501 -0.00000000000E+00 -0.00000000000E+00 -0.83988599856E+02  0.83988599856E+02  0.00000000000E+00 0.  1.
         23    2    1    2    0    0 -0.64018561611E+02  0.22545246873E+02  0.11131076592E+03  0.18061715511E+03  0.12500322284E+03 0.  0.
          5    1    3    3  502    0 -0.67937529912E+02  0.67340984212E+02  0.64069361994E+02  0.11522712038E+03  0.47000000000E+01 0. -1.
         -5    1    3    3    0  502  0.39189683003E+01 -0.44795737339E+02  0.47241403928E+02  0.65390034726E+02  0.47000000000E+01 0. -1.
        -11    1    1    2    0    0  0.19856892434E+02  0.30325798488E+02  0.28939660054E+02  0.46383770385E+02  0.00000000000E+00 0.  1.
         11    1    1    2    0    0  0.44161669177E+02 -0.52871045361E+02 -0.11401277894E+02  0.69825422302E+02  0.00000000000E+00 0. -1.
<mgrwt>
<rscale>  0 0.13484277E+03</rscale>
<asrwt>0</asrwt>
<pdfrwt beam="1">  1        3 0.32744269E-01 0.14224089E+03</pdfrwt>
<pdfrwt beam="2">  1       -3 0.12921323E-01 0.14224089E+03</pdfrwt>
<totfact> 0.10142617E+03</totfact>
</mgrwt>
</event>
<event>
 7    1  0.5928109E-006  0.1253744E+03  0.7546771E-02  0.1249805E+00
         -1   -1    0    0    0  501 -0.00000000000E+00  0.00000000000E+00  0.20784691782E+03  0.20784691782E+03  0.00000000000E+00 0.  1.
          1   -1    0    0  501    0  0.00000000000E+00 -0.00000000000E+00 -0.60074984041E+02  0.60074984041E+02  0.00000000000E+00 0. -1.
         23    2    1    2    0    0  0.92059578580E+01  0.31840635510E+01  0.53748895485E+02  0.13640997897E+03  0.12499540262E+03 0.  0.
          5    1    3    3  502    0 -0.36054039380E+02 -0.17220495808E+02  0.72677554278E+02  0.83069586055E+02  0.47000000000E+01 0. -1.
         -5    1    3    3    0  502  0.45259997238E+02  0.20404559359E+02 -0.18928658794E+02  0.53340392915E+02  0.47000000000E+01 0. -1.
        -11    1    1    2    0    0  0.36468320812E+02 -0.17770987453E+02  0.61131157447E+02  0.73367328074E+02  0.00000000000E+00 0.  1.
         11    1    1    2    0    0 -0.45674278670E+02  0.14586923902E+02  0.32891880848E+02  0.58144594819E+02  0.00000000000E+00 0. -1.
<mgrwt>
<rscale>  0 0.11602356E+03</rscale>
<asrwt>0</asrwt>
<pdfrwt beam="2">  1        1 0.92423053E-02 0.12537439E+03</pdfrwt>
<pdfrwt beam="1">  1       -1 0.31976449E-01 0.12537439E+03</pdfrwt>
<totfact> 0.61694151E+03</totfact>
</mgrwt>
</event>
<event>
 7    1  0.5928109E-006  0.1265962E+03  0.7546771E-02  0.1244070E+00
         -1   -1    0    0    0  501 -0.00000000000E+00  0.00000000000E+00  0.32630395513E+03  0.32630395513E+03  0.00000000000E+00 0. -1.
          1   -1    0    0  501    0  0.00000000000E+00 -0.00000000000E+00 -0.44702424810E+02  0.44702424810E+02  0.00000000000E+00 0.  1.
         23    2    1    2    0    0  0.89604036553E+01 -0.17939219784E+02  0.91814046853E+02  0.15638544447E+03  0.12499793440E+03 0.  0.
          5    1    3    3  502    0 -0.18797848039E+02 -0.54869072210E+02  0.55977015080E+01  0.58458518953E+02  0.47000000000E+01 0.  1.
         -5    1    3    3    0  502  0.27758251695E+02  0.36929852425E+02  0.86216345345E+02  0.97926925521E+02  0.47000000000E+01 0.  1.
        -11    1    1    2    0    0  0.34478319997E+02 -0.16301637228E+02  0.11791427418E+03  0.12392850351E+03  0.00000000000E+00 0. -1.
         11    1    1    2    0    0 -0.43438723652E+02  0.34240857012E+02  0.71873209286E+02  0.90692431958E+02  0.00000000000E+00 0.  1.
<mgrwt>
<rscale>  0 0.11941189E+03</rscale>
<asrwt>0</asrwt>
<pdfrwt beam="2">  1        1 0.68772963E-02 0.12659616E+03</pdfrwt>
<pdfrwt beam="1">  1       -1 0.50200607E-01 0.12659616E+03</pdfrwt>
<totfact> 0.41599089E+03</totfact>
</mgrwt>
</event>
<event>
 7    1  0.5928109E-006  0.1664821E+03  0.7546771E-02  0.1188726E+00
         -2   -1    0    0    0  501 -0.00000000000E+00  0.00000000000E+00  0.12516016870E+03  0.12516016870E+03  0.00000000000E+00 0.  1.
          2   -1    0    0  501    0  0.00000000000E+00 -0.00000000000E+00 -0.19132509590E+03  0.19132509590E+03  0.00000000000E+00 0. -1.
         23    2    1    2    0    0  0.53449817152E+02  0.96105063367E+02 -0.48809592637E+02  0.17348966096E+03  0.12499287967E+03 0.  0.
          5    1    3    3  502    0  0.42825337925E+02  0.85172176231E+02 -0.88841364570E+02  0.13039627000E+03  0.47000000000E+01 0.  1.
         -5    1    3    3    0  502  0.10624479227E+02  0.10932887136E+02  0.40031771933E+02  0.43093390956E+02  0.47000000000E+01 0.  1.
        -11    1    1    2    0    0 -0.41259807226E+02 -0.34441519961E+02 -0.48904616459E+02  0.72665339059E+02  0.00000000000E+00 0. -1.
         11    1    1    2    0    0 -0.12190009926E+02 -0.61663543406E+02  0.31549281902E+02  0.70330264580E+02  0.00000000000E+00 0.  1.
<mgrwt>
<rscale>  0 0.15997447E+03</rscale>
<asrwt>0</asrwt>
<pdfrwt beam="2">  1        2 0.29434630E-01 0.16648209E+03</pdfrwt>
<pdfrwt beam="1">  1       -2 0.19255411E-01 0.16648209E+03</pdfrwt>
<totfact> 0.39041648E+03</totfact>
</mgrwt>
</event>
<event>
 7    1  0.5928109E-006  0.1303035E+03  0.7546771E-02  0.1241321E+00
         -1   -1    0    0    0  501 -0.00000000000E+00  0.00000000000E+00  0.28316599211E+02  0.28316599211E+02  0.00000000000E+00 0.  1.
          1   -1    0    0  501    0  0.00000000000E+00 -0.00000000000E+00 -0.48518787226E+03  0.48518787226E+03  0.00000000000E+00 0. -1.
         23    2    1    2    0    0  0.10984229705E+02  0.35119502461E+02 -0.32128559233E+03  0.34670367518E+03  0.12499989514E+03 0.  0.
          5    1    3    3  502    0 -0.40731750509E+02 -0.26757538928E+02 -0.10597353897E+03  0.11673697936E+03  0.47000000000E+01 0.  1.
         -5    1    3    3    0  502  0.51715980214E+02  0.61877041389E+02 -0.21531205337E+03  0.22996669582E+03  0.47000000000E+01 0.  1.
        -11    1    1    2    0    0 -0.39414250451E+02 -0.24784760607E+02 -0.26444691657E+02  0.53545207197E+02  0.00000000000E+00 0.  1.
         11    1    1    2    0    0  0.28430020746E+02 -0.10334741854E+02 -0.10914098906E+03  0.11325558910E+03  0.00000000000E+00 0. -1.
<mgrwt>
<rscale>  0 0.12108296E+03</rscale>
<asrwt>0</asrwt>
<pdfrwt beam="2">  1        1 0.74644286E-01 0.13030352E+03</pdfrwt>
<pdfrwt beam="1">  1       -1 0.43564000E-02 0.13030352E+03</pdfrwt>
<totfact> 0.96637303E+03</totfact>
</mgrwt>
</event>
<event>
 7    1  0.5928109E-006  0.1390027E+03  0.7546771E-02  0.1225302E+00
          2   -1    0    0  501    0  0.00000000000E+00  0.00000000000E+00  0.63955707741E+03  0.63955707741E+03  0.00000000000E+00 0. -1.
         -2   -1    0    0    0  501 -0.00000000000E+00 -0.00000000000E+00 -0.24527489743E+02  0.24527489743E+02  0.00000000000E+00 0.  1.
         23    2    1    2    0    0 -0.56248396584E+02  0.23068063711E+02  0.35728608431E+03  0.38337329789E+03  0.12500288723E+03 0.  0.
          5    1    3    3  502    0 -0.82458185801E+02  0.33076346094E+02  0.33670805437E+03  0.34826398170E+03  0.47000000000E+01 0.  1.
         -5    1    3    3    0  502  0.26209789216E+02 -0.10008282383E+02  0.20578029940E+02  0.35109316189E+02  0.47000000000E+01 0.  1.
        -11    1    1    2    0    0  0.63906645945E+02 -0.10114342441E+02  0.25766335603E+03  0.26566287727E+03  0.00000000000E+00 0. -1.
         11    1    1    2    0    0 -0.76582493601E+01 -0.12953721270E+02  0.80147332809E-01  0.15048391994E+02  0.00000000000E+00 0.  1.
<mgrwt>
<rscale>  0 0.13146218E+03</rscale>
<asrwt>0</asrwt>
<pdfrwt beam="1">  1        2 0.98393384E-01 0.13900266E+03</pdfrwt>
<pdfrwt beam="2">  1       -2 0.37734604E-02 0.13900266E+03</pdfrwt>
<totfact> 0.13379884E+04</totfact>
</mgrwt>
</event>
<event>
 7    1  0.5928109E-006  0.1325347E+03  0.7546771E-02  0.1234454E+00
         -1   -1    0    0    0  501 -0.00000000000E+00  0.00000000000E+00  0.21439716831E+03  0.21439716831E+03  0.00000000000E+00 0.  1.
          1   -1    0    0  501    0  0.00000000000E+00 -0.00000000000E+00 -0.68420654462E+02  0.68420654462E+02  0.00000000000E+00 0. -1.
         23    2    1    2    0    0  0.37049655348E+02 -0.23824822301E+02  0.57007154781E+02  0.14427499947E+03  0.12500064263E+03 0.  0.
          5    1    3    3  502    0  0.40056424794E+02 -0.71156020971E+02  0.50624517965E+02  0.96190583255E+02  0.47000000000E+01 0. -1.
         -5    1    3    3    0  502 -0.30067694456E+01  0.47331198670E+02  0.63826368162E+01  0.48084416215E+02  0.47000000000E+01 0. -1.
        -11    1    1    2    0    0  0.30584264809E+02  0.19700213010E+02  0.18620708018E+02  0.40868403610E+02  0.00000000000E+00 0. -1.
         11    1    1    2    0    0 -0.67633920157E+02  0.41246092917E+01  0.70348651044E+02  0.97674419687E+02  0.00000000000E+00 0.  1.
<mgrwt>
<rscale>  0 0.12539467E+03</rscale>
<asrwt>0</asrwt>
<pdfrwt beam="2">  1        1 0.10526255E-01 0.13253475E+03</pdfrwt>
<pdfrwt beam="1">  1       -1 0.32984179E-01 0.13253475E+03</pdfrwt>
<totfact> 0.49462171E+03</totfact>
</mgrwt>
</event>
<event>
 7    1  0.5928109E-006  0.1949653E+03  0.7546771E-02  0.1158388E+00
         -2   -1    0    0    0  501 -0.00000000000E+00  0.00000000000E+00  0.20639527539E+03  0.20639527539E+03  0.00000000000E+00 0.  1.
          2   -1    0    0  501    0  0.00000000000E+00 -0.00000000000E+00 -0.31850505733E+03  0.31850505733E+03  0.00000000000E+00 0. -1.
         23    2    1    2    0    0  0.73039681736E+02 -0.13058350212E+03 -0.23853641172E+03  0.30807644507E+03  0.12499852062E+03 0.  0.
          5    1    3    3  502    0  0.19965847428E+02 -0.13804885903E+03 -0.18898278737E+03  0.23493128031E+03  0.47000000000E+01 0. -1.
         -5    1    3    3    0  502  0.53073834309E+02  0.74653569124E+01 -0.49553624346E+02  0.73145164761E+02  0.47000000000E+01 0. -1.
        -11    1    1    2    0    0 -0.65105672027E+01  0.10319224789E+03  0.64257948186E+02  0.12173787995E+03  0.00000000000E+00 0.  1.
         11    1    1    2    0    0 -0.66529114533E+02  0.27391254233E+02  0.62168681593E+02  0.95086007698E+02  0.00000000000E+00 0. -1.
<mgrwt>
<rscale>  0 0.19008105E+03</rscale>
<asrwt>0</asrwt>
<pdfrwt beam="2">  1        2 0.49000778E-01 0.19496532E+03</pdfrwt>
<pdfrwt beam="1">  1       -2 0.31753119E-01 0.19496532E+03</pdfrwt>
<totfact> 0.94140813E+02</totfact>
</mgrwt>
</event>
<event>
 7    1  0.5928109E-006  0.1418553E+03  0.7546771E-02  0.1221407E+00
          2   -1    0    0  501    0  0.00000000000E+00  0.00000000000E+00  0.11812536578E+04  0.11812536578E+04  0.00000000000E+00 0. -1.
         -2   -1    0    0    0  501 -0.00000000000E+00 -0.00000000000E+00 -0.22296667235E+02  0.22296667235E+02  0.00000000000E+00 0.  1.
         23    2    1    2    0    0 -0.32717047583E+01 -0.66978544820E+02  0.98937112746E+03  0.99948894662E+03  0.12500438811E+03 0.  0.
          5    1    3    3  502    0  0.31551648431E+02 -0.86604819744E+02  0.82993852090E+03  0.83505445319E+03  0.47000000000E+01 0. -1.
         -5    1    3    3    0  502 -0.34823353189E+02  0.19626274924E+02  0.15943260657E+03  0.16443449343E+03  0.47000000000E+01 0. -1.
        -11    1    1    2    0    0  0.45854934761E+02  0.24789187092E+02  0.62935787922E+02  0.81719595202E+02  0.00000000000E+00 0.  1.
         11    1    1    2    0    0 -0.42583230002E+02  0.42189357727E+02  0.10665007517E+03  0.12234178320E+03  0.00000000000E+00 0. -1.
<mgrwt>
<rscale>  0 0.13416238E+03</rscale>
<asrwt>0</asrwt>
<pdfrwt beam="1">  1        2 0.18173128E+00 0.14185530E+03</pdfrwt>
<pdfrwt beam="2">  1       -2 0.34302574E-02 0.14185530E+03</pdfrwt>
<totfact> 0.69288057E+03</totfact>
</mgrwt>
</event>
<event>
 7    1  0.5928109E-006  0.1435201E+03  0.7546771E-02  0.1218183E+00
         -2   -1    0    0    0  501 -0.00000000000E+00  0.00000000000E+00  0.16317252772E+02  0.16317252772E+02  0.00000000000E+00 0.  1.
          2   -1    0    0  501    0  0.00000000000E+00 -0.00000000000E+00 -0.10581257506E+04  0.10581257506E+04  0.00000000000E+00 0. -1.
         23    2    1    2    0    0  0.17259175067E+02 -0.68375728877E+02 -0.63846789548E+03  0.65439994281E+03  0.12499964867E+03 0.  0.
          5    1    3    3  502    0 -0.40052835764E+02  0.13538308346E+02 -0.22550639727E+03  0.22948363919E+03  0.47000000000E+01 0.  1.
         -5    1    3    3    0  502  0.57312010830E+02 -0.81914037223E+02 -0.41296149821E+03  0.42491630362E+03  0.47000000000E+01 0.  1.
        -11    1    1    2    0    0 -0.55969794883E+02  0.46610209295E+02 -0.25473850939E+03  0.26494685828E+03  0.00000000000E+00 0. -1.
         11    1    1    2    0    0  0.38710619816E+02  0.21765519583E+02 -0.14860209301E+03  0.15509620232E+03  0.00000000000E+00 0.  1.
<mgrwt>
<rscale>  0 0.13645281E+03</rscale>
<asrwt>0</asrwt>
<pdfrwt beam="2">  1        2 0.16278858E+00 0.14352014E+03</pdfrwt>
<pdfrwt beam="1">  1       -2 0.25103465E-02 0.14352014E+03</pdfrwt>
<totfact> 0.12896515E+04</totfact>
</mgrwt>
</event>
<event>
 7    1  0.5928109E-006  0.1263634E+03  0.7546771E-02  0.1247416E+00
         -2   -1    0    0    0  501 -0.00000000000E+00  0.00000000000E+00  0.15005319191E+03  0.15005319191E+03  0.00000000000E+00 0.  1.
          2   -1    0    0  501    0  0.00000000000E+00 -0.00000000000E+00 -0.95448392225E+02  0.95448392225E+02  0.00000000000E+00 0. -1.
         23    2    1    2    0    0  0.17412077188E+02  0.63051264445E+01 -0.16546508589E+02  0.12744208436E+03  0.12499905147E+03 0.  0.
          5    1    3    3  502    0  0.19310661806E+02 -0.51214402122E+01  0.52971850688E+02  0.56808782547E+02  0.47000000000E+01 0.  1.
         -5    1    3    3    0  502 -0.18985846178E+01  0.11426566657E+02 -0.69518359277E+02  0.70633301817E+02  0.47000000000E+01 0.  1.
        -11    1    1    2    0    0 -0.15060998376E+02 -0.44717175145E+02  0.63017744921E+02  0.78725444425E+02  0.00000000000E+00 0.  1.
         11    1    1    2    0    0 -0.23510788117E+01  0.38412048700E+02  0.81335633517E+01  0.39334055343E+02  0.00000000000E+00 0. -1.
<mgrwt>
<rscale>  0 0.11741949E+03</rscale>
<asrwt>0</asrwt>
<pdfrwt beam="2">  1        2 0.14684368E-01 0.12636336E+03</pdfrwt>
<pdfrwt beam="1">  1       -2 0.23085107E-01 0.12636336E+03</pdfrwt>
<totfact> 0.61746710E+03</totfact>
</mgrwt>
</event>
<event>
 7    1  0.5928109E-006  0.1262515E+03  0.7546771E-02  0.1249219E+00
          4   -1    0    0  501    0  0.00000000000E+00  0.00000000000E+00  0.11345306123E+03  0.11345306123E+03  0.00000000000E+00 0. -1.
         -4   -1    0    0    0  501 -0.00000000000E+00 -0.00000000000E+00 -0.10530892850E+03  0.10530892850E+03  0.00000000000E+00 0.  1.
         23    2    1    2    0    0 -0.93890461517E+01 -0.15042360144E+02  0.16248610327E+02  0.12729285385E+03  0.12500010607E+03 0.  0.
          5    1    3    3  502    0 -0.54643330404E+02  0.28465676659E+02  0.17854836263E+02  0.64320086158E+02  0.47000000000E+01 0.  1.
         -5    1    3    3    0  502  0.45254284253E+02 -0.43508036803E+02 -0.16062259367E+01  0.62972767697E+02  0.47000000000E+01 0.  1.
        -11    1    1    2    0    0  0.13452901878E+02  0.34597670058E+02 -0.39533975151E+02  0.54230199461E+02  0.00000000000E+00 0.  1.
         11    1    1    2    0    0 -0.40638557267E+01 -0.19555309915E+02  0.31429497554E+02  0.37238936420E+02  0.00000000000E+00 0. -1.
<mgrwt>
<rscale>  0 0.11636391E+03</rscale>
<asrwt>0</asrwt>
<pdfrwt beam="1">  1        4 0.17454317E-01 0.12625155E+03</pdfrwt>
<pdfrwt beam="2">  1       -4 0.16201374E-01 0.12625155E+03</pdfrwt>
<totfact> 0.15354504E+03</totfact>
</mgrwt>
</event>
<event>
 7    1  0.5928109E-006  0.1454332E+03  0.7546771E-02  0.1216804E+00
          1   -1    0    0  501    0  0.00000000000E+00  0.00000000000E+00  0.25068096328E+03  0.25068096328E+03  0.00000000000E+00 0. -1.
         -1   -1    0    0    0  501 -0.00000000000E+00 -0.00000000000E+00 -0.71765109044E+02  0.71765109044E+02  0.00000000000E+00 0.  1.
         23    2    1    2    0    0 -0.34821720207E+02  0.65670380485E+02  0.13484821265E+03  0.19833016790E+03  0.12500265587E+03 0.  0.
          5    1    3    3  502    0 -0.32841409435E+02  0.58541557962E+02  0.42335250586E+01  0.67421694703E+02  0.47000000000E+01 0.  1.
         -5    1    3    3    0  502 -0.19803107718E+01  0.71288225233E+01  0.13061468759E+03  0.13090847320E+03  0.47000000000E+01 0.  1.
        -11    1    1    2    0    0  0.62760275822E+02 -0.27786379284E+02  0.30651495220E+02  0.75169470227E+02  0.00000000000E+00 0.  1.
         11    1    1    2    0    0 -0.27938555615E+02 -0.37884001201E+02  0.13416146365E+02  0.48946434192E+02  0.00000000000E+00 0. -1.
<mgrwt>
<rscale>  0 0.13744837E+03</rscale>
<asrwt>0</asrwt>
<pdfrwt beam="1">  1        1 0.38566302E-01 0.14543320E+03</pdfrwt>
<pdfrwt beam="2">  1       -1 0.11040786E-01 0.14543320E+03</pdfrwt>
<totfact> 0.55153624E+03</totfact>
</mgrwt>
</event>
<event>
 7    1  0.5928109E-006  0.1223532E+03  0.7546771E-02  0.1246405E+00
         -1   -1    0    0    0  501 -0.00000000000E+00  0.00000000000E+00  0.11248032102E+03  0.11248032102E+03  0.00000000000E+00 0.  1.
          1   -1    0    0  501    0  0.00000000000E+00 -0.00000000000E+00 -0.11644113251E+03  0.11644113251E+03  0.00000000000E+00 0. -1.
         23    2    1    2    0    0  0.16402333069E+01  0.50466701457E+02  0.63080907900E+01  0.12251566078E+03  0.11144826964E+03 0.  0.
          5    1    3    3  502    0 -0.35217790924E+02 -0.21195598401E+02  0.59134127983E+01  0.41792399309E+02  0.47000000000E+01 0. -1.
         -5    1    3    3    0  502  0.36858024231E+02  0.71662299858E+02  0.39467799172E+00  0.80723261467E+02  0.47000000000E+01 0.  1.
        -11    1    1    2    0    0  0.18485780825E+02  0.16646975526E+02  0.18151453325E+02  0.30794823342E+02  0.00000000000E+00 0.  1.
         11    1    1    2    0    0 -0.20126014132E+02 -0.67113676983E+02 -0.28420355604E+02  0.75610969414E+02  0.00000000000E+00 0. -1.
<mgrwt>
<rscale>  0 0.11801704E+03</rscale>
<asrwt>0</asrwt>
<pdfrwt beam="2">  1        1 0.17914020E-01 0.12235316E+03</pdfrwt>
<pdfrwt beam="1">  1       -1 0.17304665E-01 0.12235316E+03</pdfrwt>
<totfact> 0.70766252E+03</totfact>
</mgrwt>
</event>
<event>
 7    1  0.5928109E-006  0.1451094E+03  0.7546771E-02  0.1216764E+00
          2   -1    0    0  501    0  0.00000000000E+00  0.00000000000E+00  0.72866818102E+03  0.72866818102E+03  0.00000000000E+00 0. -1.
         -2   -1    0    0    0  501 -0.00000000000E+00 -0.00000000000E+00 -0.24379419744E+02  0.24379419744E+02  0.00000000000E+00 0.  1.
         23    2    1    2    0    0  0.69249636444E+02  0.25207929419E+02  0.45765716710E+03  0.48011125317E+03  0.12500312381E+03 0.  0.
          5    1    3    3  502    0  0.32958926461E+02 -0.49016652278E+02  0.24126784545E+03  0.24843748968E+03  0.47000000000E+01 0.  1.
         -5    1    3    3    0  502  0.36290709983E+02  0.74224581697E+02  0.21638932166E+03  0.23167376348E+03  0.47000000000E+01 0.  1.
        -11    1    1    2    0    0 -0.60059771182E+02  0.18007296502E+02  0.86586595647E+02  0.10690499234E+03  0.00000000000E+00 0.  1.
         11    1    1    2    0    0 -0.91898652623E+01 -0.43215225921E+02  0.16004499853E+03  0.16603135526E+03  0.00000000000E+00 0. -1.
<mgrwt>
<rscale>  0 0.13747736E+03</rscale>
<asrwt>0</asrwt>
<pdfrwt beam="1">  1        2 0.11210278E+00 0.14510938E+03</pdfrwt>
<pdfrwt beam="2">  1       -2 0.37506805E-02 0.14510938E+03</pdfrwt>
<totfact> 0.11607195E+04</totfact>
</mgrwt>
</event>
<event>
 7    1  0.5928109E-006  0.1290412E+03  0.7546771E-02  0.1242866E+00
          1   -1    0    0  501    0  0.00000000000E+00  0.00000000000E+00  0.24765385660E+03  0.24765385660E+03  0.00000000000E+00 0. -1.
         -1   -1    0    0    0  501 -0.00000000000E+00 -0.00000000000E+00 -0.62154069732E+02  0.62154069732E+02  0.00000000000E+00 0.  1.
         23    2    1    2    0    0 -0.17985162289E+01  0.32087516882E+02  0.16709392998E+03  0.21112082430E+03  0.12497510799E+03 0.  0.
          5    1    3    3  502    0 -0.27724669562E+02 -0.18521170343E+02 -0.91875370784E+00  0.33684197505E+02  0.47000000000E+01 0. -1.
         -5    1    3    3    0  502  0.25926153333E+02  0.50608687226E+02  0.16801268368E+03  0.17743662679E+03  0.47000000000E+01 0. -1.
        -11    1    1    2    0    0 -0.45452842677E+01 -0.45154230645E+02  0.47792500771E+02  0.65906655842E+02  0.00000000000E+00 0. -1.
         11    1    1    2    0    0  0.63438004965E+01  0.13066713763E+02 -0.29386643885E+02  0.32780446186E+02  0.00000000000E+00 0.  1.
<mgrwt>
<rscale>  0 0.12014046E+03</rscale>
<asrwt>0</asrwt>
<pdfrwt beam="1">  1        1 0.38100593E-01 0.12904116E+03</pdfrwt>
<pdfrwt beam="2">  1       -1 0.95621647E-02 0.12904116E+03</pdfrwt>
<totfact> 0.69225525E+03</totfact>
</mgrwt>
</event>
<event>
 7    1  0.5928109E-006  0.3300635E+03  0.7546771E-02  0.1072030E+00
         -1   -1    0    0    0  501 -0.00000000000E+00  0.00000000000E+00  0.34603139193E+03  0.34603139193E+03  0.00000000000E+00 0.  1.
          1   -1    0    0  501    0  0.00000000000E+00 -0.00000000000E+00 -0.30894596537E+03  0.30894596537E+03  0.00000000000E+00 0. -1.
         23    2    1    2    0    0 -0.16233476301E+03  0.25877391075E+03  0.44486275455E+02  0.33304799525E+03  0.12500170506E+03 0.  0.
          5    1    3    3  502    0 -0.17209958413E+03  0.26009859690E+03  0.56306149058E+02  0.31695744097E+03  0.47000000000E+01 0. -1.
         -5    1    3    3    0  502  0.97648211191E+01 -0.13246861496E+01 -0.11819873604E+02  0.16090554275E+02  0.47000000000E+01 0. -1.
        -11    1    1    2    0    0  0.29314202687E+01 -0.33564200057E+02 -0.29970831058E+02  0.45093230807E+02  0.00000000000E+00 0. -1.
         11    1    1    2    0    0  0.15940334274E+03 -0.22520971069E+03  0.22569982159E+02  0.27683613124E+03  0.00000000000E+00 0.  1.
<mgrwt>
<rscale>  0 0.32798925E+03</rscale>
<asrwt>0</asrwt>
<pdfrwt beam="2">  1        1 0.47530149E-01 0.33006354E+03</pdfrwt>
<pdfrwt beam="1">  1       -1 0.53235599E-01 0.33006354E+03</pdfrwt>
<totfact> 0.30920092E+02</totfact>
</mgrwt>
</event>
<event>
 7    1  0.5928109E-006  0.2547366E+03  0.7546771E-02  0.1111923E+00
          1   -1    0    0  501    0  0.00000000000E+00  0.00000000000E+00  0.10893139622E+04  0.10893139622E+04  0.00000000000E+00 0. -1.
         -1   -1    0    0    0  501 -0.00000000000E+00 -0.00000000000E+00 -0.60235114749E+02  0.60235114749E+02  0.00000000000E+00 0.  1.
         23    2    1    2    0    0  0.17987535781E+03 -0.10917222554E+03  0.63256854818E+03  0.67826238326E+03  0.12499269267E+03 0.  0.
          5    1    3    3  502    0  0.11229460454E+03 -0.12926451135E+03  0.39836035348E+03  0.43362709017E+03  0.47000000000E+01 0. -1.
         -5    1    3    3    0  502  0.67580753265E+02  0.20092285806E+02  0.23420819470E+03  0.24463529309E+03  0.47000000000E+01 0. -1.
        -11    1    1    2    0    0 -0.64215096001E+02  0.19289066004E+02  0.24344855658E+02  0.71332451372E+02  0.00000000000E+00 0.  1.
         11    1    1    2    0    0 -0.11566026181E+03  0.89883159535E+02  0.37216544361E+03  0.39995424232E+03  0.00000000000E+00 0. -1.
<mgrwt>
<rscale>  0 0.25219939E+03</rscale>
<asrwt>0</asrwt>
<pdfrwt beam="1">  1        1 0.16758675E+00 0.25473659E+03</pdfrwt>
<pdfrwt beam="2">  1       -1 0.92669416E-02 0.25473659E+03</pdfrwt>
<totfact> 0.94458225E+02</totfact>
</mgrwt>
</event>
<event>
 7    1  0.5928109E-006  0.1887376E+03  0.7546771E-02  0.1164619E+00
         -2   -1    0    0    0  501 -0.00000000000E+00  0.00000000000E+00  0.98308079950E+02  0.98308079950E+02  0.00000000000E+00 0.  1.
          2   -1    0    0  501    0  0.00000000000E+00 -0.00000000000E+00 -0.33430849861E+03  0.33430849861E+03  0.00000000000E+00 0. -1.
         23    2    1    2    0    0  0.78504741349E+02  0.11761491534E+03 -0.16317174524E+03  0.24949325588E+03  0.12500241422E+03 0.  0.
          5    1    3    3  502    0  0.10640670326E+03  0.10599162831E+03 -0.10356275129E+03  0.18249368544E+03  0.47000000000E+01 0. -1.
         -5    1    3    3    0  502 -0.27901961909E+02  0.11623287028E+02 -0.59608993954E+02  0.66999570445E+02  0.47000000000E+01 0. -1.
        -11    1    1    2    0    0 -0.34354696378E+02  0.76193897942E+01 -0.13640678110E+02  0.37740805017E+02  0.00000000000E+00 0. -1.
         11    1    1    2    0    0 -0.44150044971E+02 -0.12523430513E+03 -0.59187995316E+02  0.14538251767E+03  0.00000000000E+00 0.  1.
<mgrwt>
<rscale>  0 0.18332972E+03</rscale>
<asrwt>0</asrwt>
<pdfrwt beam="2">  1        2 0.51432077E-01 0.18873756E+03</pdfrwt>
<pdfrwt beam="1">  1       -2 0.15124320E-01 0.18873756E+03</pdfrwt>
<totfact> 0.32223969E+03</totfact>
</mgrwt>
</event>
<event>
 7    1  0.5928109E-006  0.1300539E+03  0.7546771E-02  0.1243856E+00
          2   -1    0    0  501    0  0.00000000000E+00  0.00000000000E+00  0.53852413205E+03  0.53852413205E+03  0.00000000000E+00 0. -1.
         -2   -1    0    0    0  501 -0.00000000000E+00 -0.00000000000E+00 -0.67100663210E+02  0.67100663210E+02  0.00000000000E+00 0.  1.
         23    2    1    2    0    0  0.29180391780E+02  0.20890046401E+02  0.49337833387E+03  0.51023152231E+03  0.12500454679E+03 0.  0.
          5    1    3    3  502    0  0.22242707267E+02  0.62263004304E+02  0.42301820338E+03  0.42817976380E+03  0.47000000000E+01 0. -1.
         -5    1    3    3    0  502  0.69376845130E+01 -0.41372957904E+02  0.70360130490E+02  0.82051758511E+02  0.47000000000E+01 0. -1.
        -11    1    1    2    0    0 -0.44434287136E+02 -0.44015854399E+02 -0.25342010219E+02  0.67483470522E+02  0.00000000000E+00 0.  1.
         11    1    1    2    0    0  0.15253895357E+02  0.23125807998E+02  0.33871451849E+01  0.27909802429E+02  0.00000000000E+00 0. -1.
<mgrwt>
<rscale>  0 0.11954118E+03</rscale>
<asrwt>0</asrwt>
<pdfrwt beam="1">  1        2 0.82849864E-01 0.13005394E+03</pdfrwt>
<pdfrwt beam="2">  1       -2 0.10323179E-01 0.13005394E+03</pdfrwt>
<totfact> 0.34991467E+03</totfact>
</mgrwt>
</event>
<event>
 7    1  0.5928109E-006  0.2576742E+03  0.7546771E-02  0.1110810E+00
          2   -1    0    0  501    0  0.00000000000E+00  0.00000000000E+00  0.14843941554E+04  0.14843941554E+04  0.00000000000E+00 0. -1.
         -2   -1    0    0    0  501 -0.00000000000E+00 -0.00000000000E+00 -0.54254764161E+02  0.54254764161E+02  0.00000000000E+00 0.  1.
         23    2    1    2    0    0 -0.12200480229E+03 -0.18943416951E+03  0.10927485890E+04  0.11227179013E+04  0.12500212373E+03 0.  0.
          5    1    3    3  502    0 -0.43109370888E+02 -0.16919261702E+03  0.68763429623E+03  0.70946992527E+03  0.47000000000E+01 0.  1.
         -5    1    3    3    0  502 -0.78895431398E+02 -0.20241552483E+02  0.40511429273E+03  0.41324797606E+03  0.47000000000E+01 0.  1.
        -11    1    1    2    0    0  0.23707748248E+02  0.37943435109E+02  0.14639417757E+03  0.15307846623E+03  0.00000000000E+00 0. -1.
         11    1    1    2    0    0  0.98297054038E+02  0.15149073440E+03  0.19099662466E+03  0.26285255196E+03  0.00000000000E+00 0.  1.
<mgrwt>
<rscale>  0 0.25398748E+03</rscale>
<asrwt>0</asrwt>
<pdfrwt beam="1">  1        2 0.22836830E+00 0.25767423E+03</pdfrwt>
<pdfrwt beam="2">  1       -2 0.83468879E-02 0.25767423E+03</pdfrwt>
<totfact> 0.12326243E+03</totfact>
</mgrwt>
</event>
<event>
 6    1  0.5928109E-006  0.1843899E+03  0.7546771E-02  0.1199373E+00
          1   -1    0    0  501    0  0.00000000000E+00  0.00000000000E+00  0.63212433025E+03  0.63212433025E+03  0.00000000000E+00 0. -1.
         -1   -1    0    0    0  501 -0.00000000000E+00 -0.00000000000E+00 -0.30475329263E+02  0.30475329263E+02  0.00000000000E+00 0.  1.
          5    1    1    2  502    0  0.36050095290E+02  0.40690246165E+01  0.49240627446E+03  0.49376329902E+03  0.47000000000E+01 0. -1.
         -5    1    1    2    0  502  0.17578286340E+02 -0.24492688802E+02 -0.15825933916E+01  0.30552946785E+02  0.47000000000E+01 0.  1.
        -11    1    1    2    0    0 -0.18476313652E+02 -0.21265571976E+02  0.38254766656E+02  0.47508166556E+02  0.00000000000E+00 0. -1.
         11    1    1    2    0    0 -0.35152067977E+02  0.41689236162E+02  0.72570553270E+02  0.90775247159E+02  0.00000000000E+00 0.  1.
<mgrwt>
<rscale>  0 0.15089863E+03</rscale>
<asrwt>0</asrwt>
<pdfrwt beam="1">  1        1 0.97249887E-01 0.18438991E+03</pdfrwt>
<pdfrwt beam="2">  1       -1 0.46885127E-02 0.18438991E+03</pdfrwt>
<totfact> 0.62036433E+03</totfact>
</mgrwt>
</event>
<event>
 7    1  0.5928109E-006  0.1432301E+03  0.7546771E-02  0.1220380E+00
         -2   -1    0    0    0  501 -0.00000000000E+00  0.00000000000E+00  0.20808000490E+02  0.20808000490E+02  0.00000000000E+00 0.  1.
          2   -1    0    0  501    0  0.00000000000E+00 -0.00000000000E+00 -0.10185848035E+04  0.10185848035E+04  0.00000000000E+00 0. -1.
         23    2    1    2    0    0 -0.69665716450E+02  0.60667457172E+01 -0.79150326921E+03  0.80435829918E+03  0.12499892333E+03 0.  0.
          5    1    3    3  502    0 -0.56346779292E+02  0.53869630719E+02 -0.28823302293E+03  0.29862562208E+03  0.47000000000E+01 0.  1.
         -5    1    3    3    0  502 -0.13318937158E+02 -0.47802885002E+02 -0.50327024628E+03  0.50573267710E+03  0.47000000000E+01 0.  1.
        -11    1    1    2    0    0  0.15015250358E+02 -0.30411628014E+02 -0.14683116455E+03  0.15069743111E+03  0.00000000000E+00 0. -1.
         11    1    1    2    0    0  0.54650466092E+02  0.24344882297E+02 -0.59442369256E+02  0.84337073703E+02  0.00000000000E+00 0.  1.
<mgrwt>
<rscale>  0 0.13488659E+03</rscale>
<asrwt>0</asrwt>
<pdfrwt beam="2">  1        2 0.15670534E+00 0.14323005E+03</pdfrwt>
<pdfrwt beam="1">  1       -2 0.32012312E-02 0.14323005E+03</pdfrwt>
<totfact> 0.95189137E+03</totfact>
</mgrwt>
</event>
<event>
 7    1  0.5928109E-006  0.1635570E+03  0.7546771E-02  0.1190062E+00
          1   -1    0    0  501    0  0.00000000000E+00  0.00000000000E+00  0.15541575077E+03  0.15541575077E+03  0.00000000000E+00 0. -1.
         -1   -1    0    0    0  501 -0.00000000000E+00 -0.00000000000E+00 -0.27274389551E+03  0.27274389551E+03  0.00000000000E+00 0.  1.
         23    2    1    2    0    0 -0.10411182860E+03 -0.43303857865E+02  0.80814238748E+02  0.18243311560E+03  0.11847532875E+03 0.  0.
          5    1    3    3  502    0 -0.43560073867E+02 -0.63107873222E+02  0.89514793685E+02  0.11796216337E+03  0.47000000000E+01 0. -1.
         -5    1    3    3    0  502 -0.60551754736E+02  0.19804015357E+02 -0.87005549370E+01  0.64470952235E+02  0.47000000000E+01 0.  1.
        -11    1    1    2    0    0  0.25074034281E+02  0.19592652303E+02 -0.80509834524E+00  0.31831233132E+02  0.00000000000E+00 0. -1.
         11    1    1    2    0    0  0.79037794322E+02  0.23711205562E+02 -0.19733728515E+03  0.21389529754E+03  0.00000000000E+00 0.  1.
<mgrwt>
<rscale>  0 0.15879672E+03</rscale>
<asrwt>0</asrwt>
<pdfrwt beam="1">  1        1 0.23910116E-01 0.16355703E+03</pdfrwt>
<pdfrwt beam="2">  1       -1 0.41960598E-01 0.16355703E+03</pdfrwt>
<totfact> 0.11377096E+03</totfact>
</mgrwt>
</event>
<event>
 7    1  0.5928109E-006  0.1339415E+03  0.7546771E-02  0.1236025E+00
         -2   -1    0    0    0  501 -0.00000000000E+00  0.00000000000E+00  0.20739285635E+02  0.20739285635E+02  0.00000000000E+00 0.  1.
          2   -1    0    0  501    0  0.00000000000E+00 -0.00000000000E+00 -0.11031407913E+04  0.11031407913E+04  0.00000000000E+00 0. -1.
         23    2    1    2    0    0  0.16745960950E+02 -0.45132667802E+02 -0.94339128297E+03  0.95285225849E+03  0.12499171504E+03 0.  0.
          5    1    3    3  502    0  0.30988313301E+02 -0.67657765690E+02 -0.88879491805E+03  0.89191723000E+03  0.47000000000E+01 0.  1.
         -5    1    3    3    0  502 -0.14242352351E+02  0.22525097889E+02 -0.54596364912E+02  0.60935028489E+02  0.47000000000E+01 0.  1.
        -11    1    1    2    0    0  0.28390057756E+02  0.50955879809E+00 -0.77927080598E+02  0.82939043400E+02  0.00000000000E+00 0.  1.
         11    1    1    2    0    0 -0.45136018706E+02  0.44623109004E+02 -0.61083142144E+02  0.88088775085E+02  0.00000000000E+00 0. -1.
<mgrwt>
<rscale>  0 0.12439036E+03</rscale>
<asrwt>0</asrwt>
<pdfrwt beam="2">  1        2 0.16971400E+00 0.13394146E+03</pdfrwt>
<pdfrwt beam="1">  1       -2 0.31906588E-02 0.13394146E+03</pdfrwt>
<totfact> 0.85120625E+03</totfact>
</mgrwt>
</event>
<event>
 7    1  0.5928109E-006  0.1395205E+03  0.7546771E-02  0.1224987E+00
          2   -1    0    0  501    0  0.00000000000E+00  0.00000000000E+00  0.70243554594E+02  0.70243554594E+02  0.00000000000E+00 0. -1.
         -2   -1    0    0    0  501 -0.00000000000E+00 -0.00000000000E+00 -0.22625435540E+03  0.22625435540E+03  0.00000000000E+00 0.  1.
         23    2    1    2    0    0  0.59371185500E+02  0.17749760457E+02 -0.68731237085E+02  0.15553117437E+03  0.12500388628E+03 0.  0.
          5    1    3    3  502    0  0.31765410990E+02 -0.34748856273E+02 -0.81906136910E+02  0.94589796549E+02  0.47000000000E+01 0. -1.
         -5    1    3    3    0  502  0.27605774510E+02  0.52498616730E+02  0.13174899825E+02  0.60941377818E+02  0.47000000000E+01 0. -1.
        -11    1    1    2    0    0  0.13368347830E+01  0.13706855485E+02  0.13432514795E+02  0.19237917461E+02  0.00000000000E+00 0. -1.
         11    1    1    2    0    0 -0.60708020283E+02 -0.31456615942E+02 -0.10071207851E+03  0.12172881816E+03  0.00000000000E+00 0.  1.
<mgrwt>
<rscale>  0 0.13167786E+03</rscale>
<asrwt>0</asrwt>
<pdfrwt beam="1">  1        2 0.10806701E-01 0.13952048E+03</pdfrwt>
<pdfrwt beam="2">  1       -2 0.34808362E-01 0.13952048E+03</pdfrwt>
<totfact> 0.43139541E+03</totfact>
</mgrwt>
</event>
<event>
 7    1  0.5928109E-006  0.1365231E+03  0.7546771E-02  0.1230083E+00
          2   -1    0    0  501    0  0.00000000000E+00  0.00000000000E+00  0.13831684664E+04  0.13831684664E+04  0.00000000000E+00 0. -1.
         -2   -1    0    0    0  501 -0.00000000000E+00 -0.00000000000E+00 -0.14282063377E+02  0.14282063377E+02  0.00000000000E+00 0.  1.
         23    2    1    2    0    0  0.39072263802E+02 -0.38573311077E+02  0.10979626440E+04  0.11064178822E+04  0.12499608112E+03 0.  0.
          5    1    3    3  502    0  0.22593725453E+01  0.42574572727E+02  0.49967834069E+03  0.50151593510E+03  0.47000000000E+01 0.  1.
         -5    1    3    3    0  502  0.36812891257E+02 -0.81147883804E+02  0.59828430333E+03  0.60490194711E+03  0.47000000000E+01 0.  1.
        -11    1    1    2    0    0 -0.33241712638E+01 -0.26442478949E+02  0.11914880510E+03  0.12209296689E+03  0.00000000000E+00 0. -1.
         11    1    1    2    0    0 -0.35748092539E+02  0.65015790026E+02  0.15177495389E+03  0.16893968066E+03  0.00000000000E+00 0.  1.
<mgrwt>
<rscale>  0 0.12824516E+03</rscale>
<asrwt>0</asrwt>
<pdfrwt beam="1">  1        2 0.21279504E+00 0.13652312E+03</pdfrwt>
<pdfrwt beam="2">  1       -2 0.21972416E-02 0.13652312E+03</pdfrwt>
<totfact> 0.10329595E+04</totfact>
</mgrwt>
</event>
<event>
 7    1  0.5928109E-006  0.1346733E+03  0.7546771E-02  0.1233277E+00
          3   -1    0    0  501    0  0.00000000000E+00  0.00000000000E+00  0.38489715204E+02  0.38489715204E+02  0.00000000000E+00 0. -1.
         -3   -1    0    0    0  501 -0.00000000000E+00 -0.00000000000E+00 -0.36906160853E+03  0.36906160853E+03  0.00000000000E+00 0.  1.
         23    2    1    2    0    0  0.33507155806E+02  0.37276181967E+02 -0.18594057151E+03  0.22958833503E+03  0.12499865685E+03 0.  0.
          5    1    3    3  502    0  0.61747163947E+02  0.66133301598E+02 -0.10269005030E+03  0.13694401143E+03  0.47000000000E+01 0. -1.
         -5    1    3    3    0  502 -0.28240008141E+02 -0.28857119631E+02 -0.83250521220E+02  0.92644323607E+02  0.47000000000E+01 0. -1.
        -11    1    1    2    0    0  0.40133225653E+01 -0.56947203648E+02 -0.10709916675E+03  0.12136441933E+03  0.00000000000E+00 0. -1.
         11    1    1    2    0    0 -0.37520478371E+02  0.19671021681E+02 -0.37532155063E+02  0.56598569371E+02  0.00000000000E+00 0.  1.
<mgrwt>
<rscale>  0 0.12615383E+03</rscale>
<asrwt>0</asrwt>
<pdfrwt beam="1">  1        3 0.59214945E-02 0.13467334E+03</pdfrwt>
<pdfrwt beam="2">  1       -3 0.56778710E-01 0.13467334E+03</pdfrwt>
<totfact> 0.12336283E+03</totfact>
</mgrwt>
</event>
<event>
 7    1  0.5928109E-006  0.1241994E+03  0.7546771E-02  0.1245188E+00
          3   -1    0    0  501    0  0.00000000000E+00  0.00000000000E+00  0.35989109635E+03  0.35989109635E+03  0.00000000000E+00 0. -1.
         -3   -1    0    0    0  501 -0.00000000000E+00 -0.00000000000E+00 -0.36103440259E+02  0.36103440259E+02  0.00000000000E+00 0.  1.
         23    2    1    2    0    0  0.45924471196E+02  0.13975244334E+02  0.17845415941E+03  0.21741980873E+03  0.11454746488E+03 0.  0.
          5    1    3    3  502    0  0.61622281318E+02 -0.13452916582E+02  0.17402720558E+03  0.18516437238E+03  0.47000000000E+01 0. -1.
         -5    1    3    3    0  502 -0.15697810121E+02  0.27428160916E+02  0.44269538316E+01  0.32255436349E+02  0.47000000000E+01 0.  1.
        -11    1    1    2    0    0 -0.65787884987E+01  0.30436282151E+02  0.97528651046E+02  0.10237912631E+03  0.00000000000E+00 0.  1.
         11    1    1    2    0    0 -0.39345682698E+02 -0.44411526485E+02  0.47804845637E+02  0.76195601566E+02  0.00000000000E+00 0. -1.
<mgrwt>
<rscale>  0 0.11874134E+03</rscale>
<asrwt>0</asrwt>
<pdfrwt beam="1">  1        3 0.55367859E-01 0.12419938E+03</pdfrwt>
<pdfrwt beam="2">  1       -3 0.55543757E-02 0.12419938E+03</pdfrwt>
<totfact> 0.14189664E+03</totfact>
</mgrwt>
</event>
<event>
 6    1  0.5928109E-006  0.3202586E+03  0.7546771E-02  0.1082570E+00
         -2   -1    0    0    0  501 -0.00000000000E+00  0.00000000000E+00  0.37351136006E+02  0.37351136006E+02  0.00000000000E+00 0.  1.
          2   -1    0    0  501    0  0.00000000000E+00 -0.00000000000E+00 -0.22941485829E+04  0.22941485829E+04  0.00000000000E+00 0. -1.
          5    1    1    2  502    0 -0.12778029790E+03  0.15809357848E+03 -0.88183171513E+03  0.90496997071E+03  0.47000000000E+01 0. -1.
         -5    1    1    2    0  502  0.71721807623E+02  0.84383069402E+02 -0.31341940638E+03  0.33244297915E+03  0.47000000000E+01 0.  1.
        -11    1    1    2    0    0  0.57362199801E+02 -0.11838566391E+03 -0.40230848181E+03  0.42327024691E+03  0.00000000000E+00 0.  1.
         11    1    1    2    0    0 -0.13037095276E+01 -0.12409098397E+03 -0.65923784357E+03  0.67081652213E+03  0.00000000000E+00 0. -1.
<mgrwt>
<rscale>  0 0.30540446E+03</rscale>
<asrwt>0</asrwt>
<pdfrwt beam="2">  1        2 0.35294580E+00 0.32025859E+03</pdfrwt>
<pdfrwt beam="1">  1       -2 0.57463308E-02 0.32025859E+03</pdfrwt>
<totfact> 0.81460043E+02</totfact>
</mgrwt>
</event>
<event>
 7    1  0.5928109E-006  0.2182853E+03  0.7546771E-02  0.1138557E+00
          2   -1    0    0  501    0  0.00000000000E+00  0.00000000000E+00  0.30457573990E+03  0.30457573990E+03  0.00000000000E+00 0. -1.
         -2   -1    0    0    0  501 -0.00000000000E+00 -0.00000000000E+00 -0.25235542258E+03  0.25235542258E+03  0.00000000000E+00 0.  1.
         23    2    1    2    0    0  0.15952764831E+02 -0.17822814776E+03  0.20881965570E+03  0.30208295641E+03  0.12501480147E+03 0.  0.
          5    1    3    3  502    0  0.42006144107E+02 -0.77257670921E+02  0.16860990409E+03  0.19022264222E+03  0.47000000000E+01 0.  1.
         -5    1    3    3    0  502 -0.26053379276E+02 -0.10097047684E+03  0.40209751611E+02  0.11186031418E+03  0.47000000000E+01 0.  1.
        -11    1    1    2    0    0 -0.31171414868E+02  0.15765990484E+03 -0.16254431124E+03  0.22858030496E+03  0.00000000000E+00 0.  1.
         11    1    1    2    0    0  0.15218650037E+02  0.20568242925E+02  0.59449728696E+01  0.26267901103E+02  0.00000000000E+00 0. -1.
<mgrwt>
<rscale>  0 0.21384475E+03</rscale>
<asrwt>0</asrwt>
<pdfrwt beam="1">  1        2 0.46857806E-01 0.21828528E+03</pdfrwt>
<pdfrwt beam="2">  1       -2 0.38823911E-01 0.21828528E+03</pdfrwt>
<totfact> 0.67985575E+02</totfact>
</mgrwt>
</event>
<event>
 7    1  0.5928109E-006  0.1419156E+03  0.7546771E-02  0.1221681E+00
         -1   -1    0    0    0  501 -0.00000000000E+00  0.00000000000E+00  0.53760524733E+02  0.53760524733E+02  0.00000000000E+00 0.  1.
          1   -1    0    0  501    0  0.00000000000E+00 -0.00000000000E+00 -0.33876495664E+03  0.33876495664E+03  0.00000000000E+00 0. -1.
         23    2    1    2    0    0  0.27866720332E+02 -0.61135355781E+02 -0.22177897361E+03  0.26329820244E+03  0.12500377773E+03 0.  0.
          5    1    3    3  502    0  0.73454040968E+02 -0.59490347436E+02 -0.13119682281E+03  0.16176926126E+03  0.47000000000E+01 0.  1.
         -5    1    3    3    0  502 -0.45587320635E+02 -0.16450083446E+01 -0.90582150800E+02  0.10152894119E+03  0.47000000000E+01 0.  1.
        -11    1    1    2    0    0 -0.48108357488E+02  0.16269488871E+02 -0.22090791497E+01  0.50832965278E+02  0.00000000000E+00 0.  1.
         11    1    1    2    0    0  0.20241637155E+02  0.44865866910E+02 -0.61016379147E+02  0.78394313649E+02  0.00000000000E+00 0. -1.
<mgrwt>
<rscale>  0 0.13397000E+03</rscale>
<asrwt>0</asrwt>
<pdfrwt beam="2">  1        1 0.52117685E-01 0.14191557E+03</pdfrwt>
<pdfrwt beam="1">  1       -1 0.82708500E-02 0.14191557E+03</pdfrwt>
<totfact> 0.58888325E+03</totfact>
</mgrwt>
</event>
<event>
 6    1  0.5928109E-006  0.2339442E+03  0.7546771E-02  0.1143457E+00
         -1   -1    0    0    0  501 -0.00000000000E+00  0.00000000000E+00  0.19037495762E+02  0.19037495762E+02  0.00000000000E+00 0.  1.
          1   -1    0    0  501    0  0.00000000000E+00 -0.00000000000E+00 -0.22843652105E+04  0.22843652105E+04  0.00000000000E+00 0. -1.
          5    1    1    2  502    0 -0.62779140168E+02 -0.31857776790E+02 -0.14862404788E+04  0.14879143085E+04  0.47000000000E+01 0. -1.
         -5    1    1    2    0  502  0.51256623090E+02 -0.80170988533E+02 -0.33479407863E+03  0.34808590017E+03  0.47000000000E+01 0.  1.
        -11    1    1    2    0    0  0.50690394368E+02  0.70004213272E+02 -0.23584586352E+03  0.25118395111E+03  0.00000000000E+00 0.  1.
         11    1    1    2    0    0 -0.39167877290E+02  0.42024552052E+02 -0.20844729378E+03  0.21621854654E+03  0.00000000000E+00 0. -1.
<mgrwt>
<rscale>  0 0.20762945E+03</rscale>
<asrwt>0</asrwt>
<pdfrwt beam="2">  1        1 0.35144086E+00 0.23394424E+03</pdfrwt>
<pdfrwt beam="1">  1       -1 0.29288450E-02 0.23394424E+03</pdfrwt>
<totfact> 0.86367358E+02</totfact>
</mgrwt>
</event>
<event>
 7    1  0.7235563E-006  0.2768130E+03  0.7546771E-02  0.1099242E+00
          1   -1    0    0  501    0  0.00000000000E+00  0.00000000000E+00  0.63431150856E+03  0.63431150856E+03  0.00000000000E+00 0. -1.
         -1   -1    0    0    0  501 -0.00000000000E+00 -0.00000000000E+00 -0.12354299300E+03  0.12354299300E+03  0.00000000000E+00 0.  1.
         23    2    1    2    0    0 -0.24353725116E+03 -0.41105627831E+02  0.35861040238E+03  0.45301973950E+03  0.12500159335E+03 0.  0.
          5    1    3    3  502    0 -0.12757136361E+03  0.17667361760E+02  0.25857578922E+03  0.28891195416E+03  0.47000000000E+01 0. -1.
         -5    1    3    3    0  502 -0.11596588754E+03 -0.58772989591E+02  0.10003461316E+03  0.16410778534E+03  0.47000000000E+01 0. -1.
        -11    1    1    2    0    0  0.11923640074E+03 -0.17369488439E+02  0.38361719214E+02  0.12645410191E+03  0.00000000000E+00 0.  1.
         11    1    1    2    0    0  0.12430085042E+03  0.58475116270E+02  0.11379639396E+03  0.17838066015E+03  0.00000000000E+00 0. -1.
<mgrwt>
<rscale>  0 0.27358997E+03</rscale>
<asrwt>0</asrwt>
<pdfrwt beam="1">  1        1 0.97586385E-01 0.27681305E+03</pdfrwt>
<pdfrwt beam="2">  1       -1 0.19006615E-01 0.27681305E+03</pdfrwt>
<totfact> 0.71507322E+02</totfact>
</mgrwt>
</event>
<event>
 7    1  0.5928109E-006  0.1292890E+03  0.7546771E-02  0.1242237E+00
         -2   -1    0    0    0  501 -0.00000000000E+00  0.00000000000E+00  0.42242103566E+02  0.42242103566E+02  0.00000000000E+00 0.  1.
          2   -1    0    0  501    0  0.00000000000E+00 -0.00000000000E+00 -0.44159181027E+03  0.44159181027E+03  0.00000000000E+00 0. -1.
         23    2    1    2    0    0 -0.32556311896E+02  0.55675607266E+01 -0.35265903008E+03  0.37561153698E+03  0.12499889615E+03 0.  0.
          5    1    3    3  502    0  0.15363698195E+02  0.42664708594E+02 -0.26528934002E+03  0.26917809070E+03  0.47000000000E+01 0. -1.
         -5    1    3    3    0  502 -0.47920010091E+02 -0.37097147867E+02 -0.87369690054E+02  0.10643344628E+03  0.47000000000E+01 0. -1.
        -11    1    1    2    0    0 -0.16581635203E+02  0.28432183161E+02 -0.33632604916E+02  0.47058386912E+02  0.00000000000E+00 0. -1.
         11    1    1    2    0    0  0.49137947099E+02 -0.33999743887E+02 -0.13058071711E+02  0.61163989947E+02  0.00000000000E+00 0.  1.
<mgrwt>
<rscale>  0 0.12052287E+03</rscale>
<asrwt>0</asrwt>
<pdfrwt beam="2">  1        2 0.67937206E-01 0.12928896E+03</pdfrwt>
<pdfrwt beam="1">  1       -2 0.64987847E-02 0.12928896E+03</pdfrwt>
<totfact> 0.88859472E+03</totfact>
</mgrwt>
</event>
<event>
 7    1  0.5928109E-006  0.1460867E+03  0.7546771E-02  0.1215654E+00
          2   -1    0    0  501    0  0.00000000000E+00  0.00000000000E+00  0.20910434917E+03  0.20910434917E+03  0.00000000000E+00 0. -1.
         -2   -1    0    0    0  501 -0.00000000000E+00 -0.00000000000E+00 -0.90078492088E+02  0.90078492088E+02  0.00000000000E+00 0.  1.
         23    2    1    2    0    0 -0.50381742513E+02  0.56380934762E+02  0.10739075201E+03  0.18131219227E+03  0.12499683062E+03 0.  0.
          5    1    3    3  502    0 -0.21047835077E+02  0.17434984013E+02  0.12592287645E+03  0.12894049341E+03  0.47000000000E+01 0.  1.
         -5    1    3    3    0  502 -0.29333907436E+02  0.38945950749E+02 -0.18532124436E+02  0.52371698858E+02  0.47000000000E+01 0.  1.
        -11    1    1    2    0    0  0.67258635324E+02 -0.17148248148E+02 -0.97762060315E+01  0.70095368211E+02  0.00000000000E+00 0.  1.
         11    1    1    2    0    0 -0.16876892811E+02 -0.39232686614E+02  0.21411311101E+02  0.47775280774E+02  0.00000000000E+00 0. -1.
<mgrwt>
<rscale>  0 0.13828592E+03</rscale>
<asrwt>0</asrwt>
<pdfrwt beam="1">  1        2 0.32169900E-01 0.14608675E+03</pdfrwt>
<pdfrwt beam="2">  1       -2 0.13858230E-01 0.14608675E+03</pdfrwt>
<totfact> 0.60656355E+03</totfact>
</mgrwt>
</event>
<event>
 7    1  0.5928109E-006  0.1404388E+03  0.7546771E-02  0.1224097E+00
          2   -1    0    0  501    0  0.00000000000E+00  0.00000000000E+00  0.64221414774E+03  0.64221414774E+03  0.00000000000E+00 0. -1.
         -2   -1    0    0    0  501 -0.00000000000E+00 -0.00000000000E+00 -0.28530639491E+02  0.28530639491E+02  0.00000000000E+00 0.  1.
         23    2    1    2    0    0  0.22490554884E+02 -0.59791537401E+02  0.46309644816E+03  0.48392290715E+03  0.12506880811E+03 0.  0.
          5    1    3    3  502    0  0.19579491968E+02  0.11460277127E+02  0.34576273950E+03  0.34653810250E+03  0.47000000000E+01 0.  1.
         -5    1    3    3    0  502  0.29110629156E+01 -0.71251814527E+02  0.11733370866E+03  0.13738480465E+03  0.47000000000E+01 0.  1.
        -11    1    1    2    0    0 -0.71319226606E+01  0.47415456731E+02  0.15848153684E+03  0.16557622829E+03  0.00000000000E+00 0. -1.
         11    1    1    2    0    0 -0.15358632223E+02  0.12376080669E+02 -0.78944767517E+01  0.21245651783E+02  0.00000000000E+00 0.  1.
<mgrwt>
<rscale>  0 0.13228960E+03</rscale>
<asrwt>0</asrwt>
<pdfrwt beam="1">  1        2 0.98802165E-01 0.14043881E+03</pdfrwt>
<pdfrwt beam="2">  1       -2 0.43893296E-02 0.14043881E+03</pdfrwt>
<totfact> 0.10640312E+04</totfact>
</mgrwt>
</event>
<event>
 7    1  0.5928109E-006  0.1779726E+03  0.7546771E-02  0.1175882E+00
         -2   -1    0    0    0  501 -0.00000000000E+00  0.00000000000E+00  0.57424389837E+02  0.57424389837E+02  0.00000000000E+00 0.  1.
          2   -1    0    0  501    0  0.00000000000E+00 -0.00000000000E+00 -0.53162239193E+03  0.53162239193E+03  0.00000000000E+00 0. -1.
         23    2    1    2    0    0 -0.52219678575E+01  0.12656807599E+03 -0.34146307052E+03  0.38506008038E+03  0.12500996028E+03 0.  0.
          5    1    3    3  502    0 -0.17598673048E+02  0.14547389347E+03 -0.24193105901E+03  0.28288706986E+03  0.47000000000E+01 0. -1.
         -5    1    3    3    0  502  0.12376705191E+02 -0.18905817488E+02 -0.99532011501E+02  0.10217301052E+03  0.47000000000E+01 0. -1.
        -11    1    1    2    0    0 -0.24694475307E+02 -0.36565620561E+02 -0.43063547252E+01  0.44332904357E+02  0.00000000000E+00 0.  1.
         11    1    1    2    0    0  0.29916443165E+02 -0.90002455425E+02 -0.12842857686E+03  0.15965379703E+03  0.00000000000E+00 0. -1.
<mgrwt>
<rscale>  0 0.17189892E+03</rscale>
<asrwt>0</asrwt>
<pdfrwt beam="2">  1        2 0.81788061E-01 0.17797257E+03</pdfrwt>
<pdfrwt beam="1">  1       -2 0.88345214E-02 0.17797257E+03</pdfrwt>
<totfact> 0.45938861E+03</totfact>
</mgrwt>
</event>
<event>
 7    1  0.5928109E-006  0.1583656E+03  0.7546771E-02  0.1198322E+00
         -1   -1    0    0    0  501 -0.00000000000E+00  0.00000000000E+00  0.95440440617E+02  0.95440440617E+02  0.00000000000E+00 0.  1.
          1   -1    0    0  501    0  0.00000000000E+00 -0.00000000000E+00 -0.28798959292E+03  0.28798959292E+03  0.00000000000E+00 0. -1.
         23    2    1    2    0    0 -0.17405529547E+02 -0.95663707495E+02 -0.19326650368E+03  0.24986318874E+03  0.12500069700E+03 0.  0.
          5    1    3    3  502    0 -0.35884163374E+02 -0.58789402886E+02 -0.19645186166E+03  0.20822893897E+03  0.47000000000E+01 0.  1.
         -5    1    3    3    0  502  0.18478633828E+02 -0.36874304610E+02  0.31853579819E+01  0.41634249772E+02  0.47000000000E+01 0.  1.
        -11    1    1    2    0    0  0.50734649729E+02  0.39747213692E+02 -0.15901462536E+02  0.66382996243E+02  0.00000000000E+00 0.  1.
         11    1    1    2    0    0 -0.33329120182E+02  0.55916493803E+02  0.16618813910E+02  0.67183848558E+02  0.00000000000E+00 0. -1.
<mgrwt>
<rscale>  0 0.15176401E+03</rscale>
<asrwt>0</asrwt>
<pdfrwt beam="2">  1        1 0.44306090E-01 0.15836563E+03</pdfrwt>
<pdfrwt beam="1">  1       -1 0.14683145E-01 0.15836563E+03</pdfrwt>
<totfact> 0.29949442E+03</totfact>
</mgrwt>
</event>
<event>
 7    1  0.5928109E-006  0.1648743E+03  0.7546771E-02  0.1190308E+00
         -1   -1    0    0    0  501 -0.00000000000E+00  0.00000000000E+00  0.17359814190E+02  0.17359814190E+02  0.00000000000E+00 0.  1.
          1   -1    0    0  501    0  0.00000000000E+00 -0.00000000000E+00 -0.15677815948E+04  0.15677815948E+04  0.00000000000E+00 0. -1.
         23    2    1    2    0    0  0.85149255342E+02 -0.65619652984E+02 -0.11227875614E+04  0.11348283820E+04  0.12500885553E+03 0.  0.
          5    1    3    3  502    0 -0.21005728495E+02  0.80484177085E+01 -0.39329442338E+03  0.39396524100E+03  0.47000000000E+01 0. -1.
         -5    1    3    3    0  502  0.10615498384E+03 -0.73668070693E+02 -0.72949313804E+03  0.74086314099E+03  0.47000000000E+01 0. -1.
        -11    1    1    2    0    0 -0.90807046303E+02  0.22979130697E+02 -0.23597226750E+03  0.25388357791E+03  0.00000000000E+00 0.  1.
         11    1    1    2    0    0  0.56577909607E+01  0.42640522288E+02 -0.19166195167E+03  0.19642944905E+03  0.00000000000E+00 0. -1.
<mgrwt>
<rscale>  0 0.15858090E+03</rscale>
<asrwt>0</asrwt>
<pdfrwt beam="2">  1        1 0.24119718E+00 0.16487434E+03</pdfrwt>
<pdfrwt beam="1">  1       -1 0.26707406E-02 0.16487434E+03</pdfrwt>
<totfact> 0.28794690E+03</totfact>
</mgrwt>
</event>
<event>
 7    1  0.5928109E-006  0.1447587E+03  0.7546771E-02  0.1216491E+00
         -2   -1    0    0    0  501 -0.00000000000E+00  0.00000000000E+00  0.18266317907E+02  0.18266317907E+02  0.00000000000E+00 0.  1.
          2   -1    0    0  501    0  0.00000000000E+00 -0.00000000000E+00 -0.97150446245E+03  0.97150446245E+03  0.00000000000E+00 0. -1.
         23    2    1    2    0    0 -0.50200412019E+02  0.53005603733E+02 -0.59958197457E+03  0.61680923702E+03  0.12500166097E+03 0.  0.
          5    1    3    3  502    0 -0.89277894100E+02  0.45945823274E+02 -0.35404091402E+03  0.36803344936E+03  0.47000000000E+01 0. -1.
         -5    1    3    3    0  502  0.39077482081E+02  0.70597804593E+01 -0.24554106055E+03  0.24877578765E+03  0.47000000000E+01 0. -1.
        -11    1    1    2    0    0 -0.15351845906E+02  0.99442335031E+01 -0.19797760978E+02  0.26954003273E+02  0.00000000000E+00 0.  1.
         11    1    1    2    0    0  0.65552257925E+02 -0.62949837236E+02 -0.33385840899E+03  0.34600754006E+03  0.00000000000E+00 0. -1.
<mgrwt>
<rscale>  0 0.13767548E+03</rscale>
<asrwt>0</asrwt>
<pdfrwt beam="2">  1        2 0.14946225E+00 0.14475873E+03</pdfrwt>
<pdfrwt beam="1">  1       -2 0.28102024E-02 0.14475873E+03</pdfrwt>
<totfact> 0.12313858E+04</totfact>
</mgrwt>
</event>
<event>
 7    1  0.5928109E-006  0.3231394E+03  0.7546771E-02  0.1075599E+00
         -2   -1    0    0    0  501 -0.00000000000E+00  0.00000000000E+00  0.16693956104E+03  0.16693956104E+03  0.00000000000E+00 0.  1.
          2   -1    0    0  501    0  0.00000000000E+00 -0.00000000000E+00 -0.12553410198E+04  0.12553410198E+04  0.00000000000E+00 0. -1.
         23    2    1    2    0    0  0.26755485226E+03 -0.13118330520E+03 -0.10618905812E+04  0.11099687854E+04  0.12499775834E+03 0.  0.
          5    1    3    3  502    0  0.22239401501E+03 -0.83427224568E+02 -0.63431789764E+03  0.67734812687E+03  0.47000000000E+01 0. -1.
         -5    1    3    3    0  502  0.45160837249E+02 -0.47756080628E+02 -0.42757268354E+03  0.43262065851E+03  0.47000000000E+01 0. -1.
        -11    1    1    2    0    0 -0.16522785881E+03  0.97945350144E+02  0.23789229772E+02  0.19354447653E+03  0.00000000000E+00 0. -1.
         11    1    1    2    0    0 -0.10232699345E+03  0.33237955052E+02 -0.50300107363E+02  0.11876731893E+03  0.00000000000E+00 0.  1.
<mgrwt>
<rscale>  0 0.32010834E+03</rscale>
<asrwt>0</asrwt>
<pdfrwt beam="2">  1        2 0.19312938E+00 0.32313944E+03</pdfrwt>
<pdfrwt beam="1">  1       -2 0.25683010E-01 0.32313944E+03</pdfrwt>
<totfact> 0.25195653E+02</totfact>
</mgrwt>
</event>
<event>
 7    1  0.5928109E-006  0.1459796E+03  0.7546771E-02  0.1213169E+00
         -2   -1    0    0    0  501 -0.00000000000E+00  0.00000000000E+00  0.22628871254E+02  0.22628871254E+02  0.00000000000E+00 0.  1.
          2   -1    0    0  501    0  0.00000000000E+00 -0.00000000000E+00 -0.81772029862E+03  0.81772029862E+03  0.00000000000E+00 0. -1.
         23    2    1    2    0    0 -0.74043154724E+02  0.14203409010E+02 -0.48231727219E+03  0.50392458165E+03  0.12500362935E+03 0.  0.
          5    1    3    3  502    0  0.11559136173E+02  0.48096241796E+02 -0.22967376634E+03  0.23498721465E+03  0.47000000000E+01 0.  1.
         -5    1    3    3    0  502 -0.85602290897E+02 -0.33892832786E+02 -0.25264350585E+03  0.26893736700E+03  0.47000000000E+01 0.  1.
        -11    1    1    2    0    0  0.58438526908E+02  0.26639673521E+02 -0.26038051733E+03  0.26818416702E+03  0.00000000000E+00 0. -1.
         11    1    1    2    0    0  0.15604627816E+02 -0.40843082531E+02 -0.52393637847E+02  0.68240421209E+02  0.00000000000E+00 0.  1.
<mgrwt>
<rscale>  0 0.14011871E+03</rscale>
<asrwt>0</asrwt>
<pdfrwt beam="2">  1        2 0.12580312E+00 0.14597956E+03</pdfrwt>
<pdfrwt beam="1">  1       -2 0.34813649E-02 0.14597956E+03</pdfrwt>
<totfact> 0.11251563E+04</totfact>
</mgrwt>
</event>
<event>
 7    1  0.5928109E-006  0.1363548E+03  0.7546771E-02  0.1238602E+00
          2   -1    0    0  501    0  0.00000000000E+00  0.00000000000E+00  0.86097852970E+03  0.86097852970E+03  0.00000000000E+00 0.  1.
         -2   -1    0    0    0  501 -0.00000000000E+00 -0.00000000000E+00 -0.14829205256E+02  0.14829205256E+02  0.00000000000E+00 0. -1.
         23    2    1    2    0    0  0.50078744265E+02  0.21412208410E+02  0.51805722618E+03  0.53570134401E+03  0.12500510823E+03 0.  0.
          5    1    3    3  502    0  0.52150731351E+02 -0.45252489018E+02  0.24614303111E+03  0.25568724706E+03  0.47000000000E+01 0. -1.
         -5    1    3    3    0  502 -0.20719870857E+01  0.66664697428E+02  0.27191419507E+03  0.28001409695E+03  0.47000000000E+01 0. -1.
        -11    1    1    2    0    0 -0.68477662234E+02 -0.18785936268E+02  0.25848356691E+03  0.26805942622E+03  0.00000000000E+00 0. -1.
         11    1    1    2    0    0  0.18398917968E+02 -0.26262721422E+01  0.69608531359E+02  0.72046964722E+02  0.00000000000E+00 0.  1.
<mgrwt>
<rscale>  0 0.12276607E+03</rscale>
<asrwt>0</asrwt>
<pdfrwt beam="1">  1        2 0.13245820E+00 0.13635483E+03</pdfrwt>
<pdfrwt beam="2">  1       -2 0.22814169E-02 0.13635483E+03</pdfrwt>
<totfact> 0.19510467E+04</totfact>
</mgrwt>
</event>
<event>
 7    1  0.5928109E-006  0.2201398E+03  0.7546771E-02  0.1137230E+00
         -2   -1    0    0    0  501 -0.00000000000E+00  0.00000000000E+00  0.82612042337E+02  0.82612042337E+02  0.00000000000E+00 0.  1.
          2   -1    0    0  501    0  0.00000000000E+00 -0.00000000000E+00 -0.64245621136E+03  0.64245621136E+03  0.00000000000E+00 0. -1.
         23    2    1    2    0    0  0.17203881092E+02  0.18039002977E+03 -0.43421943048E+03  0.48683474031E+03  0.12500005682E+03 0.  0.
          5    1    3    3  502    0  0.66261187899E+02  0.70939041772E+02 -0.15557067947E+03  0.18343178290E+03  0.47000000000E+01 0. -1.
         -5    1    3    3    0  502 -0.49057306807E+02  0.10945098800E+03 -0.27864875101E+03  0.30340295741E+03  0.47000000000E+01 0. -1.
        -11    1    1    2    0    0 -0.77396105841E+01 -0.48804861643E+02  0.84557618427E+01  0.50132983158E+02  0.00000000000E+00 0.  1.
         11    1    1    2    0    0 -0.94642705074E+01 -0.13158516813E+03 -0.13408050038E+03  0.18810053022E+03  0.00000000000E+00 0. -1.
<mgrwt>
<rscale>  0 0.21556937E+03</rscale>
<asrwt>0</asrwt>
<pdfrwt beam="2">  1        2 0.98839416E-01 0.22013984E+03</pdfrwt>
<pdfrwt beam="1">  1       -2 0.12709545E-01 0.22013984E+03</pdfrwt>
<totfact> 0.20838533E+03</totfact>
</mgrwt>
</event>
<event>
 7    1  0.5928109E-006  0.1272901E+03  0.7546771E-02  0.1245219E+00
         -2   -1    0    0    0  501 -0.00000000000E+00  0.00000000000E+00  0.22758261195E+02  0.22758261195E+02  0.00000000000E+00 0.  1.
          2   -1    0    0  501    0  0.00000000000E+00 -0.00000000000E+00 -0.64850060254E+03  0.64850060254E+03  0.00000000000E+00 0. -1.
         23    2    1    2    0    0  0.83728558261E+01 -0.22506480269E+02 -0.47975845078E+03  0.49635768647E+03  0.12500454175E+03 0.  0.
          5    1    3    3  502    0  0.15604617531E+02 -0.12170445109E+01 -0.29579271532E+00  0.16345114835E+02  0.47000000000E+01 0.  1.
         -5    1    3    3    0  502 -0.72317617052E+01 -0.21289435758E+02 -0.47946265807E+03  0.48001257164E+03  0.47000000000E+01 0.  1.
        -11    1    1    2    0    0 -0.33233365804E+02  0.49384052491E+02 -0.95665228407E+02  0.11267243305E+03  0.00000000000E+00 0. -1.
         11    1    1    2    0    0  0.24860509978E+02 -0.26877572222E+02 -0.50318662157E+02  0.62228744212E+02  0.00000000000E+00 0.  1.
<mgrwt>
<rscale>  0 0.11872289E+03</rscale>
<asrwt>0</asrwt>
<pdfrwt beam="2">  1        2 0.99769318E-01 0.12729015E+03</pdfrwt>
<pdfrwt beam="1">  1       -2 0.35012711E-02 0.12729015E+03</pdfrwt>
<totfact> 0.14613354E+04</totfact>
</mgrwt>
</event>
<event>
 7    1  0.5928109E-006  0.1390646E+03  0.7546771E-02  0.1225874E+00
          1   -1    0    0  501    0  0.00000000000E+00  0.00000000000E+00  0.39728430898E+03  0.39728430898E+03  0.00000000000E+00 0. -1.
         -1   -1    0    0    0  501 -0.00000000000E+00 -0.00000000000E+00 -0.58860649134E+02  0.58860649134E+02  0.00000000000E+00 0.  1.
         23    2    1    2    0    0  0.60692477283E+02 -0.55717477188E+01  0.31442615032E+03  0.34380628836E+03  0.12499735493E+03 0.  0.
          5    1    3    3  502    0  0.72946438938E+02 -0.50212249123E+02  0.24183823316E+03  0.25758546918E+03  0.47000000000E+01 0. -1.
         -5    1    3    3    0  502 -0.12253961655E+02  0.44640501405E+02  0.72587917165E+02  0.86220819181E+02  0.47000000000E+01 0. -1.
        -11    1    1    2    0    0 -0.19308569458E+02 -0.36491781491E+02 -0.12277585230E+02  0.43072149586E+02  0.00000000000E+00 0.  1.
         11    1    1    2    0    0 -0.41383907825E+02  0.42063529210E+02  0.36275094752E+02  0.69266520165E+02  0.00000000000E+00 0. -1.
<mgrwt>
<rscale>  0 0.13107178E+03</rscale>
<asrwt>0</asrwt>
<pdfrwt beam="1">  1        1 0.61120661E-01 0.13906459E+03</pdfrwt>
<pdfrwt beam="2">  1       -1 0.90554847E-02 0.13906459E+03</pdfrwt>
<totfact> 0.41993049E+03</totfact>
</mgrwt>
</event>
<event>
 7    1  0.5928109E-006  0.1758935E+03  0.7546771E-02  0.1177316E+00
         -2   -1    0    0    0  501 -0.00000000000E+00  0.00000000000E+00  0.94646243051E+02  0.94646243051E+02  0.00000000000E+00 0.  1.
          2   -1    0    0  501    0  0.00000000000E+00 -0.00000000000E+00 -0.32756625215E+03  0.32756625215E+03  0.00000000000E+00 0. -1.
         23    2    1    2    0    0 -0.12347756262E+03  0.82134867971E+01 -0.19442087684E+03  0.26217932981E+03  0.12499741514E+03 0.  0.
          5    1    3    3  502    0 -0.39572490146E+02  0.56202336974E+02 -0.12618317678E+03  0.14376706424E+03  0.47000000000E+01 0.  1.
         -5    1    3    3    0  502 -0.83905072471E+02 -0.47988850177E+02 -0.68237700062E+02  0.11841226557E+03  0.47000000000E+01 0.  1.
        -11    1    1    2    0    0  0.13012681924E+03 -0.24436383379E+02 -0.18911867743E+02  0.13374522294E+03  0.00000000000E+00 0.  1.
         11    1    1    2    0    0 -0.66492566229E+01  0.16222896582E+02 -0.19587264511E+02  0.26287942448E+02  0.00000000000E+00 0. -1.
<mgrwt>
<rscale>  0 0.17051142E+03</rscale>
<asrwt>0</asrwt>
<pdfrwt beam="2">  1        2 0.50394808E-01 0.17589350E+03</pdfrwt>
<pdfrwt beam="1">  1       -2 0.14560960E-01 0.17589350E+03</pdfrwt>
<totfact> 0.34951220E+03</totfact>
</mgrwt>
</event>
<event>
 7    1  0.5928109E-006  0.1644695E+03  0.7546771E-02  0.1190852E+00
          3   -1    0    0  501    0  0.00000000000E+00  0.00000000000E+00  0.12429128020E+03  0.12429128020E+03  0.00000000000E+00 0. -1.
         -3   -1    0    0    0  501 -0.00000000000E+00 -0.00000000000E+00 -0.18769408538E+03  0.18769408538E+03  0.00000000000E+00 0.  1.
         23    2    1    2    0    0  0.13465556393E+02  0.10603469042E+03 -0.43519243586E+02  0.17012980062E+03  0.12500219085E+03 0.  0.
          5    1    3    3  502    0 -0.29919739579E+02  0.87115303077E+02 -0.69913316989E+02  0.11573343829E+03  0.47000000000E+01 0.  1.
         -5    1    3    3    0  502  0.43385295971E+02  0.18919387343E+02  0.26394073402E+02  0.54396362330E+02  0.47000000000E+01 0.  1.
        -11    1    1    2    0    0 -0.22817395381E+02 -0.50966516606E+02 -0.52942665830E+02  0.76948977980E+02  0.00000000000E+00 0.  1.
         11    1    1    2    0    0  0.93518389882E+01 -0.55068173814E+02  0.33059104242E+02  0.64906586976E+02  0.00000000000E+00 0. -1.
<mgrwt>
<rscale>  0 0.15810605E+03</rscale>
<asrwt>0</asrwt>
<pdfrwt beam="1">  1        3 0.19121735E-01 0.16446952E+03</pdfrwt>
<pdfrwt beam="2">  1       -3 0.28876013E-01 0.16446952E+03</pdfrwt>
<totfact> 0.66625447E+02</totfact>
</mgrwt>
</event>
<event>
 7    1  0.5928109E-006  0.1571187E+03  0.7546771E-02  0.1199866E+00
         -2   -1    0    0    0  501 -0.00000000000E+00  0.00000000000E+00  0.12592235475E+03  0.12592235475E+03  0.00000000000E+00 0.  1.
          2   -1    0    0  501    0  0.00000000000E+00 -0.00000000000E+00 -0.17673128337E+03  0.17673128337E+03  0.00000000000E+00 0. -1.
         23    2    1    2    0    0 -0.81182936096E+02  0.49724403611E+02 -0.64191482649E+02  0.16972575190E+03  0.12499239571E+03 0.  0.
          5    1    3    3  502    0 -0.89841376240E+02  0.81711935671E+02 -0.61335217970E+02  0.13613380285E+03  0.47000000000E+01 0.  1.
         -5    1    3    3    0  502  0.86584401441E+01 -0.31987532060E+02 -0.28562646791E+01  0.33591949049E+02  0.47000000000E+01 0.  1.
        -11    1    1    2    0    0 -0.12777804606E+02 -0.34844353219E+02  0.31205075842E+01  0.37244312444E+02  0.00000000000E+00 0.  1.
         11    1    1    2    0    0  0.93960740702E+02 -0.14880050392E+02  0.10262046449E+02  0.95683573775E+02  0.00000000000E+00 0. -1.
<mgrwt>
<rscale>  0 0.15049494E+03</rscale>
<asrwt>0</asrwt>
<pdfrwt beam="2">  1        2 0.27189428E-01 0.15711870E+03</pdfrwt>
<pdfrwt beam="1">  1       -2 0.19372670E-01 0.15711870E+03</pdfrwt>
<totfact> 0.42020174E+03</totfact>
</mgrwt>
</event>
<event>
 7    1  0.5928109E-006  0.1305454E+03  0.7546771E-02  0.1238948E+00
         -1   -1    0    0    0  501 -0.00000000000E+00  0.00000000000E+00  0.37451427722E+02  0.37451427722E+02  0.00000000000E+00 0.  1.
          1   -1    0    0  501    0  0.00000000000E+00 -0.00000000000E+00 -0.40336803952E+03  0.40336803952E+03  0.00000000000E+00 0. -1.
         23    2    1    2    0    0 -0.13720478596E+02 -0.35048092486E+02 -0.27595409382E+03  0.30527491277E+03  0.12500196058E+03 0.  0.
          5    1    3    3  502    0 -0.69353274400E+02 -0.22398900062E+02 -0.16432130850E+03  0.17981982600E+03  0.47000000000E+01 0. -1.
         -5    1    3    3    0  502  0.55632795804E+02 -0.12649192423E+02 -0.11163278532E+03  0.12545508677E+03  0.47000000000E+01 0. -1.
        -11    1    1    2    0    0 -0.21734118648E+02  0.16347238904E+02  0.91014216954E+01  0.28678214904E+02  0.00000000000E+00 0.  1.
         11    1    1    2    0    0  0.35454597244E+02  0.18700853581E+02 -0.99063939674E+02  0.10686633958E+03  0.00000000000E+00 0. -1.
<mgrwt>
<rscale>  0 0.12255062E+03</rscale>
<asrwt>0</asrwt>
<pdfrwt beam="2">  1        1 0.62056621E-01 0.13054543E+03</pdfrwt>
<pdfrwt beam="1">  1       -1 0.57617581E-02 0.13054543E+03</pdfrwt>
<totfact> 0.80924686E+03</totfact>
</mgrwt>
</event>
<event>
 7    1  0.5928109E-006  0.1510920E+03  0.7546771E-02  0.1199527E+00
          2   -1    0    0  501    0  0.00000000000E+00  0.00000000000E+00  0.20594417489E+03  0.20594417489E+03  0.00000000000E+00 0. -1.
         -2   -1    0    0    0  501 -0.00000000000E+00 -0.00000000000E+00 -0.11040917719E+03  0.11040917719E+03  0.00000000000E+00 0.  1.
         23    2    1    2    0    0 -0.17037598141E+02 -0.83188742391E+02  0.58537400713E+02  0.16203522846E+03  0.12497256247E+03 0.  0.
          5    1    3    3  502    0  0.21897431348E+02 -0.10286331581E+03  0.52841871150E+02  0.11779096988E+03  0.47000000000E+01 0.  1.
         -5    1    3    3    0  502 -0.38935029489E+02  0.19674573418E+02  0.56955295624E+01  0.44244258583E+02  0.47000000000E+01 0.  1.
        -11    1    1    2    0    0 -0.39542562666E+01  0.94406540939E+02 -0.16357735209E+02  0.95894768449E+02  0.00000000000E+00 0. -1.
         11    1    1    2    0    0  0.20991854408E+02 -0.11217798549E+02  0.53355332191E+02  0.58423355167E+02  0.00000000000E+00 0.  1.
<mgrwt>
<rscale>  0 0.15077233E+03</rscale>
<asrwt>0</asrwt>
<pdfrwt beam="1">  1        2 0.31683719E-01 0.15109199E+03</pdfrwt>
<pdfrwt beam="2">  1       -2 0.16986027E-01 0.15109199E+03</pdfrwt>
<totfact> 0.44238823E+03</totfact>
</mgrwt>
</event>
<event>
 7    1  0.5928109E-006  0.1486567E+03  0.7546771E-02  0.1210674E+00
          2   -1    0    0  501    0  0.00000000000E+00  0.00000000000E+00  0.36935165068E+03  0.36935165068E+03  0.00000000000E+00 0.  1.
         -2   -1    0    0    0  501 -0.00000000000E+00 -0.00000000000E+00 -0.52976730974E+02  0.52976730974E+02  0.00000000000E+00 0. -1.
         23    2    1    2    0    0 -0.62832716724E+02  0.50898822118E+02  0.21987267822E+03  0.26541063528E+03  0.12474041168E+03 0.  0.
          5    1    3    3  502    0 -0.32760583651E+02  0.66620640366E+02  0.21883958829E+03  0.23113723406E+03  0.47000000000E+01 0. -1.
         -5    1    3    3    0  502 -0.30072133074E+02 -0.15721818248E+02  0.10330899347E+01  0.34273401224E+02  0.47000000000E+01 0. -1.
        -11    1    1    2    0    0  0.54634814409E+02 -0.65168716130E+02  0.32837643963E+02  0.91160492367E+02  0.00000000000E+00 0. -1.
         11    1    1    2    0    0  0.81979023158E+01  0.14269894012E+02  0.63664597515E+02  0.65757254005E+02  0.00000000000E+00 0.  1.
<mgrwt>
<rscale>  0 0.14199139E+03</rscale>
<asrwt>0</asrwt>
<pdfrwt beam="1">  1        2 0.56823329E-01 0.14865669E+03</pdfrwt>
<pdfrwt beam="2">  1       -2 0.81502665E-02 0.14865669E+03</pdfrwt>
<totfact> 0.76701468E+03</totfact>
</mgrwt>
</event>
<event>
 7    1  0.5928109E-006  0.1364777E+03  0.7546771E-02  0.1229782E+00
          2   -1    0    0  501    0  0.00000000000E+00  0.00000000000E+00  0.16671971626E+04  0.16671971626E+04  0.00000000000E+00 0. -1.
         -2   -1    0    0    0  501 -0.00000000000E+00 -0.00000000000E+00 -0.11019720499E+02  0.11019720499E+02  0.00000000000E+00 0.  1.
         23    2    1    2    0    0 -0.23197853402E+02 -0.49592131980E+02  0.12750968197E+04  0.12823798387E+04  0.12501452436E+03 0.  0.
          5    1    3    3  502    0 -0.10145087415E+02  0.32353194398E+02  0.74692247428E+03  0.74770644278E+03  0.47000000000E+01 0.  1.
         -5    1    3    3    0  502 -0.13052765987E+02 -0.81945326378E+02  0.52817434540E+03  0.53467339596E+03  0.47000000000E+01 0.  1.
        -11    1    1    2    0    0 -0.29630494888E+02 -0.57106523542E+01  0.92735686691E+02  0.97521717395E+02  0.00000000000E+00 0. -1.
         11    1    1    2    0    0  0.52828348290E+02  0.55302784334E+02  0.28834493570E+03  0.29831532693E+03  0.00000000000E+00 0.  1.
<mgrwt>
<rscale>  0 0.12844455E+03</rscale>
<asrwt>0</asrwt>
<pdfrwt beam="1">  1        2 0.25649167E+00 0.13647766E+03</pdfrwt>
<pdfrwt beam="2">  1       -2 0.16953429E-02 0.13647766E+03</pdfrwt>
<totfact> 0.10708169E+04</totfact>
</mgrwt>
</event>
<event>
 7    1  0.5928109E-006  0.1782038E+03  0.7546771E-02  0.1172952E+00
          2   -1    0    0  501    0  0.00000000000E+00  0.00000000000E+00  0.10950782228E+04  0.10950782228E+04  0.00000000000E+00 0. -1.
         -2   -1    0    0    0  501 -0.00000000000E+00 -0.00000000000E+00 -0.28560509252E+02  0.28560509252E+02  0.00000000000E+00 0.  1.
         23    2    1    2    0    0 -0.30220787748E+02 -0.13479098929E+03  0.68909377014E+03  0.71176316481E+03  0.11258184549E+03 0.  0.
          5    1    3    3  502    0  0.13004973340E+02 -0.58830425651E+02  0.49710384557E+03  0.50076388807E+03  0.47000000000E+01 0. -1.
         -5    1    3    3    0  502 -0.43225761088E+02 -0.75960563637E+02  0.19198992456E+03  0.21099927674E+03  0.47000000000E+01 0.  1.
        -11    1    1    2    0    0 -0.26375183090E+02  0.39976166531E+02  0.17333435053E+03  0.17982920020E+03  0.00000000000E+00 0.  1.
         11    1    1    2    0    0  0.56595970838E+02  0.94814822756E+02  0.20408959284E+03  0.23204636699E+03  0.00000000000E+00 0. -1.
<mgrwt>
<rscale>  0 0.17478094E+03</rscale>
<asrwt>0</asrwt>
<pdfrwt beam="1">  1        2 0.16847354E+00 0.17820376E+03</pdfrwt>
<pdfrwt beam="2">  1       -2 0.43939253E-02 0.17820376E+03</pdfrwt>
<totfact> 0.54073936E+03</totfact>
</mgrwt>
</event>
<event>
 7    1  0.5928109E-006  0.1440723E+03  0.7546771E-02  0.1218038E+00
         -1   -1    0    0    0  501 -0.00000000000E+00  0.00000000000E+00  0.41484621427E+02  0.41484621427E+02  0.00000000000E+00 0.  1.
          1   -1    0    0  501    0  0.00000000000E+00 -0.00000000000E+00 -0.41412016983E+03  0.41412016983E+03  0.00000000000E+00 0. -1.
         23    2    1    2    0    0 -0.48811285253E+02 -0.52981843202E+02 -0.23234232489E+03  0.27338576300E+03  0.12476859461E+03 0.  0.
          5    1    3    3  502    0  0.41920165513E+02 -0.24427025598E+02 -0.83345201857E+02  0.96553055513E+02  0.47000000000E+01 0.  1.
         -5    1    3    3    0  502 -0.90731450767E+02 -0.28554817604E+02 -0.14899712303E+03  0.17683270749E+03  0.47000000000E+01 0.  1.
        -11    1    1    2    0    0 -0.88634058187E+01  0.44547809357E+02 -0.10417836904E+03  0.11364946043E+03  0.00000000000E+00 0. -1.
         11    1    1    2    0    0  0.57674691072E+02  0.84340338457E+01 -0.36114854471E+02  0.68569567817E+02  0.00000000000E+00 0.  1.
<mgrwt>
<rscale>  0 0.13655693E+03</rscale>
<asrwt>0</asrwt>
<pdfrwt beam="2">  1        1 0.63710799E-01 0.14407227E+03</pdfrwt>
<pdfrwt beam="1">  1       -1 0.63822491E-02 0.14407227E+03</pdfrwt>
<totfact> 0.67633327E+03</totfact>
</mgrwt>
</event>
<event>
 7    1  0.5928109E-006  0.1377355E+03  0.7546771E-02  0.1227277E+00
         -1   -1    0    0    0  501 -0.00000000000E+00  0.00000000000E+00  0.19794878081E+03  0.19794878081E+03  0.00000000000E+00 0.  1.
          1   -1    0    0  501    0  0.00000000000E+00 -0.00000000000E+00 -0.81245036846E+02  0.81245036846E+02  0.00000000000E+00 0. -1.
         23    2    1    2    0    0  0.34292362572E+02 -0.46596008908E+02  0.34184983423E+02  0.14191430407E+03  0.12499560965E+03 0.  0.
          5    1    3    3  502    0  0.29948851442E+02 -0.78626003380E+02 -0.12238036983E+02  0.85151874080E+02  0.47000000000E+01 0.  1.
         -5    1    3    3    0  502  0.43435111295E+01  0.32029994471E+02  0.46423020406E+02  0.56762429990E+02  0.47000000000E+01 0.  1.
        -11    1    1    2    0    0  0.32507437439E+02  0.15680190520E+02  0.26217840003E+02  0.44609158230E+02  0.00000000000E+00 0. -1.
         11    1    1    2    0    0 -0.66799800011E+02  0.30915818389E+02  0.56300920536E+02  0.92670355353E+02  0.00000000000E+00 0.  1.
<mgrwt>
<rscale>  0 0.13012059E+03</rscale>
<asrwt>0</asrwt>
<pdfrwt beam="2">  1        1 0.12499237E-01 0.13773546E+03</pdfrwt>
<pdfrwt beam="1">  1       -1 0.30453658E-01 0.13773546E+03</pdfrwt>
<totfact> 0.45271726E+03</totfact>
</mgrwt>
</event>
<event>
 7    1  0.5928109E-006  0.1399943E+03  0.7546771E-02  0.1224309E+00
          1   -1    0    0  501    0  0.00000000000E+00  0.00000000000E+00  0.36841818834E+03  0.36841818834E+03  0.00000000000E+00 0. -1.
         -1   -1    0    0    0  501 -0.00000000000E+00 -0.00000000000E+00 -0.64179186800E+02  0.64179186800E+02  0.00000000000E+00 0.  1.
         23    2    1    2    0    0 -0.58472536754E+02  0.23611870177E+02  0.28807717682E+03  0.32029186173E+03  0.12498743505E+03 0.  0.
          5    1    3    3  502    0 -0.28546576941E+02 -0.21360600262E+02  0.25337576908E+03  0.25591512784E+03  0.47000000000E+01 0. -1.
         -5    1    3    3    0  502 -0.29925959813E+02  0.44972470440E+02  0.34701407743E+02  0.64376733899E+02  0.47000000000E+01 0. -1.
        -11    1    1    2    0    0 -0.81929147375E+01 -0.41105027620E+02  0.21190578884E+01  0.41967100852E+02  0.00000000000E+00 0.  1.
         11    1    1    2    0    0  0.66665451491E+02  0.17493157443E+02  0.14042766825E+02  0.70338412549E+02  0.00000000000E+00 0. -1.
<mgrwt>
<rscale>  0 0.13214388E+03</rscale>
<asrwt>0</asrwt>
<pdfrwt beam="1">  1        1 0.56679720E-01 0.13999435E+03</pdfrwt>
<pdfrwt beam="2">  1       -1 0.98737213E-02 0.13999435E+03</pdfrwt>
<totfact> 0.40483250E+03</totfact>
</mgrwt>
</event>
<event>
 6    1  0.5928109E-006  0.1580951E+03  0.7546771E-02  0.1216118E+00
          1   -1    0    0  501    0  0.00000000000E+00  0.00000000000E+00  0.71770054733E+03  0.71770054733E+03  0.00000000000E+00 0. -1.
         -1   -1    0    0    0  501 -0.00000000000E+00 -0.00000000000E+00 -0.25040161172E+02  0.25040161172E+02  0.00000000000E+00 0.  1.
          5    1    1    2  502    0  0.46632758313E+02 -0.57539911787E+02  0.28442925198E+03  0.29395160312E+03  0.47000000000E+01 0. -1.
         -5    1    1    2    0  502 -0.59101921967E+02  0.58687968621E+02  0.27275714875E+03  0.28522949889E+03  0.47000000000E+01 0.  1.
        -11    1    1    2    0    0 -0.24261251786E+02  0.26477472136E+02  0.24578268838E+02  0.43517308832E+02  0.00000000000E+00 0. -1.
         11    1    1    2    0    0  0.36730415440E+02 -0.27625528970E+02  0.11089571659E+03  0.12004229766E+03  0.00000000000E+00 0.  1.
<mgrwt>
<rscale>  0 0.13794766E+03</rscale>
<asrwt>0</asrwt>
<pdfrwt beam="1">  1        1 0.11041545E+00 0.15809511E+03</pdfrwt>
<pdfrwt beam="2">  1       -1 0.38523330E-02 0.15809511E+03</pdfrwt>
<totfact> 0.68726484E+03</totfact>
</mgrwt>
</event>
<event>
 7    1  0.5928109E-006  0.1285688E+03  0.7546771E-02  0.1245406E+00
         -1   -1    0    0    0  501 -0.00000000000E+00  0.00000000000E+00  0.43072469672E+03  0.43072469672E+03  0.00000000000E+00 0.  1.
          1   -1    0    0  501    0  0.00000000000E+00 -0.00000000000E+00 -0.30955440032E+02  0.30955440032E+02  0.00000000000E+00 0. -1.
         23    2    1    2    0    0 -0.10225202054E+02  0.28292212877E+02  0.16545249600E+03  0.20953394980E+03  0.12499977448E+03 0.  0.
          5    1    3    3  502    0 -0.88772190272E+01  0.74773447751E+02  0.68495306440E+02  0.10189980623E+03  0.47000000000E+01 0.  1.
         -5    1    3    3    0  502 -0.13479830270E+01 -0.46481234874E+02  0.96957189565E+02  0.10763414357E+03  0.47000000000E+01 0.  1.
        -11    1    1    2    0    0  0.33835060945E+02 -0.27844083018E+02  0.22044760313E+03  0.22476042809E+03  0.00000000000E+00 0.  1.
         11    1    1    2    0    0 -0.23609858891E+02 -0.44812985882E+00  0.13869157555E+02  0.27385758862E+02  0.00000000000E+00 0. -1.
<mgrwt>
<rscale>  0 0.11861106E+03</rscale>
<asrwt>0</asrwt>
<pdfrwt beam="2">  1        1 0.47623757E-02 0.12856884E+03</pdfrwt>
<pdfrwt beam="1">  1       -1 0.66265334E-01 0.12856884E+03</pdfrwt>
<totfact> 0.40687448E+03</totfact>
</mgrwt>
</event>
<event>
 7    1  0.5928109E-006  0.1519103E+03  0.7546771E-02  0.1207705E+00
         -1   -1    0    0    0  501 -0.00000000000E+00  0.00000000000E+00  0.24342149192E+03  0.24342149192E+03  0.00000000000E+00 0.  1.
          1   -1    0    0  501    0  0.00000000000E+00 -0.00000000000E+00 -0.87362792279E+02  0.87362792279E+02  0.00000000000E+00 0. -1.
         23    2    1    2    0    0  0.76574228531E+02 -0.39840637567E+02  0.31109728942E+02  0.15506302219E+03  0.12500334692E+03 0.  0.
          5    1    3    3  502    0  0.66070115976E+02 -0.26473070925E+02 -0.40011712674E+02  0.81786984664E+02  0.47000000000E+01 0.  1.
         -5    1    3    3    0  502  0.10504112555E+02 -0.13367566642E+02  0.71121441616E+02  0.73276037530E+02  0.47000000000E+01 0.  1.
        -11    1    1    2    0    0 -0.52037572733E+02  0.46303779579E+02  0.13211685215E+03  0.14935465042E+03  0.00000000000E+00 0.  1.
         11    1    1    2    0    0 -0.24536655797E+02 -0.64631420119E+01 -0.71678814471E+01  0.26366611592E+02  0.00000000000E+00 0. -1.
<mgrwt>
<rscale>  0 0.14426300E+03</rscale>
<asrwt>0</asrwt>
<pdfrwt beam="2">  1        1 0.13440430E-01 0.15191026E+03</pdfrwt>
<pdfrwt beam="1">  1       -1 0.37449460E-01 0.15191026E+03</pdfrwt>
<totfact> 0.29061250E+03</totfact>
</mgrwt>
</event>
<event>
 7    1  0.5928109E-006  0.3310779E+03  0.7546771E-02  0.1071909E+00
          2   -1    0    0  501    0  0.00000000000E+00  0.00000000000E+00  0.71306188452E+03  0.71306188452E+03  0.00000000000E+00 0. -1.
         -2   -1    0    0    0  501 -0.00000000000E+00 -0.00000000000E+00 -0.16025741405E+03  0.16025741405E+03  0.00000000000E+00 0.  1.
         23    2    1    2    0    0 -0.22519019289E+03 -0.20767555383E+03  0.39854523568E+03  0.51812246236E+03  0.12558989804E+03 0.  0.
          5    1    3    3  502    0 -0.23871360288E+03 -0.20814714899E+03  0.38164541230E+03  0.49596847739E+03  0.47000000000E+01 0. -1.
         -5    1    3    3    0  502  0.13523409994E+02  0.47159516568E+00  0.16899823384E+02  0.22153984975E+02  0.47000000000E+01 0. -1.
        -11    1    1    2    0    0  0.17490820998E+03  0.11647468015E+03  0.13362779741E+03  0.24902935826E+03  0.00000000000E+00 0. -1.
         11    1    1    2    0    0  0.50281982909E+02  0.91200873678E+02  0.20631437379E+02  0.10616747794E+03  0.00000000000E+00 0.  1.
<mgrwt>
<rscale>  0 0.32826051E+03</rscale>
<asrwt>0</asrwt>
<pdfrwt beam="1">  1        2 0.10970183E+00 0.33107791E+03</pdfrwt>
<pdfrwt beam="2">  1       -2 0.24654987E-01 0.33107791E+03</pdfrwt>
<totfact> 0.59861364E+02</totfact>
</mgrwt>
</event>
<event>
 7    1  0.5928109E-006  0.1381749E+03  0.7546771E-02  0.1227327E+00
         -1   -1    0    0    0  501 -0.00000000000E+00  0.00000000000E+00  0.27711439566E+03  0.27711439566E+03  0.00000000000E+00 0.  1.
          1   -1    0    0  501    0  0.00000000000E+00 -0.00000000000E+00 -0.64475050841E+02  0.64475050841E+02  0.00000000000E+00 0. -1.
         23    2    1    2    0    0 -0.28217012065E+02  0.51667671408E+02  0.51842333333E+02  0.14758025150E+03  0.12500622012E+03 0.  0.
          5    1    3    3  502    0  0.35996747276E+02  0.54460494801E+02  0.94199848011E+00  0.65457533329E+02  0.47000000000E+01 0.  1.
         -5    1    3    3    0  502 -0.64213759341E+02 -0.27928233922E+01  0.50900334853E+02  0.82122718168E+02  0.47000000000E+01 0.  1.
        -11    1    1    2    0    0  0.19949042819E+02 -0.43524787581E+02  0.17160017880E+03  0.17815440720E+03  0.00000000000E+00 0.  1.
         11    1    1    2    0    0  0.82679692463E+01 -0.81428838276E+01 -0.10803167305E+02  0.15854787804E+02  0.00000000000E+00 0. -1.
<mgrwt>
<rscale>  0 0.13008672E+03</rscale>
<asrwt>0</asrwt>
<pdfrwt beam="2">  1        1 0.99192388E-02 0.13817490E+03</pdfrwt>
<pdfrwt beam="1">  1       -1 0.42632983E-01 0.13817490E+03</pdfrwt>
<totfact> 0.34368608E+03</totfact>
</mgrwt>
</event>
<event>
 7    1  0.5928109E-006  0.1305348E+03  0.7546771E-02  0.1247013E+00
          2   -1    0    0  501    0  0.00000000000E+00  0.00000000000E+00  0.44395725150E+03  0.44395725150E+03  0.00000000000E+00 0. -1.
         -2   -1    0    0    0  501 -0.00000000000E+00 -0.00000000000E+00 -0.27403582601E+02  0.27403582601E+02  0.00000000000E+00 0.  1.
         23    2    1    2    0    0  0.19150720437E+02 -0.32400725963E+02  0.29268830376E+03  0.32047741711E+03  0.12499109802E+03 0.  0.
          5    1    3    3  502    0 -0.49312591824E+02  0.82031412545E+01  0.98603625409E+02  0.11065165242E+03  0.47000000000E+01 0. -1.
         -5    1    3    3    0  502  0.68463312260E+02 -0.40603867218E+02  0.19408467835E+03  0.20982576469E+03  0.47000000000E+01 0. -1.
        -11    1    1    2    0    0 -0.35950578303E+02 -0.12340966677E+02  0.61739739403E+02  0.72501992803E+02  0.00000000000E+00 0.  1.
         11    1    1    2    0    0  0.16799857866E+02  0.44741692641E+02  0.62125625740E+02  0.78381424191E+02  0.00000000000E+00 0. -1.
<mgrwt>
<rscale>  0 0.11765718E+03</rscale>
<asrwt>0</asrwt>
<pdfrwt beam="1">  1        2 0.68301110E-01 0.13053479E+03</pdfrwt>
<pdfrwt beam="2">  1       -2 0.42159361E-02 0.13053479E+03</pdfrwt>
<totfact> 0.16949143E+04</totfact>
</mgrwt>
</event>
<event>
 7    1  0.5928109E-006  0.2758438E+03  0.7546771E-02  0.1099901E+00
         -2   -1    0    0    0  501 -0.00000000000E+00  0.00000000000E+00  0.37197452932E+03  0.37197452932E+03  0.00000000000E+00 0.  1.
          2   -1    0    0  501    0  0.00000000000E+00 -0.00000000000E+00 -0.26586917674E+03  0.26586917674E+03  0.00000000000E+00 0. -1.
         23    2    1    2    0    0  0.23119031093E+03  0.83773099768E+02 -0.11092315319E+03  0.29731090020E+03  0.12499173313E+03 0.  0.
          5    1    3    3  502    0  0.85641281429E+02  0.52514168029E+02  0.15738724604E+02  0.10179373449E+03  0.47000000000E+01 0. -1.
         -5    1    3    3    0  502  0.14554902950E+03  0.31258931740E+02 -0.12666187779E+03  0.19551716571E+03  0.47000000000E+01 0. -1.
        -11    1    1    2    0    0 -0.11135945675E+03 -0.75402992541E+02  0.15543350894E+03  0.20553859879E+03  0.00000000000E+00 0.  1.
         11    1    1    2    0    0 -0.11983085418E+03 -0.83701072272E+01  0.61594996828E+02  0.13499420707E+03  0.00000000000E+00 0. -1.
<mgrwt>
<rscale>  0 0.27242334E+03</rscale>
<asrwt>0</asrwt>
<pdfrwt beam="2">  1        2 0.40902950E-01 0.27584384E+03</pdfrwt>
<pdfrwt beam="1">  1       -2 0.57226850E-01 0.27584384E+03</pdfrwt>
<totfact> 0.36567410E+02</totfact>
</mgrwt>
</event>
<event>
 7    1  0.5928109E-006  0.2044692E+03  0.7546771E-02  0.1150406E+00
         -2   -1    0    0    0  501 -0.00000000000E+00  0.00000000000E+00  0.21899501748E+02  0.21899501748E+02  0.00000000000E+00 0.  1.
          2   -1    0    0  501    0  0.00000000000E+00 -0.00000000000E+00 -0.17507904282E+04  0.17507904282E+04  0.00000000000E+00 0. -1.
         23    2    1    2    0    0 -0.15009041357E+03  0.60458879555E+02 -0.10166020870E+04  0.10369606818E+04  0.12500097600E+03 0.  0.
          5    1    3    3  502    0 -0.93772467314E+02  0.95167504170E+02 -0.77381549820E+03  0.78527870513E+03  0.47000000000E+01 0. -1.
         -5    1    3    3    0  502 -0.56317946257E+02 -0.34708624615E+02 -0.24278658878E+03  0.25168197668E+03  0.47000000000E+01 0. -1.
        -11    1    1    2    0    0  0.24370928469E+02 -0.52108057905E+01 -0.26704223022E+02  0.36526841893E+02  0.00000000000E+00 0.  1.
         11    1    1    2    0    0  0.12571948510E+03 -0.55248073764E+02 -0.68558461643E+03  0.69920240623E+03  0.00000000000E+00 0. -1.
<mgrwt>
<rscale>  0 0.19921100E+03</rscale>
<asrwt>0</asrwt>
<pdfrwt beam="2">  1        2 0.26935231E+00 0.20446920E+03</pdfrwt>
<pdfrwt beam="1">  1       -2 0.33691549E-02 0.20446920E+03</pdfrwt>
<totfact> 0.35707056E+03</totfact>
</mgrwt>
</event>
<event>
 7    1  0.5928109E-006  0.1240602E+03  0.7546771E-02  0.1246836E+00
          1   -1    0    0  501    0  0.00000000000E+00  0.00000000000E+00  0.89051710257E+03  0.89051710257E+03  0.00000000000E+00 0. -1.
         -1   -1    0    0    0  501 -0.00000000000E+00 -0.00000000000E+00 -0.20123185026E+02  0.20123185026E+02  0.00000000000E+00 0.  1.
         23    2    1    2    0    0 -0.38868490925E+02  0.25472687958E+02  0.71345861466E+03  0.72416443176E+03  0.11502744008E+03 0.  0.
          5    1    3    3  502    0  0.87897925817E+01  0.98076480338E+01  0.59832139511E+03  0.59848478031E+03  0.47000000000E+01 0. -1.
         -5    1    3    3    0  502 -0.47658283507E+02  0.15665039924E+02  0.11513721955E+03  0.12567965145E+03  0.47000000000E+01 0.  1.
        -11    1    1    2    0    0  0.59998963347E+02 -0.83554619406E+01  0.14428061282E+03  0.15648189858E+03  0.00000000000E+00 0. -1.
         11    1    1    2    0    0 -0.21130472422E+02 -0.17117226017E+02  0.12654690056E+02  0.29993957253E+02  0.00000000000E+00 0.  1.
<mgrwt>
<rscale>  0 0.11776153E+03</rscale>
<asrwt>0</asrwt>
<pdfrwt beam="1">  1        1 0.13700260E+00 0.12406018E+03</pdfrwt>
<pdfrwt beam="2">  1       -1 0.30958753E-02 0.12406018E+03</pdfrwt>
<totfact> 0.67465717E+03</totfact>
</mgrwt>
</event>
<event>
 7    1  0.5928109E-006  0.1451523E+03  0.7546771E-02  0.1217045E+00
         -2   -1    0    0    0  501 -0.00000000000E+00  0.00000000000E+00  0.25829398131E+02  0.25829398131E+02  0.00000000000E+00 0. -1.
          2   -1    0    0  501    0  0.00000000000E+00 -0.00000000000E+00 -0.67298750477E+03  0.67298750477E+03  0.00000000000E+00 0.  1.
         23    2    1    2    0    0 -0.19165420914E+02  0.71247136390E+02 -0.40585441115E+03  0.43103015877E+03  0.12500290762E+03 0.  0.
          5    1    3    3  502    0  0.38977651156E+02  0.22374539448E+02 -0.28249321730E+03  0.28608457687E+03  0.47000000000E+01 0. -1.
         -5    1    3    3    0  502 -0.58143072071E+02  0.48872596942E+02 -0.12336119385E+03  0.14494558189E+03  0.47000000000E+01 0. -1.
        -11    1    1    2    0    0  0.45266531277E+02 -0.52703183621E+02 -0.21623725035E+03  0.22712382714E+03  0.00000000000E+00 0.  1.
         11    1    1    2    0    0 -0.26101110363E+02 -0.18543952769E+02 -0.25066445144E+02  0.40662916996E+02  0.00000000000E+00 0. -1.
<mgrwt>
<rscale>  0 0.13727402E+03</rscale>
<asrwt>0</asrwt>
<pdfrwt beam="2">  1        2 0.10353654E+00 0.14515232E+03</pdfrwt>
<pdfrwt beam="1">  1       -2 0.39737536E-02 0.14515232E+03</pdfrwt>
<totfact> 0.11709885E+04</totfact>
</mgrwt>
</event>
<event>
 6    1  0.5928109E-006  0.2318934E+03  0.7546771E-02  0.1135439E+00
          2   -1    0    0  501    0  0.00000000000E+00  0.00000000000E+00  0.10512388113E+03  0.10512388113E+03  0.00000000000E+00 0. -1.
         -2   -1    0    0    0  501 -0.00000000000E+00 -0.00000000000E+00 -0.40538013437E+03  0.40538013437E+03  0.00000000000E+00 0.  1.
          5    1    1    2  502    0  0.17206108664E+02  0.70155929580E+02 -0.65607903917E+02  0.97695402588E+02  0.47000000000E+01 0. -1.
         -5    1    1    2    0  502  0.14171955396E+03 -0.70085123600E+02 -0.97345810842E+02  0.18572736312E+03  0.47000000000E+01 0.  1.
        -11    1    1    2    0    0  0.60716376816E+01  0.13757326647E+02 -0.82428290425E+01  0.17148558285E+02  0.00000000000E+00 0.  1.
         11    1    1    2    0    0 -0.16499730030E+03 -0.13828132627E+02 -0.12905970944E+03  0.20993269150E+03  0.00000000000E+00 0. -1.
<mgrwt>
<rscale>  0 0.21792540E+03</rscale>
<asrwt>0</asrwt>
<pdfrwt beam="1">  1        2 0.16172905E-01 0.23189340E+03</pdfrwt>
<pdfrwt beam="2">  1       -2 0.62366175E-01 0.23189340E+03</pdfrwt>
<totfact> 0.86612619E+02</totfact>
</mgrwt>
</event>
<event>
 7    1  0.5928109E-006  0.1308023E+03  0.7546771E-02  0.1239293E+00
          1   -1    0    0  501    0  0.00000000000E+00  0.00000000000E+00  0.16295686824E+03  0.16295686824E+03  0.00000000000E+00 0. -1.
         -1   -1    0    0    0  501 -0.00000000000E+00 -0.00000000000E+00 -0.81787267511E+02  0.81787267511E+02  0.00000000000E+00 0.  1.
         23    2    1    2    0    0  0.26868658286E+02  0.27617096357E+02  0.45168820982E+02  0.13838163122E+03  0.12499849863E+03 0.  0.
          5    1    3    3  502    0  0.53072531383E+01  0.63466779322E+02 -0.14375033267E+02  0.65459381259E+02  0.47000000000E+01 0.  1.
         -5    1    3    3    0  502  0.21561405148E+02 -0.35849682965E+02  0.59543854249E+02  0.72922249961E+02  0.47000000000E+01 0.  1.
        -11    1    1    2    0    0 -0.52924005957E+02 -0.91345932437E+01  0.48203398955E+02  0.72166189251E+02  0.00000000000E+00 0. -1.
         11    1    1    2    0    0  0.26055347671E+02 -0.18482503113E+02 -0.12202619203E+02  0.34196315284E+02  0.00000000000E+00 0.  1.
<mgrwt>
<rscale>  0 0.12233577E+03</rscale>
<asrwt>0</asrwt>
<pdfrwt beam="1">  1        1 0.25070287E-01 0.13080235E+03</pdfrwt>
<pdfrwt beam="2">  1       -1 0.12582657E-01 0.13080235E+03</pdfrwt>
<totfact> 0.76509762E+03</totfact>
</mgrwt>
</event>
<event>
 7    1  0.5928109E-006  0.1354574E+03  0.7546771E-02  0.1231354E+00
         -4   -1    0    0    0  501 -0.00000000000E+00  0.00000000000E+00  0.36983862944E+02  0.36983862944E+02  0.00000000000E+00 0.  1.
          4   -1    0    0  501    0  0.00000000000E+00 -0.00000000000E+00 -0.43797202562E+03  0.43797202562E+03  0.00000000000E+00 0. -1.
         23    2    1    2    0    0  0.36230484227E+02  0.37553258050E+02 -0.29710648879E+03  0.32652866837E+03  0.12500324158E+03 0.  0.
          5    1    3    3  502    0 -0.35691075463E+02  0.33785855260E+02 -0.19715960280E+03  0.20324698242E+03  0.47000000000E+01 0.  1.
         -5    1    3    3    0  502  0.71921559690E+02  0.37674027895E+01 -0.99946885988E+02  0.12328168595E+03  0.47000000000E+01 0.  1.
        -11    1    1    2    0    0 -0.35058735841E+02  0.48787648888E+01  0.86417854113E+00  0.35407119484E+02  0.00000000000E+00 0.  1.
         11    1    1    2    0    0 -0.11717483859E+01 -0.42432022938E+02 -0.10474585243E+03  0.11302010071E+03  0.00000000000E+00 0. -1.
<mgrwt>
<rscale>  0 0.12740725E+03</rscale>
<asrwt>0</asrwt>
<pdfrwt beam="2">  1        4 0.67380306E-01 0.13545739E+03</pdfrwt>
<pdfrwt beam="1">  1       -4 0.56898255E-02 0.13545739E+03</pdfrwt>
<totfact> 0.66427970E+02</totfact>
</mgrwt>
</event>
<event>
 7    1  0.5928109E-006  0.1432031E+03  0.7546771E-02  0.1218291E+00
         -1   -1    0    0    0  501 -0.00000000000E+00  0.00000000000E+00  0.66799872212E+02  0.66799872212E+02  0.00000000000E+00 0.  1.
          1   -1    0    0  501    0  0.00000000000E+00 -0.00000000000E+00 -0.25510560346E+03  0.25510560346E+03  0.00000000000E+00 0. -1.
         23    2    1    2    0    0 -0.54205717630E+01 -0.69664002468E+02 -0.10765442081E+03  0.17915521373E+03  0.12499864179E+03 0.  0.
          5    1    3    3  502    0 -0.36192604234E+02 -0.64949618107E+02 -0.83362212671E+01  0.74966259601E+02  0.47000000000E+01 0. -1.
         -5    1    3    3    0  502  0.30772032471E+02 -0.47143843608E+01 -0.99318199544E+02  0.10418895413E+03  0.47000000000E+01 0. -1.
        -11    1    1    2    0    0  0.14949306449E+02  0.91748012239E+02 -0.57137841769E+02  0.10911421757E+03  0.00000000000E+00 0. -1.
         11    1    1    2    0    0 -0.95287346862E+01 -0.22084009771E+02 -0.23513468664E+02  0.33636044371E+02  0.00000000000E+00 0.  1.
<mgrwt>
<rscale>  0 0.13637524E+03</rscale>
<asrwt>0</asrwt>
<pdfrwt beam="2">  1        1 0.39247016E-01 0.14320306E+03</pdfrwt>
<pdfrwt beam="1">  1       -1 0.10276903E-01 0.14320306E+03</pdfrwt>
<totfact> 0.60189329E+03</totfact>
</mgrwt>
</event>
<event>
 7    1  0.5928109E-006  0.2144495E+03  0.7546771E-02  0.1141217E+00
          1   -1    0    0  501    0  0.00000000000E+00  0.00000000000E+00  0.13481022805E+03  0.13481022805E+03  0.00000000000E+00 0. -1.
         -1   -1    0    0    0  501 -0.00000000000E+00 -0.00000000000E+00 -0.33346853970E+03  0.33346853970E+03  0.00000000000E+00 0.  1.
         23    2    1    2    0    0 -0.24812543702E+02  0.17248063897E+03 -0.50558750128E+02  0.22032882265E+03  0.12499347875E+03 0.  0.
          5    1    3    3  502    0 -0.22126498391E+02  0.18625641642E+03 -0.22977054760E+02  0.18902663737E+03  0.47000000000E+01 0. -1.
         -5    1    3    3    0  502 -0.26860453109E+01 -0.13775777451E+02 -0.27581695368E+02  0.31302185278E+02  0.47000000000E+01 0. -1.
        -11    1    1    2    0    0  0.53401427620E+01 -0.33216866943E+02 -0.89491755072E+02  0.95606754992E+02  0.00000000000E+00 0.  1.
         11    1    1    2    0    0  0.19472400940E+02 -0.13926377203E+03 -0.58607806449E+02  0.15234319012E+03  0.00000000000E+00 0. -1.
<mgrwt>
<rscale>  0 0.21044142E+03</rscale>
<asrwt>0</asrwt>
<pdfrwt beam="1">  1        1 0.20740035E-01 0.21444953E+03</pdfrwt>
<pdfrwt beam="2">  1       -1 0.51302852E-01 0.21444953E+03</pdfrwt>
<totfact> 0.95150933E+02</totfact>
</mgrwt>
</event>
<event>
 7    1  0.5928109E-006  0.1285153E+03  0.7546771E-02  0.1244182E+00
          1   -1    0    0  501    0  0.00000000000E+00  0.00000000000E+00  0.66971110085E+03  0.66971110085E+03  0.00000000000E+00 0. -1.
         -1   -1    0    0    0  501 -0.00000000000E+00 -0.00000000000E+00 -0.19556134822E+02  0.19556134822E+02  0.00000000000E+00 0.  1.
         23    2    1    2    0    0  0.20165271899E+02 -0.22011927587E+02  0.44030644161E+03  0.45867846519E+03  0.12500003502E+03 0.  0.
          5    1    3    3  502    0  0.28019303898E+02 -0.24374257340E+02  0.29231375920E+02  0.47494727602E+02  0.47000000000E+01 0.  1.
         -5    1    3    3    0  502 -0.78540319989E+01  0.23623297529E+01  0.41107506569E+03  0.41118373759E+03  0.47000000000E+01 0.  1.
        -11    1    1    2    0    0  0.35597043657E+02  0.82300924873E+01  0.61861720939E+02  0.71845364896E+02  0.00000000000E+00 0.  1.
         11    1    1    2    0    0 -0.55762315556E+02  0.13781835100E+02  0.14798680348E+03  0.15874340559E+03  0.00000000000E+00 0. -1.
<mgrwt>
<rscale>  0 0.11934474E+03</rscale>
<asrwt>0</asrwt>
<pdfrwt beam="1">  1        1 0.10303246E+00 0.12851526E+03</pdfrwt>
<pdfrwt beam="2">  1       -1 0.30086366E-02 0.12851526E+03</pdfrwt>
<totfact> 0.10757154E+04</totfact>
</mgrwt>
</event>
<event>
 7    1  0.5928109E-006  0.1748767E+03  0.7546771E-02  0.1178689E+00
          1   -1    0    0  501    0  0.00000000000E+00  0.00000000000E+00  0.76210972468E+03  0.76210972468E+03  0.00000000000E+00 0. -1.
         -1   -1    0    0    0  501 -0.00000000000E+00 -0.00000000000E+00 -0.45219422306E+02  0.45219422306E+02  0.00000000000E+00 0.  1.
         23    2    1    2    0    0  0.11278604579E+03  0.47270651763E+02  0.56549298303E+03  0.59191568294E+03  0.12500662065E+03 0.  0.
          5    1    3    3  502    0 -0.33781937036E+01  0.35706513385E+02  0.29580238649E+03  0.29800588777E+03  0.47000000000E+01 0. -1.
         -5    1    3    3    0  502  0.11616423950E+03  0.11564138378E+02  0.26969059654E+03  0.29390979517E+03  0.47000000000E+01 0. -1.
        -11    1    1    2    0    0 -0.42606147769E+02 -0.39594176763E+02  0.12335264442E+02  0.59457055175E+02  0.00000000000E+00 0.  1.
         11    1    1    2    0    0 -0.70179898026E+02 -0.76764749999E+01  0.13906205490E+03  0.15595640887E+03  0.00000000000E+00 0. -1.
<mgrwt>
<rscale>  0 0.16919613E+03</rscale>
<asrwt>0</asrwt>
<pdfrwt beam="1">  1        1 0.11724764E+00 0.17487670E+03</pdfrwt>
<pdfrwt beam="2">  1       -1 0.69568347E-02 0.17487670E+03</pdfrwt>
<totfact> 0.26190685E+03</totfact>
</mgrwt>
</event>
<event>
 7    1  0.5928109E-006  0.2470493E+03  0.7546771E-02  0.1117471E+00
         -2   -1    0    0    0  501 -0.00000000000E+00  0.00000000000E+00  0.35757733617E+02  0.35757733617E+02  0.00000000000E+00 0.  1.
          2   -1    0    0  501    0  0.00000000000E+00 -0.00000000000E+00 -0.17133378846E+04  0.17133378846E+04  0.00000000000E+00 0. -1.
         23    2    1    2    0    0  0.20950549830E+03 -0.38936678817E+02 -0.10734100919E+04  0.11014729251E+04  0.12499904251E+03 0.  0.
          5    1    3    3  502    0  0.80077784337E+01 -0.10368384339E+02 -0.34142736056E+03  0.34171093112E+03  0.47000000000E+01 0.  1.
         -5    1    3    3    0  502  0.20149771986E+03 -0.28568294477E+02 -0.73198273132E+03  0.75976199399E+03  0.47000000000E+01 0.  1.
        -11    1    1    2    0    0 -0.10851263286E+03  0.22277349013E+02 -0.18065446794E+03  0.21191344591E+03  0.00000000000E+00 0.  1.
         11    1    1    2    0    0 -0.10099286544E+03  0.16659329804E+02 -0.42351559121E+03  0.43570924724E+03  0.00000000000E+00 0. -1.
<mgrwt>
<rscale>  0 0.24351816E+03</rscale>
<asrwt>0</asrwt>
<pdfrwt beam="2">  1        2 0.26359043E+00 0.24704935E+03</pdfrwt>
<pdfrwt beam="1">  1       -2 0.55011901E-02 0.24704935E+03</pdfrwt>
<totfact> 0.17803926E+03</totfact>
</mgrwt>
</event>
<event>
 7    1  0.5928109E-006  0.1557448E+03  0.7546771E-02  0.1201527E+00
         -3   -1    0    0    0  501 -0.00000000000E+00  0.00000000000E+00  0.14877986770E+03  0.14877986770E+03  0.00000000000E+00 0.  1.
          3   -1    0    0  501    0  0.00000000000E+00 -0.00000000000E+00 -0.22495545723E+03  0.22495545723E+03  0.00000000000E+00 0. -1.
         23    2    1    2    0    0  0.18946620674E+02  0.90952032127E+02 -0.15592954380E+03  0.22038706272E+03  0.12500075280E+03 0.  0.
          5    1    3    3  502    0 -0.39461468437E+02 -0.79219962218E+01 -0.46680463777E+02  0.61815218302E+02  0.47000000000E+01 0. -1.
         -5    1    3    3    0  502  0.58408089111E+02  0.98874028348E+02 -0.10924908002E+03  0.15857184442E+03  0.47000000000E+01 0. -1.
        -11    1    1    2    0    0  0.97304279195E+01  0.31884210562E+01  0.49271311565E+02  0.50324043951E+02  0.00000000000E+00 0.  1.
         11    1    1    2    0    0 -0.28677048594E+02 -0.94140453183E+02  0.30482642704E+02  0.10302421826E+03  0.00000000000E+00 0. -1.
<mgrwt>
<rscale>  0 0.14914508E+03</rscale>
<asrwt>0</asrwt>
<pdfrwt beam="2">  1        3 0.34608532E-01 0.15574477E+03</pdfrwt>
<pdfrwt beam="1">  1       -3 0.22889211E-01 0.15574477E+03</pdfrwt>
<totfact> 0.34265399E+02</totfact>
</mgrwt>
</event>
<event>
 7    1  0.5928109E-006  0.1389896E+03  0.7546771E-02  0.1226167E+00
          3   -1    0    0  501    0  0.00000000000E+00  0.00000000000E+00  0.56088632848E+02  0.56088632848E+02  0.00000000000E+00 0. -1.
         -3   -1    0    0    0  501 -0.00000000000E+00 -0.00000000000E+00 -0.32156307829E+03  0.32156307829E+03  0.00000000000E+00 0.  1.
         23    2    1    2    0    0 -0.43587107672E+02 -0.40818947193E+02 -0.74660830891E+02  0.15777305455E+03  0.12550726938E+03 0.  0.
          5    1    3    3  502    0 -0.40601032256E+02  0.27123925012E+02  0.89816151821E+01  0.49868933612E+02  0.47000000000E+01 0. -1.
         -5    1    3    3    0  502 -0.29860754163E+01 -0.67942872205E+02 -0.83642446073E+02  0.10790412094E+03  0.47000000000E+01 0.  1.
        -11    1    1    2    0    0  0.39966895758E+02  0.48966682758E+01 -0.17650962720E+03  0.18104413443E+03  0.00000000000E+00 0.  1.
         11    1    1    2    0    0  0.36202119147E+01  0.35922278917E+02 -0.14303987343E+02  0.38834522153E+02  0.00000000000E+00 0. -1.
<mgrwt>
<rscale>  0 0.13087225E+03</rscale>
<asrwt>0</asrwt>
<pdfrwt beam="1">  1        3 0.86290205E-02 0.13898956E+03</pdfrwt>
<pdfrwt beam="2">  1       -3 0.49471242E-01 0.13898956E+03</pdfrwt>
<totfact> 0.89080873E+02</totfact>
</mgrwt>
</event>
<event>
 7    1  0.5928109E-006  0.1322296E+03  0.7546771E-02  0.1238436E+00
         -2   -1    0    0    0  501 -0.00000000000E+00  0.00000000000E+00  0.26025465480E+02  0.26025465480E+02  0.00000000000E+00 0.  1.
          2   -1    0    0  501    0  0.00000000000E+00 -0.00000000000E+00 -0.51639493773E+03  0.51639493773E+03  0.00000000000E+00 0. -1.
         23    2    1    2    0    0 -0.20838549998E+02 -0.37767649753E+02 -0.30605976421E+03  0.33340251142E+03  0.12499605920E+03 0.  0.
          5    1    3    3  502    0 -0.32482194692E+02 -0.77137133889E+02 -0.14863942890E+03  0.17064876272E+03  0.47000000000E+01 0.  1.
         -5    1    3    3    0  502  0.11643644694E+02  0.39369484136E+02 -0.15742033531E+03  0.16275374869E+03  0.47000000000E+01 0.  1.
        -11    1    1    2    0    0 -0.10668528219E+02  0.59107891875E+02 -0.12251575556E+03  0.13644658566E+03  0.00000000000E+00 0.  1.
         11    1    1    2    0    0  0.31507078217E+02 -0.21340242122E+02 -0.61793952475E+02  0.72571306135E+02  0.00000000000E+00 0. -1.
<mgrwt>
<rscale>  0 0.12286999E+03</rscale>
<asrwt>0</asrwt>
<pdfrwt beam="2">  1        2 0.79445373E-01 0.13222956E+03</pdfrwt>
<pdfrwt beam="1">  1       -2 0.40039179E-02 0.13222956E+03</pdfrwt>
<totfact> 0.15537701E+04</totfact>
</mgrwt>
</event>
<event>
 7    1  0.5928109E-006  0.1387651E+03  0.7546771E-02  0.1221498E+00
         -2   -1    0    0    0  501 -0.00000000000E+00  0.00000000000E+00  0.22594675261E+02  0.22594675261E+02  0.00000000000E+00 0.  1.
          2   -1    0    0  501    0  0.00000000000E+00 -0.00000000000E+00 -0.86758949484E+03  0.86758949484E+03  0.00000000000E+00 0. -1.
         23    2    1    2    0    0  0.78665819801E+02 -0.83645633339E+01 -0.61313107840E+03  0.62863778246E+03  0.11400642573E+03 0.  0.
          5    1    3    3  502    0  0.13823140748E+02  0.13598652056E+01 -0.47939399407E+03  0.47961820233E+03  0.47000000000E+01 0. -1.
         -5    1    3    3    0  502  0.64842679053E+02 -0.97244285394E+01 -0.13373708433E+03  0.14901958013E+03  0.47000000000E+01 0.  1.
        -11    1    1    2    0    0 -0.96948081437E+02  0.15213320053E+02 -0.16587344699E+03  0.19272876282E+03  0.00000000000E+00 0.  1.
         11    1    1    2    0    0  0.18282261636E+02 -0.68487567194E+01 -0.65990294185E+02  0.68817624819E+02  0.00000000000E+00 0. -1.
<mgrwt>
<rscale>  0 0.13409850E+03</rscale>
<asrwt>0</asrwt>
<pdfrwt beam="2">  1        2 0.13347527E+00 0.13876506E+03</pdfrwt>
<pdfrwt beam="1">  1       -2 0.34761047E-02 0.13876506E+03</pdfrwt>
<totfact> 0.10426896E+04</totfact>
</mgrwt>
</event>
<event>
 7    1  0.5928109E-006  0.1347400E+03  0.7546771E-02  0.1233093E+00
          3   -1    0    0  501    0  0.00000000000E+00  0.00000000000E+00  0.25568249519E+03  0.25568249519E+03  0.00000000000E+00 0. -1.
         -3   -1    0    0    0  501 -0.00000000000E+00 -0.00000000000E+00 -0.55794527229E+02  0.55794527229E+02  0.00000000000E+00 0.  1.
         23    2    1    2    0    0 -0.40708968548E+02 -0.29544655970E+02  0.11921951621E+03  0.17991152034E+03  0.12499902115E+03 0.  0.
          5    1    3    3  502    0 -0.55855140811E+02 -0.67968414294E+02  0.56475557132E+02  0.10464741110E+03  0.47000000000E+01 0.  1.
         -5    1    3    3    0  502  0.15146172263E+02  0.38423758325E+02  0.62743959079E+02  0.75264109235E+02  0.47000000000E+01 0.  1.
        -11    1    1    2    0    0  0.40584458740E+02  0.57552648156E+02  0.36642715863E+02  0.79385730625E+02  0.00000000000E+00 0.  1.
         11    1    1    2    0    0  0.12450980774E+00 -0.28007992186E+02  0.44025735884E+02  0.52179771455E+02  0.00000000000E+00 0. -1.
<mgrwt>
<rscale>  0 0.12627309E+03</rscale>
<asrwt>0</asrwt>
<pdfrwt beam="1">  1        3 0.39335768E-01 0.13473998E+03</pdfrwt>
<pdfrwt beam="2">  1       -3 0.85837736E-02 0.13473998E+03</pdfrwt>
<totfact> 0.14006513E+03</totfact>
</mgrwt>
</event>
<event>
 7    1  0.5928109E-006  0.1475419E+03  0.7546771E-02  0.1212931E+00
         -2   -1    0    0    0  501 -0.00000000000E+00  0.00000000000E+00  0.45922746900E+02  0.45922746900E+02  0.00000000000E+00 0. -1.
          2   -1    0    0  501    0  0.00000000000E+00 -0.00000000000E+00 -0.39149865818E+03  0.39149865818E+03  0.00000000000E+00 0.  1.
         23    2    1    2    0    0 -0.46215973742E+02  0.63315765349E+02 -0.19097845691E+03  0.24133249441E+03  0.12499519786E+03 0.  0.
          5    1    3    3  502    0  0.34939279388E+02  0.36087552051E+02 -0.11950240298E+03  0.12971499133E+03  0.47000000000E+01 0.  1.
         -5    1    3    3    0  502 -0.81155253131E+02  0.27228213298E+02 -0.71476053925E+02  0.11161750308E+03  0.47000000000E+01 0.  1.
        -11    1    1    2    0    0  0.49042398575E+02 -0.29325074078E+02 -0.25519965675E+02  0.62581031277E+02  0.00000000000E+00 0. -1.
         11    1    1    2    0    0 -0.28264248323E+01 -0.33990691271E+02 -0.12907748870E+03  0.13350787939E+03  0.00000000000E+00 0.  1.
<mgrwt>
<rscale>  0 0.14029628E+03</rscale>
<asrwt>0</asrwt>
<pdfrwt beam="2">  1        2 0.60230562E-01 0.14754186E+03</pdfrwt>
<pdfrwt beam="1">  1       -2 0.70650381E-02 0.14754186E+03</pdfrwt>
<totfact> 0.89797325E+03</totfact>
</mgrwt>
</event>
<event>
 7    1  0.5928109E-006  0.2482493E+03  0.7546771E-02  0.1116912E+00
         -1   -1    0    0    0  501 -0.00000000000E+00  0.00000000000E+00  0.11683911166E+04  0.11683911166E+04  0.00000000000E+00 0.  1.
          1   -1    0    0  501    0  0.00000000000E+00 -0.00000000000E+00 -0.55836948146E+02  0.55836948146E+02  0.00000000000E+00 0. -1.
         23    2    1    2    0    0 -0.47792361484E+01 -0.21443137553E+03  0.36696977200E+03  0.44305140459E+03  0.12499631051E+03 0.  0.
          5    1    3    3  502    0 -0.61787572355E+02 -0.76038804176E+02  0.13290629568E+03  0.16518407087E+03  0.47000000000E+01 0. -1.
         -5    1    3    3    0  502  0.57008336207E+02 -0.13839257135E+03  0.23406347631E+03  0.27786733372E+03  0.47000000000E+01 0. -1.
        -11    1    1    2    0    0 -0.41189363922E+02  0.71770025505E+02  0.28956943127E+03  0.30116101306E+03  0.00000000000E+00 0.  1.
         11    1    1    2    0    0  0.45968600071E+02  0.14266135002E+03  0.45601496519E+03  0.48001564710E+03  0.00000000000E+00 0. -1.
<mgrwt>
<rscale>  0 0.24437508E+03</rscale>
<asrwt>0</asrwt>
<pdfrwt beam="2">  1        1 0.85903006E-02 0.24824934E+03</pdfrwt>
<pdfrwt beam="1">  1       -1 0.17975246E+00 0.24824934E+03</pdfrwt>
<totfact> 0.18167780E+02</totfact>
</mgrwt>
</event>
<event>
 7    1  0.5928109E-006  0.1687648E+03  0.7546771E-02  0.1185955E+00
          2   -1    0    0  501    0  0.00000000000E+00  0.00000000000E+00  0.13905501163E+04  0.13905501163E+04  0.00000000000E+00 0.  1.
         -2   -1    0    0    0  501 -0.00000000000E+00 -0.00000000000E+00 -0.27489541640E+02  0.27489541640E+02  0.00000000000E+00 0. -1.
         23    2    1    2    0    0 -0.73440514709E+02 -0.86386809341E+02  0.11374803921E+04  0.11499318267E+04  0.12500149423E+03 0.  0.
          5    1    3    3  502    0 -0.10656928861E+03 -0.58614789541E+02  0.72266118347E+03  0.73283967069E+03  0.47000000000E+01 0.  1.
         -5    1    3    3    0  502  0.33128773904E+02 -0.27772019801E+02  0.41481920866E+03  0.41709215602E+03  0.47000000000E+01 0.  1.
        -11    1    1    2    0    0  0.84234588809E+02  0.66701905746E+02  0.12399376861E+03  0.16407030456E+03  0.00000000000E+00 0. -1.
         11    1    1    2    0    0 -0.10794074101E+02  0.19684903595E+02  0.10158641396E+03  0.10403752672E+03  0.00000000000E+00 0.  1.
<mgrwt>
<rscale>  0 0.16245270E+03</rscale>
<asrwt>0</asrwt>
<pdfrwt beam="1">  1        2 0.21393073E+00 0.16876482E+03</pdfrwt>
<pdfrwt beam="2">  1       -2 0.42291613E-02 0.16876482E+03</pdfrwt>
<totfact> 0.39221182E+03</totfact>
</mgrwt>
</event>
<event>
 7    1  0.5928109E-006  0.2160235E+03  0.7546771E-02  0.1140518E+00
          2   -1    0    0  501    0  0.00000000000E+00  0.00000000000E+00  0.67428657501E+03  0.67428657501E+03  0.00000000000E+00 0. -1.
         -2   -1    0    0    0  501 -0.00000000000E+00 -0.00000000000E+00 -0.83693453414E+02  0.83693453414E+02  0.00000000000E+00 0.  1.
         23    2    1    2    0    0 -0.15952273276E+03 -0.74793267612E+02  0.49112833390E+03  0.53653816572E+03  0.12499851108E+03 0.  0.
          5    1    3    3  502    0 -0.10874499079E+03 -0.94657784319E+02  0.24423358814E+03  0.28365067377E+03  0.47000000000E+01 0.  1.
         -5    1    3    3    0  502 -0.50777741970E+02  0.19864516707E+02  0.24689474575E+03  0.25288749195E+03  0.47000000000E+01 0.  1.
        -11    1    1    2    0    0  0.93027980947E+02  0.51767647491E+02  0.90145643333E+01  0.10684267376E+03  0.00000000000E+00 0.  1.
         11    1    1    2    0    0  0.66494751809E+02  0.23025620121E+02  0.90450223366E+02  0.11459918895E+03  0.00000000000E+00 0. -1.
<mgrwt>
<rscale>  0 0.21132842E+03</rscale>
<asrwt>0</asrwt>
<pdfrwt beam="1">  1        2 0.10373639E+00 0.21602352E+03</pdfrwt>
<pdfrwt beam="2">  1       -2 0.12875916E-01 0.21602352E+03</pdfrwt>
<totfact> 0.19257860E+03</totfact>
</mgrwt>
</event>
<event>
 7    1  0.5928109E-006  0.1487693E+03  0.7546771E-02  0.1211116E+00
          2   -1    0    0  501    0  0.00000000000E+00  0.00000000000E+00  0.23667530850E+03  0.23667530850E+03  0.00000000000E+00 0. -1.
         -2   -1    0    0    0  501 -0.00000000000E+00 -0.00000000000E+00 -0.78022702366E+02  0.78022702366E+02  0.00000000000E+00 0.  1.
         23    2    1    2    0    0  0.22943104175E+02  0.77336525288E+02  0.75696417583E+02  0.16691993839E+03  0.12499997610E+03 0.  0.
          5    1    3    3  502    0 -0.33262051747E+02  0.13436316483E+02 -0.17870974316E+02  0.40352947972E+02  0.47000000000E+01 0.  1.
         -5    1    3    3    0  502  0.56205155922E+02  0.63900208805E+02  0.93567391899E+02  0.12656699042E+03  0.47000000000E+01 0.  1.
        -11    1    1    2    0    0  0.34865342460E+02 -0.20770169062E+02  0.36038609739E+02  0.54274979683E+02  0.00000000000E+00 0.  1.
         11    1    1    2    0    0 -0.57808446635E+02 -0.56566356226E+02  0.46917578808E+02  0.93503092784E+02  0.00000000000E+00 0. -1.
<mgrwt>
<rscale>  0 0.14165741E+03</rscale>
<asrwt>0</asrwt>
<pdfrwt beam="1">  1        2 0.36411586E-01 0.14876935E+03</pdfrwt>
<pdfrwt beam="2">  1       -2 0.12003493E-01 0.14876935E+03</pdfrwt>
<totfact> 0.67001459E+03</totfact>
</mgrwt>
</event>
<event>
 7    1  0.5928109E-006  0.1364887E+03  0.7546771E-02  0.1229730E+00
          1   -1    0    0  501    0  0.00000000000E+00  0.00000000000E+00  0.32233249274E+02  0.32233249274E+02  0.00000000000E+00 0. -1.
         -1   -1    0    0    0  501 -0.00000000000E+00 -0.00000000000E+00 -0.46091868329E+03  0.46091868329E+03  0.00000000000E+00 0.  1.
         23    2    1    2    0    0 -0.53906815786E+02  0.99330293933E+01 -0.23223420270E+03  0.26937314881E+03  0.12499823412E+03 0.  0.
          5    1    3    3  502    0  0.17717657562E+02  0.45461028813E+02 -0.13365710184E+03  0.14236197316E+03  0.47000000000E+01 0.  1.
         -5    1    3    3    0  502 -0.71624473348E+02 -0.35527999420E+02 -0.98577100861E+02  0.12701117565E+03  0.47000000000E+01 0.  1.
        -11    1    1    2    0    0 -0.60561554237E+01 -0.11099023943E+02  0.49947400186E+01  0.13594586381E+02  0.00000000000E+00 0. -1.
         11    1    1    2    0    0  0.59962971210E+02  0.11659945500E+01 -0.20144597133E+03  0.21018419737E+03  0.00000000000E+00 0.  1.
<mgrwt>
<rscale>  0 0.12847941E+03</rscale>
<asrwt>0</asrwt>
<pdfrwt beam="1">  1        1 0.49589619E-02 0.13648871E+03</pdfrwt>
<pdfrwt beam="2">  1       -1 0.70910560E-01 0.13648871E+03</pdfrwt>
<totfact> 0.33834430E+03</totfact>
</mgrwt>
</event>
<event>
 7    1  0.5928109E-006  0.1354001E+03  0.7546771E-02  0.1233976E+00
          2   -1    0    0  501    0  0.00000000000E+00  0.00000000000E+00  0.18419127031E+04  0.18419127031E+04  0.00000000000E+00 0. -1.
         -2   -1    0    0    0  501 -0.00000000000E+00 -0.00000000000E+00 -0.10449562080E+02  0.10449562080E+02  0.00000000000E+00 0.  1.
         23    2    1    2    0    0 -0.24031432386E+02  0.46103452319E+02  0.14967994653E+04  0.15029111148E+04  0.12502056482E+03 0.  0.
          5    1    3    3  502    0 -0.12987973550E+02 -0.34371554826E+02  0.18977292530E+03  0.19335445279E+03  0.47000000000E+01 0. -1.
         -5    1    3    3    0  502 -0.11043458836E+02  0.80475007145E+02  0.13070265400E+04  0.13095566620E+04  0.47000000000E+01 0. -1.
        -11    1    1    2    0    0 -0.19065911080E+02 -0.40182496177E+02  0.84073768769E+02  0.95113303798E+02  0.00000000000E+00 0. -1.
         11    1    1    2    0    0  0.43097343466E+02 -0.59209561419E+01  0.25058990698E+03  0.25433784660E+03  0.00000000000E+00 0.  1.
<mgrwt>
<rscale>  0 0.12570196E+03</rscale>
<asrwt>0</asrwt>
<pdfrwt beam="1">  1        2 0.28337093E+00 0.13540007E+03</pdfrwt>
<pdfrwt beam="2">  1       -2 0.16076264E-02 0.13540007E+03</pdfrwt>
<totfact> 0.94094416E+03</totfact>
</mgrwt>
</event>
<event>
 7    1  0.5928109E-006  0.1293103E+03  0.7546771E-02  0.1242889E+00
         -1   -1    0    0    0  501 -0.00000000000E+00  0.00000000000E+00  0.12827994793E+03  0.12827994793E+03  0.00000000000E+00 0.  1.
          1   -1    0    0  501    0  0.00000000000E+00 -0.00000000000E+00 -0.14350567904E+03  0.14350567904E+03  0.00000000000E+00 0. -1.
         23    2    1    2    0    0 -0.31035847543E+02 -0.11549788923E+02 -0.83327799523E+02  0.15383326496E+03  0.12499811910E+03 0.  0.
          5    1    3    3  502    0  0.38746884746E+02 -0.31307357863E+02 -0.58619425788E+02  0.77070090266E+02  0.47000000000E+01 0. -1.
         -5    1    3    3    0  502 -0.69782732289E+02  0.19757568940E+02 -0.24708373735E+02  0.76763174692E+02  0.47000000000E+01 0. -1.
        -11    1    1    2    0    0  0.52935223207E+02  0.26432687907E+02  0.69698916908E+02  0.91426275567E+02  0.00000000000E+00 0. -1.
         11    1    1    2    0    0 -0.21899375664E+02 -0.14882898984E+02 -0.15968484943E+01  0.26526086438E+02  0.00000000000E+00 0.  1.
<mgrwt>
<rscale>  0 0.12012635E+03</rscale>
<asrwt>0</asrwt>
<pdfrwt beam="2">  1        1 0.22077797E-01 0.12931029E+03</pdfrwt>
<pdfrwt beam="1">  1       -1 0.19735377E-01 0.12931029E+03</pdfrwt>
<totfact> 0.44208046E+03</totfact>
</mgrwt>
</event>
<event>
 7    1  0.5928109E-006  0.1311174E+03  0.7546771E-02  0.1238001E+00
          1   -1    0    0  501    0  0.00000000000E+00  0.00000000000E+00  0.79915375239E+02  0.79915375239E+02  0.00000000000E+00 0. -1.
         -1   -1    0    0    0  501 -0.00000000000E+00 -0.00000000000E+00 -0.18584378710E+03  0.18584378710E+03  0.00000000000E+00 0.  1.
         23    2    1    2    0    0 -0.37222888671E+02 -0.13423594532E+02 -0.20520214764E+02  0.13271337109E+03  0.12500409322E+03 0.  0.
          5    1    3    3  502    0  0.37951307045E+02 -0.32030756238E+02  0.70413411691E+01  0.50377986632E+02  0.47000000000E+01 0. -1.
         -5    1    3    3    0  502 -0.75174195716E+02  0.18607161705E+02 -0.27561555933E+02  0.82335384458E+02  0.47000000000E+01 0. -1.
        -11    1    1    2    0    0  0.64430410338E+02  0.75757922569E+01 -0.82665437786E+02  0.10508208700E+03  0.00000000000E+00 0.  1.
         11    1    1    2    0    0 -0.27207521667E+02  0.58478022752E+01 -0.27427593130E+01  0.27963704249E+02  0.00000000000E+00 0. -1.
<mgrwt>
<rscale>  0 0.12314275E+03</rscale>
<asrwt>0</asrwt>
<pdfrwt beam="1">  1        1 0.12294673E-01 0.13111735E+03</pdfrwt>
<pdfrwt beam="2">  1       -1 0.28591352E-01 0.13111735E+03</pdfrwt>
<totfact> 0.51260464E+03</totfact>
</mgrwt>
</event>
<event>
 7    1  0.5928109E-006  0.2292959E+03  0.7546771E-02  0.1130222E+00
         -2   -1    0    0    0  501 -0.00000000000E+00  0.00000000000E+00  0.47173233129E+02  0.47173233129E+02  0.00000000000E+00 0.  1.
          2   -1    0    0  501    0  0.00000000000E+00 -0.00000000000E+00 -0.10396240100E+04  0.10396240100E+04  0.00000000000E+00 0. -1.
         23    2    1    2    0    0  0.47183647056E+02 -0.18634738518E+03 -0.55309878479E+03  0.59874441722E+03  0.12499986761E+03 0.  0.
          5    1    3    3  502    0  0.22491359794E+01 -0.21063541130E+02 -0.24699345009E+03  0.24794472320E+03  0.47000000000E+01 0.  1.
         -5    1    3    3    0  502  0.44934511076E+02 -0.16528384405E+03 -0.30610533471E+03  0.35079969402E+03  0.47000000000E+01 0.  1.
        -11    1    1    2    0    0 -0.53430373632E+02  0.44849551335E+02 -0.16939293812E+03  0.18319458116E+03  0.00000000000E+00 0. -1.
         11    1    1    2    0    0  0.62467265760E+01  0.14149783384E+03 -0.26995905393E+03  0.30485824472E+03  0.00000000000E+00 0.  1.
<mgrwt>
<rscale>  0 0.22498209E+03</rscale>
<asrwt>0</asrwt>
<pdfrwt beam="2">  1        2 0.15994215E+00 0.22929590E+03</pdfrwt>
<pdfrwt beam="1">  1       -2 0.72574207E-02 0.22929590E+03</pdfrwt>
<totfact> 0.27258480E+03</totfact>
</mgrwt>
</event>
<event>
 7    1  0.5928109E-006  0.1848716E+03  0.7546771E-02  0.1168141E+00
          1   -1    0    0  501    0  0.00000000000E+00  0.00000000000E+00  0.10607850819E+03  0.10607850819E+03  0.00000000000E+00 0.  1.
         -1   -1    0    0    0  501 -0.00000000000E+00 -0.00000000000E+00 -0.28825535242E+03  0.28825535242E+03  0.00000000000E+00 0. -1.
         23    2    1    2    0    0 -0.21573421327E+01 -0.13619119190E+03 -0.96868551551E+02  0.20871275216E+03  0.12499920704E+03 0.  0.
          5    1    3    3  502    0  0.21634273234E+02 -0.14383714876E+03 -0.10772565829E+03  0.18106373076E+03  0.47000000000E+01 0. -1.
         -5    1    3    3    0  502 -0.23791615366E+02  0.76459568630E+01  0.10857106734E+02  0.27649021406E+02  0.47000000000E+01 0. -1.
        -11    1    1    2    0    0  0.11826149227E+02  0.13257189686E+02  0.17600895082E+02  0.25008046537E+02  0.00000000000E+00 0.  1.
         11    1    1    2    0    0 -0.96688070942E+01  0.12293400221E+03 -0.10290918776E+03  0.16061306191E+03  0.00000000000E+00 0. -1.
<mgrwt>
<rscale>  0 0.17965080E+03</rscale>
<asrwt>0</asrwt>
<pdfrwt beam="1">  1        1 0.16319770E-01 0.18487157E+03</pdfrwt>
<pdfrwt beam="2">  1       -1 0.44346977E-01 0.18487157E+03</pdfrwt>
<totfact> 0.16866018E+03</totfact>
</mgrwt>
</event>
<event>
 7    1  0.5928109E-006  0.1286245E+03  0.7546771E-02  0.1243874E+00
         -1   -1    0    0    0  501 -0.00000000000E+00  0.00000000000E+00  0.88007645594E+02  0.88007645594E+02  0.00000000000E+00 0.  1.
          1   -1    0    0  501    0  0.00000000000E+00 -0.00000000000E+00 -0.15217755042E+03  0.15217755042E+03  0.00000000000E+00 0. -1.
         23    2    1    2    0    0 -0.29637064584E+02  0.62842386493E+01 -0.65302461024E+02  0.14425214901E+03  0.12500569517E+03 0.  0.
          5    1    3    3  502    0 -0.88020418628E+01 -0.38038554809E+01  0.37386386233E+02  0.38881578325E+02  0.47000000000E+01 0. -1.
         -5    1    3    3    0  502 -0.20835022721E+02  0.10088094130E+02 -0.10268884726E+03  0.10537057068E+03  0.47000000000E+01 0. -1.
        -11    1    1    2    0    0  0.30545780008E+02 -0.39192003619E+02 -0.23354370896E+02  0.54904320995E+02  0.00000000000E+00 0. -1.
         11    1    1    2    0    0 -0.90871542372E+00  0.32907764970E+02  0.24486927098E+02  0.41028726007E+02  0.00000000000E+00 0.  1.
<mgrwt>
<rscale>  0 0.11953012E+03</rscale>
<asrwt>0</asrwt>
<pdfrwt beam="2">  1        1 0.23411931E-01 0.12862454E+03</pdfrwt>
<pdfrwt beam="1">  1       -1 0.13539638E-01 0.12862454E+03</pdfrwt>
<totfact> 0.74328087E+03</totfact>
</mgrwt>
</event>
<event>
 7    1  0.5928109E-006  0.1309009E+03  0.7546771E-02  0.1239624E+00
         -1   -1    0    0    0  501 -0.00000000000E+00  0.00000000000E+00  0.56669546760E+03  0.56669546760E+03  0.00000000000E+00 0.  1.
          1   -1    0    0  501    0  0.00000000000E+00 -0.00000000000E+00 -0.23360437275E+02  0.23360437275E+02  0.00000000000E+00 0. -1.
         23    2    1    2    0    0  0.36636945383E+02 -0.12957214330E+02  0.31347197159E+03  0.33970532986E+03  0.12499951598E+03 0.  0.
          5    1    3    3  502    0 -0.18422020697E+02  0.46191557155E+02  0.11829178182E+03  0.12840586609E+03  0.47000000000E+01 0.  1.
         -5    1    3    3    0  502  0.55058966080E+02 -0.59148771486E+02  0.19518018977E+03  0.21129946378E+03  0.47000000000E+01 0.  1.
        -11    1    1    2    0    0 -0.23044067684E+02  0.31530967997E+02  0.22291234534E+03  0.22630763289E+03  0.00000000000E+00 0.  1.
         11    1    1    2    0    0 -0.13592877699E+02 -0.18573753667E+02  0.69507133981E+01  0.24042942128E+02  0.00000000000E+00 0. -1.
<mgrwt>
<rscale>  0 0.12213000E+03</rscale>
<asrwt>0</asrwt>
<pdfrwt beam="2">  1        1 0.35939138E-02 0.13090086E+03</pdfrwt>
<pdfrwt beam="1">  1       -1 0.87183908E-01 0.13090086E+03</pdfrwt>
<totfact> 0.34475477E+03</totfact>
</mgrwt>
</event>
<event>
 7    1  0.5928109E-006  0.1421953E+03  0.7546771E-02  0.1224869E+00
          1   -1    0    0  501    0  0.00000000000E+00  0.00000000000E+00  0.11853097962E+03  0.11853097962E+03  0.00000000000E+00 0. -1.
         -1   -1    0    0    0  501 -0.00000000000E+00 -0.00000000000E+00 -0.13854158253E+03  0.13854158253E+03  0.00000000000E+00 0.  1.
         23    2    1    2    0    0 -0.65087772960E+02 -0.18903466940E+02  0.22485726550E+02  0.14396222865E+03  0.12500302448E+03 0.  0.
          5    1    3    3  502    0 -0.19769712009E+01 -0.58883935279E+02  0.34060521582E+02  0.68216093259E+02  0.47000000000E+01 0. -1.
         -5    1    3    3    0  502 -0.63110801759E+02  0.39980468338E+02 -0.11574795032E+02  0.75746135395E+02  0.47000000000E+01 0. -1.
        -11    1    1    2    0    0  0.33871895921E+02  0.22946942592E+02  0.18168476664E+02  0.44765623550E+02  0.00000000000E+00 0. -1.
         11    1    1    2    0    0  0.31215877039E+02 -0.40434756513E+01 -0.60664806126E+02  0.68344709941E+02  0.00000000000E+00 0.  1.
<mgrwt>
<rscale>  0 0.13175858E+03</rscale>
<asrwt>0</asrwt>
<pdfrwt beam="1">  1        1 0.18235535E-01 0.14219534E+03</pdfrwt>
<pdfrwt beam="2">  1       -1 0.21314090E-01 0.14219534E+03</pdfrwt>
<totfact> 0.50088196E+03</totfact>
</mgrwt>
</event>
<event>
 7    1  0.5928109E-006  0.2096261E+03  0.7546771E-02  0.1145655E+00
          1   -1    0    0  501    0  0.00000000000E+00  0.00000000000E+00  0.63198301565E+03  0.63198301565E+03  0.00000000000E+00 0. -1.
         -1   -1    0    0    0  501 -0.00000000000E+00 -0.00000000000E+00 -0.72141103409E+02  0.72141103409E+02  0.00000000000E+00 0.  1.
         23    2    1    2    0    0  0.40593447081E+02 -0.16330854918E+03  0.41199199368E+03  0.46225588056E+03  0.12500234428E+03 0.  0.
          5    1    3    3  502    0  0.58046206662E+02 -0.13175930532E+03  0.39804895995E+03  0.42331423454E+03  0.47000000000E+01 0.  1.
         -5    1    3    3    0  502 -0.17452759580E+02 -0.31549243862E+02  0.13943033726E+02  0.38941646020E+02  0.47000000000E+01 0.  1.
        -11    1    1    2    0    0 -0.14605878018E+02  0.12948277532E+03  0.15057167728E+03  0.19912546492E+03  0.00000000000E+00 0. -1.
         11    1    1    2    0    0 -0.25987569064E+02  0.33825773858E+02 -0.27217587227E+01  0.42742773582E+02  0.00000000000E+00 0.  1.
<mgrwt>
<rscale>  0 0.20491766E+03</rscale>
<asrwt>0</asrwt>
<pdfrwt beam="1">  1        1 0.97228153E-01 0.20962609E+03</pdfrwt>
<pdfrwt beam="2">  1       -1 0.11098632E-01 0.20962609E+03</pdfrwt>
<totfact> 0.16861651E+03</totfact>
</mgrwt>
</event>
<event>
 7    1  0.5928109E-006  0.1506590E+03  0.7546771E-02  0.1208839E+00
         -1   -1    0    0    0  501 -0.00000000000E+00  0.00000000000E+00  0.47028383234E+02  0.47028383234E+02  0.00000000000E+00 0.  1.
          1   -1    0    0  501    0  0.00000000000E+00 -0.00000000000E+00 -0.49139769935E+03  0.49139769935E+03  0.00000000000E+00 0. -1.
         23    2    1    2    0    0  0.82003746391E+02  0.18605695538E+02 -0.35571161631E+03  0.38630154191E+03  0.12500936356E+03 0.  0.
          5    1    3    3  502    0  0.62799968067E+02  0.63783392170E+02 -0.14981579083E+03  0.17458241117E+03  0.47000000000E+01 0.  1.
         -5    1    3    3    0  502  0.19203778323E+02 -0.45177696632E+02 -0.20589582548E+03  0.21171913075E+03  0.47000000000E+01 0.  1.
        -11    1    1    2    0    0 -0.75306851679E+02 -0.35526066264E+02 -0.10042446257E+03  0.13045419111E+03  0.00000000000E+00 0. -1.
         11    1    1    2    0    0 -0.66968947119E+01  0.16920370726E+02  0.11766762766E+02  0.21670349566E+02  0.00000000000E+00 0.  1.
<mgrwt>
<rscale>  0 0.14338961E+03</rscale>
<asrwt>0</asrwt>
<pdfrwt beam="2">  1        1 0.75599643E-01 0.15065898E+03</pdfrwt>
<pdfrwt beam="1">  1       -1 0.72351362E-02 0.15065898E+03</pdfrwt>
<totfact> 0.45079322E+03</totfact>
</mgrwt>
</event>
<event>
 7    1  0.5928109E-006  0.1386881E+03  0.7546771E-02  0.1226690E+00
         -3   -1    0    0    0  501 -0.00000000000E+00  0.00000000000E+00  0.95835460811E+02  0.95835460811E+02  0.00000000000E+00 0.  1.
          3   -1    0    0  501    0  0.00000000000E+00 -0.00000000000E+00 -0.16394866473E+03  0.16394866473E+03  0.00000000000E+00 0. -1.
         23    2    1    2    0    0 -0.41000476095E+02 -0.43884669182E+02 -0.58688737686E+02  0.15059470776E+03  0.12500997898E+03 0.  0.
          5    1    3    3  502    0  0.25887826406E+02  0.21225706475E+02 -0.44770962680E+02  0.56100260879E+02  0.47000000000E+01 0. -1.
         -5    1    3    3    0  502 -0.66888302501E+02 -0.65110375657E+02 -0.13917775006E+02  0.94494446878E+02  0.47000000000E+01 0. -1.
        -11    1    1    2    0    0  0.68667119691E+02  0.33088897037E+02 -0.17916074053E+02  0.78300920450E+02  0.00000000000E+00 0. -1.
         11    1    1    2    0    0 -0.27666643597E+02  0.10795772144E+02  0.84916078215E+01  0.30888497333E+02  0.00000000000E+00 0.  1.
<mgrwt>
<rscale>  0 0.13051748E+03</rscale>
<asrwt>0</asrwt>
<pdfrwt beam="2">  1        3 0.25222871E-01 0.13868813E+03</pdfrwt>
<pdfrwt beam="1">  1       -3 0.14743917E-01 0.13868813E+03</pdfrwt>
<totfact> 0.13051108E+03</totfact>
</mgrwt>
</event>
<event>
 7    1  0.5928109E-006  0.2203756E+03  0.7546771E-02  0.1136927E+00
         -2   -1    0    0    0  501 -0.00000000000E+00  0.00000000000E+00  0.48343648649E+02  0.48343648649E+02  0.00000000000E+00 0.  1.
          2   -1    0    0  501    0  0.00000000000E+00 -0.00000000000E+00 -0.92807559569E+03  0.92807559569E+03  0.00000000000E+00 0. -1.
         23    2    1    2    0    0  0.17449817057E+03 -0.49904797562E+02 -0.45835392211E+03  0.50858011220E+03  0.12500124903E+03 0.  0.
          5    1    3    3  502    0  0.16977981851E+03 -0.48616859408E+02 -0.46599682310E+03  0.49836122936E+03  0.47000000000E+01 0.  1.
         -5    1    3    3    0  502  0.47183520556E+01 -0.12879381540E+01  0.76429009918E+01  0.10218882834E+02  0.47000000000E+01 0.  1.
        -11    1    1    2    0    0 -0.70418334215E+02  0.50015668474E+02 -0.11208619766E+03  0.14150485713E+03  0.00000000000E+00 0.  1.
         11    1    1    2    0    0 -0.10407983635E+03 -0.11087091225E+00 -0.30929182727E+03  0.32633427501E+03  0.00000000000E+00 0. -1.
<mgrwt>
<rscale>  0 0.21596572E+03</rscale>
<asrwt>0</asrwt>
<pdfrwt beam="2">  1        2 0.14278085E+00 0.22037562E+03</pdfrwt>
<pdfrwt beam="1">  1       -2 0.74374848E-02 0.22037562E+03</pdfrwt>
<totfact> 0.30714448E+03</totfact>
</mgrwt>
</event>
<event>
 6    1  0.5928109E-006  0.1673145E+03  0.7546771E-02  0.1199574E+00
         -2   -1    0    0    0  501 -0.00000000000E+00  0.00000000000E+00  0.26700974296E+02  0.26700974296E+02  0.00000000000E+00 0.  1.
          2   -1    0    0  501    0  0.00000000000E+00 -0.00000000000E+00 -0.11399138715E+04  0.11399138715E+04  0.00000000000E+00 0. -1.
          5    1    1    2  502    0 -0.10025395993E+03  0.82035695055E+01 -0.86163698873E+03  0.86750132298E+03  0.47000000000E+01 0. -1.
         -5    1    1    2    0  502  0.41587388261E+02  0.16055363871E+02 -0.11619463596E+03  0.12454143486E+03  0.47000000000E+01 0.  1.
        -11    1    1    2    0    0 -0.14973611086E+02 -0.76798535711E+01 -0.77892316605E+02  0.79689410626E+02  0.00000000000E+00 0. -1.
         11    1    1    2    0    0  0.73640182759E+02 -0.16579079805E+02 -0.57488955902E+02  0.94882677317E+02  0.00000000000E+00 0.  1.
<mgrwt>
<rscale>  0 0.15073368E+03</rscale>
<asrwt>0</asrwt>
<pdfrwt beam="2">  1        2 0.17537138E+00 0.16731452E+03</pdfrwt>
<pdfrwt beam="1">  1       -2 0.41078419E-02 0.16731452E+03</pdfrwt>
<totfact> 0.56255165E+03</totfact>
</mgrwt>
</event>
<event>
 7    1  0.5928109E-006  0.1278879E+03  0.7546771E-02  0.1245202E+00
          2   -1    0    0  501    0  0.00000000000E+00  0.00000000000E+00  0.54725916450E+03  0.54725916450E+03  0.00000000000E+00 0.  1.
         -2   -1    0    0    0  501 -0.00000000000E+00 -0.00000000000E+00 -0.28293491613E+02  0.28293491613E+02  0.00000000000E+00 0. -1.
         23    2    1    2    0    0 -0.11834915430E+02  0.24290012251E+02  0.41704215706E+03  0.43621037150E+03  0.12500103009E+03 0.  0.
          5    1    3    3  502    0  0.30435286504E+01  0.47970433904E+02  0.40045505399E+03  0.40335687159E+03  0.47000000000E+01 0.  1.
         -5    1    3    3    0  502 -0.14878444081E+02 -0.23680421653E+02  0.16587103067E+02  0.32853499906E+02  0.47000000000E+01 0.  1.
        -11    1    1    2    0    0  0.16297063318E+02 -0.15317245815E+02  0.11816233513E+03  0.12026034149E+03  0.00000000000E+00 0.  1.
         11    1    1    2    0    0 -0.44621478880E+01 -0.89727664361E+01 -0.16238819297E+02  0.19081943125E+02  0.00000000000E+00 0. -1.
<mgrwt>
<rscale>  0 0.11873271E+03</rscale>
<asrwt>0</asrwt>
<pdfrwt beam="1">  1        2 0.84193710E-01 0.12788795E+03</pdfrwt>
<pdfrwt beam="2">  1       -2 0.43528453E-02 0.12788795E+03</pdfrwt>
<totfact> 0.12833517E+04</totfact>
</mgrwt>
</event>
<event>
 6    1  0.5928109E-006  0.1517031E+03  0.7546771E-02  0.1218057E+00
         -2   -1    0    0    0  501 -0.00000000000E+00  0.00000000000E+00  0.15923052166E+03  0.15923052166E+03  0.00000000000E+00 0.  1.
          2   -1    0    0  501    0  0.00000000000E+00 -0.00000000000E+00 -0.19097093831E+03  0.19097093831E+03  0.00000000000E+00 0. -1.
          5    1    1    2  502    0 -0.25570607129E+01 -0.53597094695E+02 -0.95692215251E+02  0.10981018704E+03  0.47000000000E+01 0. -1.
         -5    1    1    2    0  502  0.34378907398E+02  0.77890834786E+02 -0.41955119828E+02  0.95032696991E+02  0.47000000000E+01 0.  1.
        -11    1    1    2    0    0 -0.51370534220E+02 -0.46036661054E+02  0.84717403657E+02  0.10924900196E+03  0.00000000000E+00 0. -1.
         11    1    1    2    0    0  0.19548687535E+02  0.21742920962E+02  0.21189514775E+02  0.36109573976E+02  0.00000000000E+00 0.  1.
<mgrwt>
<rscale>  0 0.13654334E+03</rscale>
<asrwt>0</asrwt>
<pdfrwt beam="2">  1        2 0.29380144E-01 0.15170306E+03</pdfrwt>
<pdfrwt beam="1">  1       -2 0.24497003E-01 0.15170306E+03</pdfrwt>
<totfact> 0.25756096E+03</totfact>
</mgrwt>
</event>
<event>
 6    1  0.5928109E-006  0.1433957E+03  0.7546771E-02  0.1229863E+00
          1   -1    0    0  501    0  0.00000000000E+00  0.00000000000E+00  0.18364783723E+04  0.18364783723E+04  0.00000000000E+00 0. -1.
         -1   -1    0    0    0  501 -0.00000000000E+00 -0.00000000000E+00 -0.94987211761E+01  0.94987211761E+01  0.00000000000E+00 0.  1.
          5    1    1    2  502    0  0.31596379214E+02 -0.14725143842E+02  0.13142122007E+04  0.13146828361E+04  0.47000000000E+01 0. -1.
         -5    1    1    2    0  502 -0.31973770653E+02  0.33966183657E+02  0.16706613555E+03  0.17352004867E+03  0.47000000000E+01 0.  1.
        -11    1    1    2    0    0 -0.43557297236E+02 -0.41631752054E+01  0.13130031732E+03  0.13839921784E+03  0.00000000000E+00 0.  1.
         11    1    1    2    0    0  0.43934688676E+02 -0.15077864610E+02  0.21440099748E+03  0.21937499080E+03  0.00000000000E+00 0. -1.
<mgrwt>
<rscale>  0 0.12839099E+03</rscale>
<asrwt>0</asrwt>
<pdfrwt beam="1">  1        1 0.28253485E+00 0.14339567E+03</pdfrwt>
<pdfrwt beam="2">  1       -1 0.14613432E-02 0.14339567E+03</pdfrwt>
<totfact> 0.46224721E+03</totfact>
</mgrwt>
</event>
<event>
 7    1  0.5928109E-006  0.1648345E+03  0.7546771E-02  0.1191494E+00
          1   -1    0    0  501    0  0.00000000000E+00  0.00000000000E+00  0.21466388340E+04  0.21466388340E+04  0.00000000000E+00 0. -1.
         -1   -1    0    0    0  501 -0.00000000000E+00 -0.00000000000E+00 -0.13557912768E+02  0.13557912768E+02  0.00000000000E+00 0.  1.
         23    2    1    2    0    0 -0.40387032829E+02  0.99567087173E+02  0.16407293999E+04  0.16489885930E+04  0.12500279507E+03 0.  0.
          5    1    3    3  502    0  0.20250527993E+02  0.97467454091E+02  0.11906619645E+04  0.11948255070E+04  0.47000000000E+01 0.  1.
         -5    1    3    3    0  502 -0.60637560822E+02  0.20996330826E+01  0.45006743545E+03  0.45416308601E+03  0.47000000000E+01 0.  1.
        -11    1    1    2    0    0  0.48155631989E+02 -0.38619932854E+02  0.36046867192E+03  0.36571591097E+03  0.00000000000E+00 0. -1.
         11    1    1    2    0    0 -0.77685991602E+01 -0.60947154320E+02  0.13188284942E+03  0.14549224283E+03  0.00000000000E+00 0.  1.
<mgrwt>
<rscale>  0 0.15754768E+03</rscale>
<asrwt>0</asrwt>
<pdfrwt beam="1">  1        1 0.33025186E+00 0.16483451E+03</pdfrwt>
<pdfrwt beam="2">  1       -1 0.20858344E-02 0.16483451E+03</pdfrwt>
<totfact> 0.17544331E+03</totfact>
</mgrwt>
</event>
<event>
 7    1  0.5928109E-006  0.1518262E+03  0.7546771E-02  0.1207049E+00
          1   -1    0    0  501    0  0.00000000000E+00  0.00000000000E+00  0.45551111056E+03  0.45551111056E+03  0.00000000000E+00 0. -1.
         -1   -1    0    0    0  501 -0.00000000000E+00 -0.00000000000E+00 -0.43367931112E+02  0.43367931112E+02  0.00000000000E+00 0.  1.
         23    2    1    2    0    0 -0.85791205281E+02  0.78453436274E+01  0.26559635897E+03  0.30592911820E+03  0.12501807526E+03 0.  0.
          5    1    3    3  502    0  0.22532979346E+02 -0.22371617838E+02  0.10513809653E+03  0.10992876687E+03  0.47000000000E+01 0.  1.
         -5    1    3    3    0  502 -0.10832418463E+03  0.30216961465E+02  0.16045826245E+03  0.19600035133E+03  0.47000000000E+01 0.  1.
        -11    1    1    2    0    0  0.32255500069E+02 -0.63180497929E+01 -0.40463199549E+01  0.33116578070E+02  0.00000000000E+00 0.  1.
         11    1    1    2    0    0  0.53535705212E+02 -0.15272938345E+01  0.15059314042E+03  0.15983334540E+03  0.00000000000E+00 0. -1.
<mgrwt>
<rscale>  0 0.14477144E+03</rscale>
<asrwt>0</asrwt>
<pdfrwt beam="1">  1        1 0.70078629E-01 0.15182621E+03</pdfrwt>
<pdfrwt beam="2">  1       -1 0.66719897E-02 0.15182621E+03</pdfrwt>
<totfact> 0.56197906E+03</totfact>
</mgrwt>
</event>
<event>
 7    1  0.5928109E-006  0.1307048E+03  0.7546771E-02  0.1239543E+00
         -1   -1    0    0    0  501 -0.00000000000E+00  0.00000000000E+00  0.39519866168E+02  0.39519866168E+02  0.00000000000E+00 0. -1.
          1   -1    0    0  501    0  0.00000000000E+00 -0.00000000000E+00 -0.33959732957E+03  0.33959732957E+03  0.00000000000E+00 0.  1.
         23    2    1    2    0    0  0.38415914312E+02  0.20090372615E+01 -0.15091601059E+03  0.19964813765E+03  0.12491564318E+03 0.  0.
          5    1    3    3  502    0 -0.24536333427E+01  0.44473309307E+02 -0.86911796798E+01  0.45623701752E+02  0.47000000000E+01 0.  1.
         -5    1    3    3    0  502  0.40869547654E+02 -0.42464272046E+02 -0.14222483091E+03  0.15402443590E+03  0.47000000000E+01 0.  1.
        -11    1    1    2    0    0 -0.41379125610E+02 -0.27042395792E+02 -0.14590524170E+03  0.15405149386E+03  0.00000000000E+00 0. -1.
         11    1    1    2    0    0  0.29632112986E+01  0.25033358530E+02 -0.32562111154E+01  0.25417564229E+02  0.00000000000E+00 0.  1.
<mgrwt>
<rscale>  0 0.12218025E+03</rscale>
<asrwt>0</asrwt>
<pdfrwt beam="2">  1        1 0.52245744E-01 0.13070477E+03</pdfrwt>
<pdfrwt beam="1">  1       -1 0.60799793E-02 0.13070477E+03</pdfrwt>
<totfact> 0.92658795E+03</totfact>
</mgrwt>
</event>
<event>
 7    1  0.5928109E-006  0.1262811E+03  0.7546771E-02  0.1255688E+00
         -2   -1    0    0    0  501 -0.00000000000E+00  0.00000000000E+00  0.80500727927E+02  0.80500727927E+02  0.00000000000E+00 0.  1.
          2   -1    0    0  501    0  0.00000000000E+00 -0.00000000000E+00 -0.13297108421E+03  0.13297108421E+03  0.00000000000E+00 0. -1.
         23    2    1    2    0    0  0.11591814425E+02  0.13683031732E+02 -0.39953320937E+02  0.13245070912E+03  0.12500130789E+03 0.  0.
          5    1    3    3  502    0 -0.41370692600E+02  0.44930882403E+02 -0.47569139280E+01  0.61441326726E+02  0.47000000000E+01 0.  1.
         -5    1    3    3    0  502  0.52962507024E+02 -0.31247850671E+02 -0.35196407009E+02  0.71009382395E+02  0.47000000000E+01 0.  1.
        -11    1    1    2    0    0  0.19876688128E+02 -0.48195150707E+01  0.24314588741E+02  0.31772782096E+02  0.00000000000E+00 0.  1.
         11    1    1    2    0    0 -0.31468502552E+02 -0.88635166617E+01 -0.36831624093E+02  0.49248320924E+02  0.00000000000E+00 0. -1.
<mgrwt>
<rscale>  0 0.11267874E+03</rscale>
<asrwt>0</asrwt>
<pdfrwt beam="2">  1        2 0.20457090E-01 0.12628112E+03</pdfrwt>
<pdfrwt beam="1">  1       -2 0.12384728E-01 0.12628112E+03</pdfrwt>
<totfact> 0.11835413E+04</totfact>
</mgrwt>
</event>
<event>
 7    1  0.5928109E-006  0.1391125E+03  0.7546771E-02  0.1223512E+00
         -2   -1    0    0    0  501 -0.00000000000E+00  0.00000000000E+00  0.11638924987E+03  0.11638924987E+03  0.00000000000E+00 0.  1.
          2   -1    0    0  501    0  0.00000000000E+00 -0.00000000000E+00 -0.23595436932E+03  0.23595436932E+03  0.00000000000E+00 0. -1.
         23    2    1    2    0    0  0.23504062002E+02  0.66003222370E+02 -0.17580167328E+03  0.22418411972E+03  0.12018080093E+03 0.  0.
          5    1    3    3  502    0  0.71362932691E+02  0.39887343747E+02 -0.84005950291E+02  0.11731478184E+03  0.47000000000E+01 0. -1.
         -5    1    3    3    0  502 -0.47858870689E+02  0.26115878622E+02 -0.91795722993E+02  0.10686933788E+03  0.47000000000E+01 0.  1.
        -11    1    1    2    0    0  0.12359072634E+02 -0.72532047974E+02  0.18872543804E+02  0.75959315224E+02  0.00000000000E+00 0. -1.
         11    1    1    2    0    0 -0.35863134637E+02  0.65288256041E+01  0.37364010025E+02  0.52200184242E+02  0.00000000000E+00 0.  1.
<mgrwt>
<rscale>  0 0.13269423E+03</rscale>
<asrwt>0</asrwt>
<pdfrwt beam="2">  1        2 0.36300672E-01 0.13911251E+03</pdfrwt>
<pdfrwt beam="1">  1       -2 0.17906039E-01 0.13911251E+03</pdfrwt>
<totfact> 0.34851432E+03</totfact>
</mgrwt>
</event>
<event>
 7    1  0.5928109E-006  0.1324181E+03  0.7546771E-02  0.1238035E+00
         -1   -1    0    0    0  501 -0.00000000000E+00  0.00000000000E+00  0.74559391405E+02  0.74559391405E+02  0.00000000000E+00 0.  1.
          1   -1    0    0  501    0  0.00000000000E+00 -0.00000000000E+00 -0.22057490137E+03  0.22057490137E+03  0.00000000000E+00 0. -1.
         23    2    1    2    0    0 -0.39018730681E+02 -0.19743444348E+02 -0.14472041500E+03  0.19615950147E+03  0.12498914578E+03 0.  0.
          5    1    3    3  502    0 -0.35139699019E+02  0.10170737696E+02 -0.15844976873E+03  0.16268577554E+03  0.47000000000E+01 0. -1.
         -5    1    3    3    0  502 -0.38790316615E+01 -0.29914182044E+02  0.13729353732E+02  0.33473725934E+02  0.47000000000E+01 0. -1.
        -11    1    1    2    0    0  0.15712872980E+02 -0.27741748427E+02 -0.25478655316E+02  0.40812508619E+02  0.00000000000E+00 0. -1.
         11    1    1    2    0    0  0.23305857701E+02  0.47485192776E+02  0.24183560346E+02  0.58162282685E+02  0.00000000000E+00 0.  1.
<mgrwt>
<rscale>  0 0.12312106E+03</rscale>
<asrwt>0</asrwt>
<pdfrwt beam="2">  1        1 0.33934601E-01 0.13241809E+03</pdfrwt>
<pdfrwt beam="1">  1       -1 0.11470675E-01 0.13241809E+03</pdfrwt>
<totfact> 0.60588000E+03</totfact>
</mgrwt>
</event>
<event>
 7    1  0.5928109E-006  0.1254965E+03  0.7546771E-02  0.1251489E+00
          1   -1    0    0  501    0  0.00000000000E+00  0.00000000000E+00  0.39363941995E+03  0.39363941995E+03  0.00000000000E+00 0. -1.
         -1   -1    0    0    0  501 -0.00000000000E+00 -0.00000000000E+00 -0.33418515013E+02  0.33418515013E+02  0.00000000000E+00 0.  1.
         23    2    1    2    0    0  0.17709804288E+01  0.10950205456E+02  0.28265534154E+03  0.30926268888E+03  0.12500530093E+03 0.  0.
          5    1    3    3  502    0 -0.38622741555E+02  0.12193068181E+02  0.25902181510E+03  0.26221132275E+03  0.47000000000E+01 0.  1.
         -5    1    3    3    0  502  0.40393721984E+02 -0.12428627244E+01  0.23633526441E+02  0.47051366138E+02  0.47000000000E+01 0.  1.
        -11    1    1    2    0    0 -0.18796293437E+02 -0.16655369373E+02 -0.11007709541E+02  0.27420277993E+02  0.00000000000E+00 0.  1.
         11    1    1    2    0    0  0.17025313008E+02  0.57051639163E+01  0.88573272930E+02  0.90374968083E+02  0.00000000000E+00 0. -1.
<mgrwt>
<rscale>  0 0.11505267E+03</rscale>
<asrwt>0</asrwt>
<pdfrwt beam="1">  1        1 0.60559907E-01 0.12549649E+03</pdfrwt>
<pdfrwt beam="2">  1       -1 0.51413103E-02 0.12549649E+03</pdfrwt>
<totfact> 0.98512139E+03</totfact>
</mgrwt>
</event>
<event>
 7    1  0.5928109E-006  0.1659173E+03  0.7546771E-02  0.1189756E+00
          2   -1    0    0  501    0  0.00000000000E+00  0.00000000000E+00  0.18537377411E+04  0.18537377411E+04  0.00000000000E+00 0. -1.
         -2   -1    0    0    0  501 -0.00000000000E+00 -0.00000000000E+00 -0.22173480541E+02  0.22173480541E+02  0.00000000000E+00 0.  1.
         23    2    1    2    0    0 -0.89901308499E+02  0.61793960059E+02  0.15736544880E+04  0.15823770099E+04  0.12501125996E+03 0.  0.
          5    1    3    3  502    0 -0.96650223913E+02  0.53050846854E+02  0.15611440389E+04  0.15650394431E+04  0.47000000000E+01 0. -1.
         -5    1    3    3    0  502  0.67489154142E+01  0.87431132049E+01  0.12510449117E+02  0.17337566867E+02  0.47000000000E+01 0. -1.
        -11    1    1    2    0    0  0.27435438843E+02 -0.10762382598E+02  0.74381904861E+01  0.30395046659E+02  0.00000000000E+00 0.  1.
         11    1    1    2    0    0  0.62465869657E+02 -0.51031577461E+02  0.25047158209E+03  0.26313916509E+03  0.00000000000E+00 0. -1.
<mgrwt>
<rscale>  0 0.15906512E+03</rscale>
<asrwt>0</asrwt>
<pdfrwt beam="1">  1        2 0.28519030E+00 0.16591731E+03</pdfrwt>
<pdfrwt beam="2">  1       -2 0.34113062E-02 0.16591731E+03</pdfrwt>
<totfact> 0.30985790E+03</totfact>
</mgrwt>
</event>
<event>
 7    1  0.5928109E-006  0.1250630E+03  0.7546771E-02  0.1253524E+00
         -3   -1    0    0    0  501 -0.00000000000E+00  0.00000000000E+00  0.46839887717E+02  0.46839887717E+02  0.00000000000E+00 0.  1.
          3   -1    0    0  501    0  0.00000000000E+00 -0.00000000000E+00 -0.24135055315E+03  0.24135055315E+03  0.00000000000E+00 0. -1.
         23    2    1    2    0    0 -0.16180896013E+01  0.26742879889E+01 -0.13211022800E+03  0.18191717540E+03  0.12502390304E+03 0.  0.
          5    1    3    3  502    0  0.42370688714E+02  0.28201121663E+02 -0.13635521158E+02  0.52901757650E+02  0.47000000000E+01 0.  1.
         -5    1    3    3    0  502 -0.43988778315E+02 -0.25526833674E+02 -0.11847470684E+03  0.12901541775E+03  0.47000000000E+01 0.  1.
        -11    1    1    2    0    0 -0.89769826785E+01  0.40532032899E+02 -0.31369310505E+02  0.52033311931E+02  0.00000000000E+00 0.  1.
         11    1    1    2    0    0  0.10595072280E+02 -0.43206320888E+02 -0.31031126922E+02  0.54239953534E+02  0.00000000000E+00 0. -1.
<mgrwt>
<rscale>  0 0.11389428E+03</rscale>
<asrwt>0</asrwt>
<pdfrwt beam="2">  1        3 0.37130854E-01 0.12506297E+03</pdfrwt>
<pdfrwt beam="1">  1       -3 0.72061366E-02 0.12506297E+03</pdfrwt>
<totfact> 0.20505020E+03</totfact>
</mgrwt>
</event>
<event>
 6    1  0.5928109E-006  0.1740018E+03  0.7546771E-02  0.1188540E+00
         -3   -1    0    0    0  501 -0.00000000000E+00  0.00000000000E+00  0.37184701147E+02  0.37184701147E+02  0.00000000000E+00 0.  1.
          3   -1    0    0  501    0  0.00000000000E+00 -0.00000000000E+00 -0.61939991653E+03  0.61939991653E+03  0.00000000000E+00 0. -1.
          5    1    1    2  502    0 -0.17407780926E+02 -0.10082836502E+03 -0.29887616214E+03  0.31594056455E+03  0.47000000000E+01 0. -1.
         -5    1    1    2    0  502 -0.37515046380E+02  0.51962443463E+02 -0.95412194978E+02  0.11503499983E+03  0.47000000000E+01 0.  1.
        -11    1    1    2    0    0 -0.27366487448E+02  0.24579342425E+02 -0.38129131245E+02  0.52980178923E+02  0.00000000000E+00 0.  1.
         11    1    1    2    0    0  0.82289314753E+02  0.24286579132E+02 -0.14979772702E+03  0.17262887438E+03  0.00000000000E+00 0. -1.
<mgrwt>
<rscale>  0 0.16013877E+03</rscale>
<asrwt>0</asrwt>
<pdfrwt beam="2">  1        3 0.95292295E-01 0.17400181E+03</pdfrwt>
<pdfrwt beam="1">  1       -3 0.57207233E-02 0.17400181E+03</pdfrwt>
<totfact> 0.44658793E+02</totfact>
</mgrwt>
</event>
<event>
 7    1  0.6961906E-006  0.1426046E+03  0.7546771E-02  0.1220514E+00
         -1   -1    0    0    0  501 -0.00000000000E+00  0.00000000000E+00  0.35042531040E+03  0.35042531040E+03  0.00000000000E+00 0.  1.
          1   -1    0    0  501    0  0.00000000000E+00 -0.00000000000E+00 -0.47543468952E+02  0.47543468952E+02  0.00000000000E+00 0. -1.
         23    2    1    2    0    0  0.64391300638E+02 -0.23765284828E+02  0.14543381950E+03  0.20368376655E+03  0.12500021016E+03 0.  0.
          5    1    3    3  502    0 -0.31340812257E+01 -0.63620148036E+02  0.70381002171E+02  0.95041681213E+02  0.47000000000E+01 0. -1.
         -5    1    3    3    0  502  0.67525381864E+02  0.39854863208E+02  0.75052817330E+02  0.10864208534E+03  0.47000000000E+01 0. -1.
        -11    1    1    2    0    0 -0.30241549865E+02  0.49151411914E+02  0.13354093885E+03  0.14547712872E+03  0.00000000000E+00 0.  1.
         11    1    1    2    0    0 -0.34149750773E+02 -0.25386127086E+02  0.23907083093E+02  0.48807884080E+02  0.00000000000E+00 0. -1.
<mgrwt>
<rscale>  0 0.13479146E+03</rscale>
<asrwt>0</asrwt>
<pdfrwt beam="2">  1        1 0.73143800E-02 0.14260463E+03</pdfrwt>
<pdfrwt beam="1">  1       -1 0.53911585E-01 0.14260463E+03</pdfrwt>
<totfact> 0.33818362E+03</totfact>
</mgrwt>
</event>
<event>
 7    1  0.5928109E-006  0.1259959E+03  0.7546771E-02  0.1248958E+00
         -4   -1    0    0    0  501 -0.00000000000E+00  0.00000000000E+00  0.64742662462E+02  0.64742662462E+02  0.00000000000E+00 0.  1.
          4   -1    0    0  501    0  0.00000000000E+00 -0.00000000000E+00 -0.20844360613E+03  0.20844360613E+03  0.00000000000E+00 0. -1.
         23    2    1    2    0    0 -0.28188387104E+01  0.15603232057E+02 -0.12819433472E+03  0.17974637232E+03  0.12499425669E+03 0.  0.
          5    1    3    3  502    0  0.42631574725E+02  0.22683170591E+02 -0.12419475200E+03  0.13333568096E+03  0.47000000000E+01 0. -1.
         -5    1    3    3    0  502 -0.45450413436E+02 -0.70799385339E+01 -0.39995827200E+01  0.46410691366E+02  0.47000000000E+01 0. -1.
        -11    1    1    2    0    0  0.20804474244E+02 -0.12811856140E+02  0.33327486306E+02  0.41324219893E+02  0.00000000000E+00 0.  1.
         11    1    1    2    0    0 -0.17985635533E+02 -0.27913759170E+01 -0.48834095257E+02  0.52115676381E+02  0.00000000000E+00 0. -1.
<mgrwt>
<rscale>  0 0.11651568E+03</rscale>
<asrwt>0</asrwt>
<pdfrwt beam="2">  1        4 0.32068248E-01 0.12599592E+03</pdfrwt>
<pdfrwt beam="1">  1       -4 0.99604094E-02 0.12599592E+03</pdfrwt>
<totfact> 0.11604576E+03</totfact>
</mgrwt>
</event>
<event>
 7    1  0.5928109E-006  0.1922034E+03  0.7546771E-02  0.1161304E+00
          2   -1    0    0  501    0  0.00000000000E+00  0.00000000000E+00  0.16897340664E+03  0.16897340664E+03  0.00000000000E+00 0.  1.
         -2   -1    0    0    0  501 -0.00000000000E+00 -0.00000000000E+00 -0.24223413455E+03  0.24223413455E+03  0.00000000000E+00 0. -1.
         23    2    1    2    0    0 -0.76327209663E+02  0.12444025458E+03  0.51398919620E+02  0.19895723406E+03  0.12502364637E+03 0.  0.
          5    1    3    3  502    0 -0.80517094479E+02  0.16387919410E+02  0.93139098420E+01  0.82827563784E+02  0.47000000000E+01 0.  1.
         -5    1    3    3    0  502  0.41898848154E+01  0.10805233517E+03  0.42085009778E+02  0.11612967027E+03  0.47000000000E+01 0.  1.
        -11    1    1    2    0    0 -0.34908155514E+01 -0.77361135791E+02 -0.42122510098E+02  0.88154619738E+02  0.00000000000E+00 0.  1.
         11    1    1    2    0    0  0.79818025215E+02 -0.47079118787E+02 -0.82537137435E+02  0.12409568740E+03  0.00000000000E+00 0. -1.
<mgrwt>
<rscale>  0 0.18688188E+03</rscale>
<asrwt>0</asrwt>
<pdfrwt beam="1">  1        2 0.25995909E-01 0.19220336E+03</pdfrwt>
<pdfrwt beam="2">  1       -2 0.37266790E-01 0.19220336E+03</pdfrwt>
<totfact> 0.13905503E+03</totfact>
</mgrwt>
</event>
<event>
 7    1  0.5928109E-006  0.2587523E+03  0.7546771E-02  0.1110081E+00
         -1   -1    0    0    0  501 -0.00000000000E+00  0.00000000000E+00  0.30311139280E+03  0.30311139280E+03  0.00000000000E+00 0.  1.
          1   -1    0    0  501    0  0.00000000000E+00 -0.00000000000E+00 -0.20909935791E+03  0.20909935791E+03  0.00000000000E+00 0. -1.
         23    2    1    2    0    0  0.16026557510E+03  0.16013786780E+03  0.44879764829E+02  0.26261561646E+03  0.12499430969E+03 0.  0.
          5    1    3    3  502    0  0.29937297848E+02  0.33953850422E+02 -0.41543930188E+02  0.61620563908E+02  0.47000000000E+01 0. -1.
         -5    1    3    3    0  502  0.13032827725E+03  0.12618401737E+03  0.86423695017E+02  0.20099505255E+03  0.47000000000E+01 0. -1.
        -11    1    1    2    0    0 -0.74236452372E+02 -0.12613864521E+03  0.56292259929E+02  0.15681462688E+03  0.00000000000E+00 0.  1.
         11    1    1    2    0    0 -0.86029122723E+02 -0.33999222585E+02 -0.71599898700E+01  0.92780507370E+02  0.00000000000E+00 0. -1.
<mgrwt>
<rscale>  0 0.25516836E+03</rscale>
<asrwt>0</asrwt>
<pdfrwt beam="2">  1        1 0.32169132E-01 0.25875233E+03</pdfrwt>
<pdfrwt beam="1">  1       -1 0.46632522E-01 0.25875233E+03</pdfrwt>
<totfact> 0.64959925E+02</totfact>
</mgrwt>
</event>
<event>
 7    1  0.5928109E-006  0.1271615E+03  0.7546771E-02  0.1260907E+00
         -2   -1    0    0    0  501 -0.00000000000E+00  0.00000000000E+00  0.20020215245E+03  0.20020215245E+03  0.00000000000E+00 0.  1.
          2   -1    0    0  501    0  0.00000000000E+00 -0.00000000000E+00 -0.50444566718E+02  0.50444566718E+02  0.00000000000E+00 0. -1.
         23    2    1    2    0    0  0.36855150792E+02 -0.74177025370E+01  0.74556778275E+02  0.14740674350E+03  0.12147720112E+03 0.  0.
          5    1    3    3  502    0 -0.16207594187E+02 -0.46910380877E+02  0.31429054118E+01  0.49952355277E+02  0.47000000000E+01 0. -1.
         -5    1    3    3    0  502  0.53062744980E+02  0.39492678340E+02  0.71413872863E+02  0.97454388226E+02  0.47000000000E+01 0.  1.
        -11    1    1    2    0    0  0.14581546110E+02  0.65212710382E+01  0.61143998836E+01  0.17103635545E+02  0.00000000000E+00 0. -1.
         11    1    1    2    0    0 -0.51436696903E+02  0.89643149883E+00  0.69086407573E+02  0.86136340119E+02  0.00000000000E+00 0.  1.
<mgrwt>
<rscale>  0 0.10981812E+03</rscale>
<asrwt>0</asrwt>
<pdfrwt beam="2">  1        2 0.77607027E-02 0.12716145E+03</pdfrwt>
<pdfrwt beam="1">  1       -2 0.30800331E-01 0.12716145E+03</pdfrwt>
<totfact> 0.80667752E+03</totfact>
</mgrwt>
</event>
<event>
 7    1  0.6111469E-006  0.2769392E+03  0.7546771E-02  0.1099272E+00
          1   -1    0    0  501    0  0.00000000000E+00  0.00000000000E+00  0.13675337777E+04  0.13675337777E+04  0.00000000000E+00 0. -1.
         -1   -1    0    0    0  501 -0.00000000000E+00 -0.00000000000E+00 -0.76142687851E+02  0.76142687851E+02  0.00000000000E+00 0.  1.
         23    2    1    2    0    0  0.24543403845E+03 -0.28841930191E+02  0.10512077627E+04  0.10870754687E+04  0.12500236075E+03 0.  0.
          5    1    3    3  502    0  0.89412258359E+01 -0.23574447990E+02  0.33296913290E+02  0.42029448630E+02  0.47000000000E+01 0. -1.
         -5    1    3    3    0  502  0.23649281261E+03 -0.52674822010E+01  0.10179108494E+04  0.10450460201E+04  0.47000000000E+01 0. -1.
        -11    1    1    2    0    0 -0.68524479209E+02  0.47751693038E+02  0.98627291727E+02  0.12924074865E+03  0.00000000000E+00 0.  1.
         11    1    1    2    0    0 -0.17690955924E+03 -0.18909762846E+02  0.14155603542E+03  0.22736024816E+03  0.00000000000E+00 0. -1.
<mgrwt>
<rscale>  0 0.27353812E+03</rscale>
<asrwt>0</asrwt>
<pdfrwt beam="1">  1        1 0.21038979E+00 0.27693919E+03</pdfrwt>
<pdfrwt beam="2">  1       -1 0.11714261E-01 0.27693919E+03</pdfrwt>
<totfact> 0.41890759E+02</totfact>
</mgrwt>
</event>
<event>
 7    1  0.5928109E-006  0.1316851E+03  0.7546771E-02  0.1237498E+00
          2   -1    0    0  501    0  0.00000000000E+00  0.00000000000E+00  0.17352931446E+04  0.17352931446E+04  0.00000000000E+00 0. -1.
         -2   -1    0    0    0  501 -0.00000000000E+00 -0.00000000000E+00 -0.12356359593E+02  0.12356359593E+02  0.00000000000E+00 0.  1.
         23    2    1    2    0    0  0.37167979650E+02  0.18244780648E+02  0.14566501460E+04  0.14625903782E+04  0.12500654331E+03 0.  0.
          5    1    3    3  502    0  0.63311317308E+02 -0.10879007859E+02  0.39568399739E+03  0.40089224425E+03  0.47000000000E+01 0. -1.
         -5    1    3    3    0  502 -0.26143337658E+02  0.29123788507E+02  0.10609661486E+04  0.10616981340E+04  0.47000000000E+01 0. -1.
        -11    1    1    2    0    0 -0.28363858368E+02 -0.33806735781E+02  0.26325018725E+03  0.26692333157E+03  0.00000000000E+00 0. -1.
         11    1    1    2    0    0 -0.88041212816E+01  0.15561955133E+02  0.30364517335E+01  0.18135794392E+02  0.00000000000E+00 0.  1.
<mgrwt>
<rscale>  0 0.12345842E+03</rscale>
<asrwt>0</asrwt>
<pdfrwt beam="1">  1        2 0.26696798E+00 0.13168510E+03</pdfrwt>
<pdfrwt beam="2">  1       -2 0.19009798E-02 0.13168510E+03</pdfrwt>
<totfact> 0.83620702E+03</totfact>
</mgrwt>
</event>
<event>
 7    1  0.5928109E-006  0.1327239E+03  0.7546771E-02  0.1235724E+00
         -1   -1    0    0    0  501 -0.00000000000E+00  0.00000000000E+00  0.91844580854E+02  0.91844580854E+02  0.00000000000E+00 0.  1.
          1   -1    0    0  501    0  0.00000000000E+00 -0.00000000000E+00 -0.18182520520E+03  0.18182520520E+03  0.00000000000E+00 0. -1.
         23    2    1    2    0    0 -0.36131890401E+02 -0.26182265076E+02 -0.10540853147E+03  0.16948923408E+03  0.12499846981E+03 0.  0.
          5    1    3    3  502    0  0.18240276851E+02 -0.29129069539E+02 -0.10932334004E+03  0.11469478222E+03  0.47000000000E+01 0.  1.
         -5    1    3    3    0  502 -0.54372167252E+02  0.29468044639E+01  0.39148085704E+01  0.54794451857E+02  0.47000000000E+01 0.  1.
        -11    1    1    2    0    0  0.33128563060E+02  0.53898139850E+02 -0.12755508815E+02  0.64538470503E+02  0.00000000000E+00 0. -1.
         11    1    1    2    0    0  0.30033273408E+01 -0.27715874775E+02  0.28183415936E+02  0.39642081472E+02  0.00000000000E+00 0.  1.
<mgrwt>
<rscale>  0 0.12458186E+03</rscale>
<asrwt>0</asrwt>
<pdfrwt beam="2">  1        1 0.27973108E-01 0.13272393E+03</pdfrwt>
<pdfrwt beam="1">  1       -1 0.14129936E-01 0.13272393E+03</pdfrwt>
<totfact> 0.55778895E+03</totfact>
</mgrwt>
</event>
<event>
 7    1  0.5928109E-006  0.1646809E+03  0.7546771E-02  0.1190549E+00
         -2   -1    0    0    0  501 -0.00000000000E+00  0.00000000000E+00  0.47460113438E+02  0.47460113438E+02  0.00000000000E+00 0. -1.
          2   -1    0    0  501    0  0.00000000000E+00 -0.00000000000E+00 -0.55543845015E+03  0.55543845015E+03  0.00000000000E+00 0.  1.
         23    2    1    2    0    0 -0.10720438749E+03  0.15651977990E+01 -0.37333885633E+03  0.40804620907E+03  0.12499830619E+03 0.  0.
          5    1    3    3  502    0 -0.11825192945E+01 -0.16623575433E+02 -0.21999386782E+03  0.22067427011E+03  0.47000000000E+01 0. -1.
         -5    1    3    3    0  502 -0.10602186819E+03  0.18188773232E+02 -0.15334498851E+03  0.18737193896E+03  0.47000000000E+01 0. -1.
        -11    1    1    2    0    0  0.50435222676E+02 -0.34497540752E+02 -0.10786653328E+03  0.12397169437E+03  0.00000000000E+00 0.  1.
         11    1    1    2    0    0  0.56769164812E+02  0.32932342953E+02 -0.26772947102E+02  0.70880660143E+02  0.00000000000E+00 0. -1.
<mgrwt>
<rscale>  0 0.15837048E+03</rscale>
<asrwt>0</asrwt>
<pdfrwt beam="2">  1        2 0.85452069E-01 0.16468093E+03</pdfrwt>
<pdfrwt beam="1">  1       -2 0.73015559E-02 0.16468093E+03</pdfrwt>
<totfact> 0.58590200E+03</totfact>
</mgrwt>
</event>
<event>
 7    1  0.5928109E-006  0.3751245E+03  0.7546771E-02  0.1054027E+00
         -1   -1    0    0    0  501 -0.00000000000E+00  0.00000000000E+00  0.13354964989E+03  0.13354964989E+03  0.00000000000E+00 0.  1.
          1   -1    0    0  501    0  0.00000000000E+00 -0.00000000000E+00 -0.10199050476E+04  0.10199050476E+04  0.00000000000E+00 0. -1.
         23    2    1    2    0    0 -0.29483216137E+03 -0.19536540083E+03 -0.48413339022E+03  0.61245697593E+03  0.12499905845E+03 0.  0.
          5    1    3    3  502    0 -0.19394494614E+03 -0.19284736134E+03 -0.33848723873E+03  0.43520161729E+03  0.47000000000E+01 0. -1.
         -5    1    3    3    0  502 -0.10088721523E+03 -0.25180394838E+01 -0.14564615149E+03  0.17725535863E+03  0.47000000000E+01 0. -1.
        -11    1    1    2    0    0  0.23029102276E+03  0.15583516835E+03 -0.26407215830E+03  0.38347445763E+03  0.00000000000E+00 0.  1.
         11    1    1    2    0    0  0.64541138613E+02  0.39530232473E+02 -0.13814984921E+03  0.15752326397E+03  0.00000000000E+00 0. -1.
<mgrwt>
<rscale>  0 0.37174693E+03</rscale>
<asrwt>0</asrwt>
<pdfrwt beam="2">  1        1 0.15690847E+00 0.37512452E+03</pdfrwt>
<pdfrwt beam="1">  1       -1 0.20546100E-01 0.37512452E+03</pdfrwt>
<totfact> 0.29660551E+02</totfact>
</mgrwt>
</event>
<event>
 7    1  0.5928109E-006  0.1349561E+03  0.7546771E-02  0.1234456E+00
         -3   -1    0    0    0  501 -0.00000000000E+00  0.00000000000E+00  0.19659240696E+03  0.19659240696E+03  0.00000000000E+00 0.  1.
          3   -1    0    0  501    0  0.00000000000E+00 -0.00000000000E+00 -0.96683891197E+02  0.96683891197E+02  0.00000000000E+00 0. -1.
         23    2    1    2    0    0  0.97960102039E+01  0.49910585659E+02 -0.20369774306E+02  0.13648472595E+03  0.12500449726E+03 0.  0.
          5    1    3    3  502    0  0.24935392014E+02  0.89087409616E+02 -0.15919428852E+02  0.93988608575E+02  0.47000000000E+01 0. -1.
         -5    1    3    3    0  502 -0.15139381810E+02 -0.39176823957E+02 -0.44503454546E+01  0.42496117371E+02  0.47000000000E+01 0. -1.
        -11    1    1    2    0    0  0.37599837571E+02 -0.10771178367E+02  0.46269246232E+02  0.60585552863E+02  0.00000000000E+00 0.  1.
         11    1    1    2    0    0 -0.47395847775E+02 -0.39139407291E+02  0.74009043841E+02  0.96206019352E+02  0.00000000000E+00 0. -1.
<mgrwt>
<rscale>  0 0.12539333E+03</rscale>
<asrwt>0</asrwt>
<pdfrwt beam="2">  1        3 0.14874445E-01 0.13495611E+03</pdfrwt>
<pdfrwt beam="1">  1       -3 0.30244986E-01 0.13495611E+03</pdfrwt>
<totfact> 0.91815764E+02</totfact>
</mgrwt>
</event>
<event>
 7    1  0.5928109E-006  0.1462358E+03  0.7546771E-02  0.1213268E+00
          1   -1    0    0  501    0  0.00000000000E+00  0.00000000000E+00  0.34203540198E+03  0.34203540198E+03  0.00000000000E+00 0. -1.
         -1   -1    0    0    0  501 -0.00000000000E+00 -0.00000000000E+00 -0.53067515092E+02  0.53067515092E+02  0.00000000000E+00 0.  1.
         23    2    1    2    0    0 -0.42622526556E+02 -0.62800391141E+02  0.14910453863E+03  0.20884702651E+03  0.12499739256E+03 0.  0.
          5    1    3    3  502    0 -0.37767958011E+01 -0.93555740033E+02  0.77449993007E+02  0.12160399704E+03  0.47000000000E+01 0.  1.
         -5    1    3    3    0  502 -0.38845730755E+02  0.30755348892E+02  0.71654545621E+02  0.87243029472E+02  0.47000000000E+01 0.  1.
        -11    1    1    2    0    0  0.41871335422E+02  0.19153781588E+02  0.72110478732E+01  0.46605528541E+02  0.00000000000E+00 0.  1.
         11    1    1    2    0    0  0.75119113321E+00  0.43646609553E+02  0.13265230039E+03  0.13965036202E+03  0.00000000000E+00 0. -1.
<mgrwt>
<rscale>  0 0.14004526E+03</rscale>
<asrwt>0</asrwt>
<pdfrwt beam="1">  1        1 0.52620830E-01 0.14623583E+03</pdfrwt>
<pdfrwt beam="2">  1       -1 0.81642333E-02 0.14623583E+03</pdfrwt>
<totfact> 0.59445190E+03</totfact>
</mgrwt>
</event>
<event>
 7    1  0.5928109E-006  0.1265408E+03  0.7546771E-02  0.1247520E+00
          3   -1    0    0  501    0  0.00000000000E+00  0.00000000000E+00  0.56347427269E+02  0.56347427269E+02  0.00000000000E+00 0. -1.
         -3   -1    0    0    0  501 -0.00000000000E+00 -0.00000000000E+00 -0.21586832819E+03  0.21586832819E+03  0.00000000000E+00 0.  1.
         23    2    1    2    0    0 -0.19613587265E+02 -0.29105119701E+01 -0.99934454477E+02  0.16124347713E+03  0.12497759735E+03 0.  0.
          5    1    3    3  502    0 -0.27069441416E+02 -0.59645407555E+02 -0.71811806721E+02  0.97310610344E+02  0.47000000000E+01 0. -1.
         -5    1    3    3    0  502  0.74558541512E+01  0.56734895585E+02 -0.28122647756E+02  0.63932866782E+02  0.47000000000E+01 0. -1.
        -11    1    1    2    0    0  0.11330403212E+02 -0.17279451742E+02 -0.79065101748E+02  0.81720547011E+02  0.00000000000E+00 0.  1.
         11    1    1    2    0    0  0.82831840531E+01  0.20189963712E+02  0.19478655305E+02  0.29251731320E+02  0.00000000000E+00 0. -1.
<mgrwt>
<rscale>  0 0.11735794E+03</rscale>
<asrwt>0</asrwt>
<pdfrwt beam="1">  1        3 0.86688349E-02 0.12654076E+03</pdfrwt>
<pdfrwt beam="2">  1       -3 0.33210512E-01 0.12654076E+03</pdfrwt>
<totfact> 0.18788163E+03</totfact>
</mgrwt>
</event>
<event>
 7    1  0.5928109E-006  0.1264317E+03  0.7546771E-02  0.1244259E+00
         -2   -1    0    0    0  501 -0.00000000000E+00  0.00000000000E+00  0.67969714815E+03  0.67969714815E+03  0.00000000000E+00 0.  1.
          2   -1    0    0  501    0  0.00000000000E+00 -0.00000000000E+00 -0.28098294028E+02  0.28098294028E+02  0.00000000000E+00 0. -1.
         23    2    1    2    0    0 -0.18187628385E+01 -0.18892715853E+02  0.14951036384E+03  0.19580171722E+03  0.12499888383E+03 0.  0.
          5    1    3    3  502    0 -0.47573237493E+02 -0.16148869169E+02  0.13550992927E+02  0.52246706214E+02  0.47000000000E+01 0.  1.
         -5    1    3    3    0  502  0.45754474654E+02 -0.27438466848E+01  0.13595937091E+03  0.14355501100E+03  0.47000000000E+01 0.  1.
        -11    1    1    2    0    0 -0.30892633896E+02 -0.28724322530E+02  0.23064044092E+03  0.23446631852E+03  0.00000000000E+00 0.  1.
         11    1    1    2    0    0  0.32711396734E+02  0.47617038384E+02  0.27144804937E+03  0.27752740644E+03  0.00000000000E+00 0. -1.
<mgrwt>
<rscale>  0 0.11929826E+03</rscale>
<asrwt>0</asrwt>
<pdfrwt beam="2">  1        2 0.43228150E-02 0.12643166E+03</pdfrwt>
<pdfrwt beam="1">  1       -2 0.10456878E+00 0.12643166E+03</pdfrwt>
<totfact> 0.14167787E+03</totfact>
</mgrwt>
</event>
<event>
 7    1  0.5928109E-006  0.2514947E+03  0.7546771E-02  0.1114766E+00
          4   -1    0    0  501    0  0.00000000000E+00  0.00000000000E+00  0.15780991804E+03  0.15780991804E+03  0.00000000000E+00 0. -1.
         -4   -1    0    0    0  501 -0.00000000000E+00 -0.00000000000E+00 -0.38726321984E+03  0.38726321984E+03  0.00000000000E+00 0.  1.
         23    2    1    2    0    0  0.69720553538E+02 -0.20677743573E+03 -0.74883968669E+02  0.26240650179E+03  0.12502679675E+03 0.  0.
          5    1    3    3  502    0  0.43378247221E+02 -0.21620239198E+03 -0.77815872693E+02  0.23388575560E+03  0.47000000000E+01 0. -1.
         -5    1    3    3    0  502  0.26342306317E+02  0.94249562452E+01  0.29319040241E+01  0.28520746195E+02  0.47000000000E+01 0. -1.
        -11    1    1    2    0    0 -0.37764671438E+02  0.12703330446E+03 -0.14465880947E+03  0.19618818009E+03  0.00000000000E+00 0. -1.
         11    1    1    2    0    0 -0.31955882100E+02  0.79744131276E+02 -0.99105236609E+01  0.86478456004E+02  0.00000000000E+00 0.  1.
<mgrwt>
<rscale>  0 0.24770146E+03</rscale>
<asrwt>0</asrwt>
<pdfrwt beam="1">  1        4 0.24278449E-01 0.25149466E+03</pdfrwt>
<pdfrwt beam="2">  1       -4 0.59578957E-01 0.25149466E+03</pdfrwt>
<totfact> 0.77840713E+01</totfact>
</mgrwt>
</event>
<event>
 7    1  0.5928109E-006  0.1801061E+03  0.7546771E-02  0.1173820E+00
         -2   -1    0    0    0  501 -0.00000000000E+00  0.00000000000E+00  0.33810723682E+02  0.33810723682E+02  0.00000000000E+00 0.  1.
          2   -1    0    0  501    0  0.00000000000E+00 -0.00000000000E+00 -0.87385128427E+03  0.87385128427E+03  0.00000000000E+00 0. -1.
         23    2    1    2    0    0 -0.69137899461E+02 -0.10969359384E+03 -0.53943745956E+03  0.56870993556E+03  0.12500193739E+03 0.  0.
          5    1    3    3  502    0 -0.91524329294E+02 -0.11099352329E+03 -0.35832940381E+03  0.38615840881E+03  0.47000000000E+01 0. -1.
         -5    1    3    3    0  502  0.22386429834E+02  0.12999294488E+01 -0.18110805576E+03  0.18255152675E+03  0.47000000000E+01 0. -1.
        -11    1    1    2    0    0  0.63375300588E+02  0.25682750684E+02 -0.97549817347E+02  0.11913017784E+03  0.00000000000E+00 0.  1.
         11    1    1    2    0    0  0.57625988727E+01  0.84010843155E+02 -0.20305328367E+03  0.21982189455E+03  0.00000000000E+00 0. -1.
<mgrwt>
<rscale>  0 0.17392032E+03</rscale>
<asrwt>0</asrwt>
<pdfrwt beam="2">  1        2 0.13443865E+00 0.18010613E+03</pdfrwt>
<pdfrwt beam="1">  1       -2 0.52016501E-02 0.18010613E+03</pdfrwt>
<totfact> 0.57246243E+03</totfact>
</mgrwt>
</event>
<event>
 7    1  0.5928109E-006  0.1333831E+03  0.7546771E-02  0.1234658E+00
         -2   -1    0    0    0  501 -0.00000000000E+00  0.00000000000E+00  0.11543580905E+02  0.11543580905E+02  0.00000000000E+00 0.  1.
          2   -1    0    0  501    0  0.00000000000E+00 -0.00000000000E+00 -0.17509030926E+04  0.17509030926E+04  0.00000000000E+00 0. -1.
         23    2    1    2    0    0  0.42135452646E+02 -0.19441092943E+02 -0.14288453796E+04  0.14350575453E+04  0.12505073755E+03 0.  0.
          5    1    3    3  502    0  0.79889450564E+02  0.59951763757E+01 -0.66178697943E+03  0.66663510453E+03  0.47000000000E+01 0.  1.
         -5    1    3    3    0  502 -0.37753997918E+02 -0.25436269318E+02 -0.76705840021E+03  0.76842244078E+03  0.47000000000E+01 0.  1.
        -11    1    1    2    0    0 -0.24072064609E+02 -0.31831191489E+02 -0.20331004244E+03  0.20718991868E+03  0.00000000000E+00 0.  1.
         11    1    1    2    0    0 -0.18063388037E+02  0.51272284432E+02 -0.10720408962E+03  0.12019920952E+03  0.00000000000E+00 0. -1.
<mgrwt>
<rscale>  0 0.12526372E+03</rscale>
<asrwt>0</asrwt>
<pdfrwt beam="2">  1        2 0.26936974E+00 0.13338306E+03</pdfrwt>
<pdfrwt beam="1">  1       -2 0.17759353E-02 0.13338306E+03</pdfrwt>
<totfact> 0.90637462E+03</totfact>
</mgrwt>
</event>
<event>
 7    1  0.5928109E-006  0.2025751E+03  0.7546771E-02  0.1151505E+00
          1   -1    0    0  501    0  0.00000000000E+00  0.00000000000E+00  0.11502834198E+04  0.11502834198E+04  0.00000000000E+00 0. -1.
         -1   -1    0    0    0  501 -0.00000000000E+00 -0.00000000000E+00 -0.32654028986E+02  0.32654028986E+02  0.00000000000E+00 0.  1.
         23    2    1    2    0    0  0.10527026568E+02 -0.15906557492E+03  0.55629251884E+03  0.59202875608E+03  0.12499602434E+03 0.  0.
          5    1    3    3  502    0  0.45073796637E+02 -0.10385363858E+03  0.47195626488E+03  0.48536793400E+03  0.47000000000E+01 0.  1.
         -5    1    3    3    0  502 -0.34546770069E+02 -0.55211936344E+02  0.84336253955E+02  0.10666082209E+03  0.47000000000E+01 0.  1.
        -11    1    1    2    0    0 -0.42302783276E+02  0.34384597599E+02  0.20216809961E+03  0.20938903153E+03  0.00000000000E+00 0.  1.
         11    1    1    2    0    0  0.31775756708E+02  0.12468097732E+03  0.35916877239E+03  0.38151966120E+03  0.00000000000E+00 0. -1.
<mgrwt>
<rscale>  0 0.19792127E+03</rscale>
<asrwt>0</asrwt>
<pdfrwt beam="1">  1        1 0.17696665E+00 0.20257513E+03</pdfrwt>
<pdfrwt beam="2">  1       -1 0.50236976E-02 0.20257513E+03</pdfrwt>
<totfact> 0.21645675E+03</totfact>
</mgrwt>
</event>
<event>
 7    1  0.5928109E-006  0.1680202E+03  0.7546771E-02  0.1185961E+00
         -1   -1    0    0    0  501 -0.00000000000E+00  0.00000000000E+00  0.80805627956E+02  0.80805627956E+02  0.00000000000E+00 0.  1.
          1   -1    0    0  501    0  0.00000000000E+00 -0.00000000000E+00 -0.35137066007E+03  0.35137066007E+03  0.00000000000E+00 0. -1.
         23    2    1    2    0    0 -0.49009207806E+02  0.10101938666E+03 -0.22016496782E+03  0.27695376397E+03  0.12499582149E+03 0.  0.
          5    1    3    3  502    0  0.12273131713E+02  0.44578718434E+02 -0.56962572072E+01  0.46823383533E+02  0.47000000000E+01 0. -1.
         -5    1    3    3    0  502 -0.61282339520E+02  0.56440668228E+02 -0.21446871061E+03  0.23013038043E+03  0.47000000000E+01 0. -1.
        -11    1    1    2    0    0  0.28638630033E+02 -0.81259349048E+02  0.11695969048E+02  0.86948540124E+02  0.00000000000E+00 0.  1.
         11    1    1    2    0    0  0.20370577774E+02 -0.19760037614E+02 -0.62096033345E+02  0.68273983936E+02  0.00000000000E+00 0. -1.
<mgrwt>
<rscale>  0 0.16244700E+03</rscale>
<asrwt>0</asrwt>
<pdfrwt beam="2">  1        1 0.54057025E-01 0.16802016E+03</pdfrwt>
<pdfrwt beam="1">  1       -1 0.12431635E-01 0.16802016E+03</pdfrwt>
<totfact> 0.30374732E+03</totfact>
</mgrwt>
</event>
<event>
 7    1  0.5928109E-006  0.1374898E+03  0.7546771E-02  0.1229851E+00
         -1   -1    0    0    0  501 -0.00000000000E+00  0.00000000000E+00  0.16965235580E+02  0.16965235580E+02  0.00000000000E+00 0.  1.
          1   -1    0    0  501    0  0.00000000000E+00 -0.00000000000E+00 -0.10058897849E+04  0.10058897849E+04  0.00000000000E+00 0. -1.
         23    2    1    2    0    0  0.52816752253E+02  0.22138782172E+02 -0.74307804532E+03  0.75569069163E+03  0.12499481981E+03 0.  0.
          5    1    3    3  502    0  0.89637849842E+02  0.87936404808E+01 -0.38385016098E+03  0.39430357381E+03  0.47000000000E+01 0.  1.
         -5    1    3    3    0  502 -0.36821097589E+02  0.13345141691E+02 -0.35922788434E+03  0.36138711781E+03  0.47000000000E+01 0.  1.
        -11    1    1    2    0    0 -0.38746102325E+02  0.27427760601E+02 -0.16143288520E+03  0.16826799731E+03  0.00000000000E+00 0. -1.
         11    1    1    2    0    0 -0.14070649928E+02 -0.49566542774E+02 -0.84413618788E+02  0.98896331524E+02  0.00000000000E+00 0.  1.
<mgrwt>
<rscale>  0 0.12839896E+03</rscale>
<asrwt>0</asrwt>
<pdfrwt beam="2">  1        1 0.15475234E+00 0.13748978E+03</pdfrwt>
<pdfrwt beam="1">  1       -1 0.26100352E-02 0.13748978E+03</pdfrwt>
<totfact> 0.71223007E+03</totfact>
</mgrwt>
</event>
<event>
 7    1  0.5928109E-006  0.1549954E+03  0.7546771E-02  0.1202519E+00
         -2   -1    0    0    0  501 -0.00000000000E+00  0.00000000000E+00  0.37470898598E+02  0.37470898598E+02  0.00000000000E+00 0.  1.
          2   -1    0    0  501    0  0.00000000000E+00 -0.00000000000E+00 -0.87144404021E+03  0.87144404021E+03  0.00000000000E+00 0. -1.
         23    2    1    2    0    0 -0.91093984900E+02 -0.98259878965E+01 -0.71837208848E+03  0.73490273564E+03  0.12501563596E+03 0.  0.
          5    1    3    3  502    0 -0.86905071410E+02 -0.47227496055E+02 -0.64242868287E+03  0.65001510012E+03  0.47000000000E+01 0. -1.
         -5    1    3    3    0  502 -0.41889134902E+01  0.37401508158E+02 -0.75943405610E+02  0.84887635521E+02  0.47000000000E+01 0. -1.
        -11    1    1    2    0    0 -0.24201939363E+01  0.26190976342E+02 -0.26084676414E+01  0.26431584967E+02  0.00000000000E+00 0.  1.
         11    1    1    2    0    0  0.93514178836E+02 -0.16364988446E+02 -0.11299258550E+03  0.14758061820E+03  0.00000000000E+00 0. -1.
<mgrwt>
<rscale>  0 0.14834687E+03</rscale>
<asrwt>0</asrwt>
<pdfrwt beam="2">  1        2 0.13406830E+00 0.15499540E+03</pdfrwt>
<pdfrwt beam="1">  1       -2 0.57647543E-02 0.15499540E+03</pdfrwt>
<totfact> 0.48880270E+03</totfact>
</mgrwt>
</event>
<event>
 7    1  0.5928109E-006  0.1563383E+03  0.7546771E-02  0.1201518E+00
          1   -1    0    0  501    0  0.00000000000E+00  0.00000000000E+00  0.20329550185E+03  0.20329550185E+03  0.00000000000E+00 0. -1.
         -1   -1    0    0    0  501 -0.00000000000E+00 -0.00000000000E+00 -0.11021896958E+03  0.11021896958E+03  0.00000000000E+00 0.  1.
         23    2    1    2    0    0 -0.78068210331E+01 -0.93586235038E+02  0.96913815716E+02  0.18394004761E+03  0.12498929392E+03 0.  0.
          5    1    3    3  502    0 -0.28655935006E+02 -0.37369131866E+01 -0.19621543752E+02  0.35245171448E+02  0.47000000000E+01 0. -1.
         -5    1    3    3    0  502  0.20849113973E+02 -0.89849321852E+02  0.11653535947E+03  0.14869487616E+03  0.47000000000E+01 0. -1.
        -11    1    1    2    0    0  0.39973639133E+02  0.29016643605E+02 -0.23650042033E+02  0.54764787225E+02  0.00000000000E+00 0.  1.
         11    1    1    2    0    0 -0.32166818100E+02  0.64569591433E+02  0.19812758580E+02  0.74809636592E+02  0.00000000000E+00 0. -1.
<mgrwt>
<rscale>  0 0.14915271E+03</rscale>
<asrwt>0</asrwt>
<pdfrwt beam="1">  1        1 0.31276231E-01 0.15633827E+03</pdfrwt>
<pdfrwt beam="2">  1       -1 0.16956765E-01 0.15633827E+03</pdfrwt>
<totfact> 0.36765173E+03</totfact>
</mgrwt>
</event>
<event>
 7    1  0.5928109E-006  0.1155759E+03  0.7546771E-02  0.1260650E+00
         -3   -1    0    0    0  501 -0.00000000000E+00  0.00000000000E+00  0.11038292497E+03  0.11038292497E+03  0.00000000000E+00 0.  1.
          3   -1    0    0  501    0  0.00000000000E+00 -0.00000000000E+00 -0.11347830979E+03  0.11347830979E+03  0.00000000000E+00 0. -1.
         23    2    1    2    0    0 -0.91715380069E+01  0.26974398118E+02 -0.39907204189E+02  0.12227170859E+03  0.11200915370E+03 0.  0.
          5    1    3    3  502    0 -0.41762958211E+02 -0.61184152902E+00 -0.61266218889E+02  0.74297769855E+02  0.47000000000E+01 0. -1.
         -5    1    3    3    0  502  0.32591420204E+02  0.27586239647E+02  0.21359014700E+02  0.47973938734E+02  0.47000000000E+01 0.  1.
        -11    1    1    2    0    0  0.49463966615E+02 -0.17330984511E+02  0.13805397630E+02  0.54199963294E+02  0.00000000000E+00 0.  1.
         11    1    1    2    0    0 -0.40292428608E+02 -0.96434136072E+01  0.23006421736E+02  0.47389562883E+02  0.00000000000E+00 0. -1.
<mgrwt>
<rscale>  0 0.10995656E+03</rscale>
<asrwt>0</asrwt>
<pdfrwt beam="2">  1        3 0.17458201E-01 0.11557589E+03</pdfrwt>
<pdfrwt beam="1">  1       -3 0.16981989E-01 0.11557589E+03</pdfrwt>
<totfact> 0.19017064E+03</totfact>
</mgrwt>
</event>
<event>
 7    1  0.5928109E-006  0.1395707E+03  0.7546771E-02  0.1223877E+00
         -1   -1    0    0    0  501 -0.00000000000E+00  0.00000000000E+00  0.87027244832E+02  0.87027244832E+02  0.00000000000E+00 0. -1.
          1   -1    0    0  501    0  0.00000000000E+00 -0.00000000000E+00 -0.24342518572E+03  0.24342518572E+03  0.00000000000E+00 0.  1.
         23    2    1    2    0    0 -0.58486824908E+02  0.20859840571E+02 -0.16600338093E+03  0.21688037048E+03  0.12499652387E+03 0.  0.
          5    1    3    3  502    0  0.20507187953E+02  0.17435581791E+02 -0.12448929044E+03  0.12745280579E+03  0.47000000000E+01 0.  1.
         -5    1    3    3    0  502 -0.78994012861E+02  0.34242587807E+01 -0.41514090495E+02  0.89427564687E+02  0.47000000000E+01 0.  1.
        -11    1    1    2    0    0 -0.17875706041E+02  0.18534995219E+02  0.10058826102E+02  0.27645377494E+02  0.00000000000E+00 0. -1.
         11    1    1    2    0    0  0.76362530949E+02 -0.39394835790E+02 -0.45338605268E+00  0.85926682577E+02  0.00000000000E+00 0.  1.
<mgrwt>
<rscale>  0 0.13244141E+03</rscale>
<asrwt>0</asrwt>
<pdfrwt beam="2">  1        1 0.37450028E-01 0.13957067E+03</pdfrwt>
<pdfrwt beam="1">  1       -1 0.13388807E-01 0.13957067E+03</pdfrwt>
<totfact> 0.42353188E+03</totfact>
</mgrwt>
</event>
<event>
 7    1  0.5928109E-006  0.2338772E+03  0.7546771E-02  0.1127024E+00
         -1   -1    0    0    0  501 -0.00000000000E+00  0.00000000000E+00  0.33407010768E+03  0.33407010768E+03  0.00000000000E+00 0.  1.
          1   -1    0    0  501    0  0.00000000000E+00 -0.00000000000E+00 -0.25284133490E+03  0.25284133490E+03  0.00000000000E+00 0. -1.
         23    2    1    2    0    0  0.77624866398E+02 -0.18178979086E+03 -0.14377425757E+03  0.27453522935E+03  0.12500162828E+03 0.  0.
          5    1    3    3  502    0 -0.29962537788E+02 -0.24606962578E+02 -0.62483565499E+01  0.39552348067E+02  0.47000000000E+01 0.  1.
         -5    1    3    3    0  502  0.10758740419E+03 -0.15718282828E+03 -0.13752590102E+03  0.23498288128E+03  0.47000000000E+01 0.  1.
        -11    1    1    2    0    0 -0.32090629610E+02  0.33788580107E+02  0.11009557857E+03  0.11955129892E+03  0.00000000000E+00 0.  1.
         11    1    1    2    0    0 -0.45534236788E+02  0.14800121075E+03  0.11490745178E+03  0.19282491430E+03  0.00000000000E+00 0. -1.
<mgrwt>
<rscale>  0 0.22945542E+03</rscale>
<asrwt>0</asrwt>
<pdfrwt beam="2">  1        1 0.38898667E-01 0.23387722E+03</pdfrwt>
<pdfrwt beam="1">  1       -1 0.51395401E-01 0.23387722E+03</pdfrwt>
<totfact> 0.42760237E+02</totfact>
</mgrwt>
</event>
<event>
 7    1  0.5928109E-006  0.1511571E+03  0.7546771E-02  0.1208165E+00
         -1   -1    0    0    0  501 -0.00000000000E+00  0.00000000000E+00  0.45242312007E+02  0.45242312007E+02  0.00000000000E+00 0.  1.
          1   -1    0    0  501    0  0.00000000000E+00 -0.00000000000E+00 -0.51507872157E+03  0.51507872157E+03  0.00000000000E+00 0. -1.
         23    2    1    2    0    0 -0.79322371428E+02 -0.30519325367E+02 -0.37421393535E+03  0.40358956929E+03  0.12500001278E+03 0.  0.
          5    1    3    3  502    0 -0.86007474420E+02  0.27952776961E+02 -0.25398852446E+03  0.26964959476E+03  0.47000000000E+01 0.  1.
         -5    1    3    3    0  502  0.66851029913E+01 -0.58472102328E+02 -0.12022541089E+03  0.13393997453E+03  0.47000000000E+01 0.  1.
        -11    1    1    2    0    0 -0.13909988598E+02  0.16297030668E+02 -0.44655846183E+02  0.49530047342E+02  0.00000000000E+00 0. -1.
         11    1    1    2    0    0  0.93232360027E+02  0.14222294699E+02 -0.50966628024E+02  0.10720141694E+03  0.00000000000E+00 0.  1.
<mgrwt>
<rscale>  0 0.14390830E+03</rscale>
<asrwt>0</asrwt>
<pdfrwt beam="2">  1        1 0.79242882E-01 0.15115711E+03</pdfrwt>
<pdfrwt beam="1">  1       -1 0.69603555E-02 0.15115711E+03</pdfrwt>
<totfact> 0.44931489E+03</totfact>
</mgrwt>
</event>
<event>
 7    1  0.5928109E-006  0.1340155E+03  0.7546771E-02  0.1234451E+00
          2   -1    0    0  501    0  0.00000000000E+00  0.00000000000E+00  0.31191762427E+03  0.31191762427E+03  0.00000000000E+00 0.  1.
         -2   -1    0    0    0  501 -0.00000000000E+00 -0.00000000000E+00 -0.62115743045E+02  0.62115743045E+02  0.00000000000E+00 0. -1.
         23    2    1    2    0    0  0.80033043947E+01 -0.47638132347E+02  0.23461323727E+03  0.27019166454E+03  0.12500687961E+03 0.  0.
          5    1    3    3  502    0 -0.50398693293E+02  0.55817840074E+01  0.12510296719E+03  0.13507045198E+03  0.47000000000E+01 0. -1.
         -5    1    3    3    0  502  0.58401997688E+02 -0.53219916354E+02  0.10951027008E+03  0.13512121256E+03  0.47000000000E+01 0. -1.
        -11    1    1    2    0    0 -0.17287977224E+01  0.63807379101E+02 -0.18064053954E+02  0.66337624427E+02  0.00000000000E+00 0. -1.
         11    1    1    2    0    0 -0.62745066723E+01 -0.16169246754E+02  0.33252697904E+02  0.37504078344E+02  0.00000000000E+00 0.  1.
<mgrwt>
<rscale>  0 0.12539647E+03</rscale>
<asrwt>0</asrwt>
<pdfrwt beam="1">  1        2 0.47987326E-01 0.13401554E+03</pdfrwt>
<pdfrwt beam="2">  1       -2 0.95562684E-02 0.13401554E+03</pdfrwt>
<totfact> 0.71172591E+03</totfact>
</mgrwt>
</event>
<event>
 7    1  0.5928109E-006  0.1416299E+03  0.7546771E-02  0.1222170E+00
          2   -1    0    0  501    0  0.00000000000E+00  0.00000000000E+00  0.11583562495E+03  0.11583562495E+03  0.00000000000E+00 0. -1.
         -2   -1    0    0    0  501 -0.00000000000E+00 -0.00000000000E+00 -0.16812586021E+03  0.16812586021E+03  0.00000000000E+00 0.  1.
         23    2    1    2    0    0  0.65299960571E+02  0.13075036545E+02  0.30026163678E+02  0.14477775411E+03  0.12499594453E+03 0.  0.
          5    1    3    3  502    0  0.60689068680E+02 -0.20154849357E+02  0.68288678475E+02  0.93673980473E+02  0.47000000000E+01 0.  1.
         -5    1    3    3    0  502  0.46108918908E+01  0.33229885902E+02 -0.38262514797E+02  0.51103773635E+02  0.47000000000E+01 0.  1.
        -11    1    1    2    0    0 -0.40946612509E+02 -0.51464986858E+02 -0.57666466765E+02  0.87468230447E+02  0.00000000000E+00 0. -1.
         11    1    1    2    0    0 -0.24353348061E+02  0.38389950313E+02 -0.24649932174E+02  0.51715500607E+02  0.00000000000E+00 0.  1.
<mgrwt>
<rscale>  0 0.13362749E+03</rscale>
<asrwt>0</asrwt>
<pdfrwt beam="1">  1        2 0.17820865E-01 0.14162990E+03</pdfrwt>
<pdfrwt beam="2">  1       -2 0.25865517E-01 0.14162990E+03</pdfrwt>
<totfact> 0.40782729E+03</totfact>
</mgrwt>
</event>
<event>
 7    1  0.5928109E-006  0.1405157E+03  0.7546771E-02  0.1224143E+00
         -2   -1    0    0    0  501 -0.00000000000E+00  0.00000000000E+00  0.17446040697E+03  0.17446040697E+03  0.00000000000E+00 0.  1.
          2   -1    0    0  501    0  0.00000000000E+00 -0.00000000000E+00 -0.99444506777E+02  0.99444506777E+02  0.00000000000E+00 0. -1.
         23    2    1    2    0    0 -0.78146552750E+01 -0.63706418803E+02 -0.18109181041E-01  0.14051569195E+03  0.12500033089E+03 0.  0.
          5    1    3    3  502    0 -0.31611454992E+02 -0.95388113341E+02 -0.93681338359E+00  0.10060389591E+03  0.47000000000E+01 0. -1.
         -5    1    3    3    0  502  0.23796799717E+02  0.31681694538E+02  0.91870420255E+00  0.39911796038E+02  0.47000000000E+01 0. -1.
        -11    1    1    2    0    0 -0.28123440315E+01  0.41572211748E+02  0.93699775602E+02  0.10254660412E+03  0.00000000000E+00 0.  1.
         11    1    1    2    0    0  0.10626999306E+02  0.22134207055E+02 -0.18665766228E+02  0.30842617676E+02  0.00000000000E+00 0. -1.
<mgrwt>
<rscale>  0 0.13225797E+03</rscale>
<asrwt>0</asrwt>
<pdfrwt beam="2">  1        2 0.15299155E-01 0.14051569E+03</pdfrwt>
<pdfrwt beam="1">  1       -2 0.26840063E-01 0.14051569E+03</pdfrwt>
<totfact> 0.45576444E+03</totfact>
</mgrwt>
</event>
<event>
 7    1  0.5928109E-006  0.2090244E+03  0.7546771E-02  0.1145553E+00
         -2   -1    0    0    0  501 -0.00000000000E+00  0.00000000000E+00  0.22999986992E+02  0.22999986992E+02  0.00000000000E+00 0.  1.
          2   -1    0    0  501    0  0.00000000000E+00 -0.00000000000E+00 -0.24758764614E+04  0.24758764614E+04  0.00000000000E+00 0. -1.
         23    2    1    2    0    0 -0.88390875744E+01  0.16729739284E+03 -0.19307407631E+04  0.19420224196E+04  0.12499854685E+03 0.  0.
          5    1    3    3  502    0 -0.24932389636E+02  0.41839441289E+02 -0.17461761738E+03  0.18134377629E+03  0.47000000000E+01 0.  1.
         -5    1    3    3    0  502  0.16093302062E+02  0.12545795156E+03 -0.17561231458E+04  0.17606786433E+04  0.47000000000E+01 0.  1.
        -11    1    1    2    0    0 -0.74809985301E+01 -0.63462137195E+02 -0.34509930322E+03  0.35096572094E+03  0.00000000000E+00 0.  1.
         11    1    1    2    0    0  0.16320086105E+02 -0.10383525565E+03 -0.17703640804E+03  0.20588830782E+03  0.00000000000E+00 0. -1.
<mgrwt>
<rscale>  0 0.20504287E+03</rscale>
<asrwt>0</asrwt>
<pdfrwt beam="2">  1        2 0.38090438E+00 0.20902436E+03</pdfrwt>
<pdfrwt beam="1">  1       -2 0.35384567E-02 0.20902436E+03</pdfrwt>
<totfact> 0.13784942E+03</totfact>
</mgrwt>
</event>
<event>
 7    1  0.5928109E-006  0.1908137E+03  0.7546771E-02  0.1162646E+00
          1   -1    0    0  501    0  0.00000000000E+00  0.00000000000E+00  0.33003165168E+03  0.33003165168E+03  0.00000000000E+00 0. -1.
         -1   -1    0    0    0  501 -0.00000000000E+00 -0.00000000000E+00 -0.98965224008E+02  0.98965224008E+02  0.00000000000E+00 0.  1.
         23    2    1    2    0    0 -0.10430135600E+03 -0.99615463860E+02  0.13284861318E+03  0.23250506161E+03  0.12493132571E+03 0.  0.
          5    1    3    3  502    0 -0.11646154197E+03 -0.11468962192E+03  0.13554381110E+03  0.21239400853E+03  0.47000000000E+01 0. -1.
         -5    1    3    3    0  502  0.12160185965E+02  0.15074158062E+02 -0.26951979149E+01  0.20111053075E+02  0.47000000000E+01 0. -1.
        -11    1    1    2    0    0  0.11115274904E+02  0.64129857205E+02  0.63434489462E+02  0.90885215380E+02  0.00000000000E+00 0. -1.
         11    1    1    2    0    0  0.93186081096E+02  0.35485606654E+02  0.34783325031E+02  0.10560659870E+03  0.00000000000E+00 0.  1.
<mgrwt>
<rscale>  0 0.18543265E+03</rscale>
<asrwt>0</asrwt>
<pdfrwt beam="1">  1        1 0.50774100E-01 0.19081365E+03</pdfrwt>
<pdfrwt beam="2">  1       -1 0.15225419E-01 0.19081365E+03</pdfrwt>
<totfact> 0.24021746E+03</totfact>
</mgrwt>
</event>
<event>
 7    1  0.5928109E-006  0.2860542E+03  0.7546771E-02  0.1094215E+00
         -1   -1    0    0    0  501 -0.00000000000E+00  0.00000000000E+00  0.87618746601E+03  0.87618746601E+03  0.00000000000E+00 0.  1.
          1   -1    0    0  501    0  0.00000000000E+00 -0.00000000000E+00 -0.11928948008E+03  0.11928948008E+03  0.00000000000E+00 0. -1.
         23    2    1    2    0    0  0.25702716254E+03 -0.11726424995E+02  0.13497002358E+03  0.31629716912E+03  0.12500608227E+03 0.  0.
          5    1    3    3  502    0  0.38899525571E+02 -0.65314197866E+01  0.82908414854E+02  0.91933279000E+02  0.47000000000E+01 0.  1.
         -5    1    3    3    0  502  0.21812763697E+03 -0.51950052088E+01  0.52061608722E+02  0.22436389012E+03  0.47000000000E+01 0.  1.
        -11    1    1    2    0    0 -0.18654739443E+03 -0.68422421377E+01  0.52969030377E+03  0.56162137117E+03  0.00000000000E+00 0.  1.
         11    1    1    2    0    0 -0.70479768113E+02  0.18568667133E+02  0.92237658576E+02  0.11755840579E+03  0.00000000000E+00 0. -1.
<mgrwt>
<rscale>  0 0.28271512E+03</rscale>
<asrwt>0</asrwt>
<pdfrwt beam="2">  1        1 0.18352228E-01 0.28605418E+03</pdfrwt>
<pdfrwt beam="1">  1       -1 0.13479807E+00 0.28605418E+03</pdfrwt>
<totfact> 0.14255687E+02</totfact>
</mgrwt>
</event>
<event>
 7    1  0.5928109E-006  0.1299935E+03  0.7546771E-02  0.1242916E+00
          1   -1    0    0  501    0  0.00000000000E+00  0.00000000000E+00  0.65649595204E+03  0.65649595204E+03  0.00000000000E+00 0. -1.
         -1   -1    0    0    0  501 -0.00000000000E+00 -0.00000000000E+00 -0.21374510270E+02  0.21374510270E+02  0.00000000000E+00 0.  1.
         23    2    1    2    0    0  0.18376209100E+01 -0.35641661307E+02  0.46845525973E+03  0.48615700056E+03  0.12499837579E+03 0.  0.
          5    1    3    3  502    0 -0.21130255230E+02  0.16305799906E+02  0.18987963375E+02  0.33090777413E+02  0.47000000000E+01 0.  1.
         -5    1    3    3    0  502  0.22967876140E+02 -0.51947461214E+02  0.44946729636E+03  0.45306622314E+03  0.47000000000E+01 0.  1.
        -11    1    1    2    0    0 -0.48878313606E+01 -0.20414161672E+02  0.64702555171E+01  0.21965725543E+02  0.00000000000E+00 0.  1.
         11    1    1    2    0    0  0.30502104505E+01  0.56055822980E+02  0.16019592652E+03  0.16974773621E+03  0.00000000000E+00 0. -1.
<mgrwt>
<rscale>  0 0.12010998E+03</rscale>
<asrwt>0</asrwt>
<pdfrwt beam="1">  1        1 0.10099936E+00 0.12999346E+03</pdfrwt>
<pdfrwt beam="2">  1       -1 0.32883867E-02 0.12999346E+03</pdfrwt>
<totfact> 0.97259702E+03</totfact>
</mgrwt>
</event>
<event>
 7    1  0.5928109E-006  0.1852821E+03  0.7546771E-02  0.1165649E+00
         -1   -1    0    0    0  501 -0.00000000000E+00  0.00000000000E+00  0.61592572009E+02  0.61592572009E+02  0.00000000000E+00 0.  1.
          1   -1    0    0  501    0  0.00000000000E+00 -0.00000000000E+00 -0.15078411315E+04  0.15078411315E+04  0.00000000000E+00 0. -1.
         23    2    1    2    0    0 -0.10306991385E+03  0.89883661648E+02 -0.13657105485E+04  0.13782215988E+04  0.12500797261E+03 0.  0.
          5    1    3    3  502    0 -0.28528064621E+02  0.75670683074E+02 -0.33281095017E+03  0.34252754823E+03  0.47000000000E+01 0. -1.
         -5    1    3    3    0  502 -0.74541849229E+02  0.14212978574E+02 -0.10328995984E+04  0.10356940506E+04  0.47000000000E+01 0. -1.
        -11    1    1    2    0    0  0.38467283826E+02 -0.33375561142E+02 -0.91467399107E+02  0.10468975645E+03  0.00000000000E+00 0. -1.
         11    1    1    2    0    0  0.64602630024E+02 -0.56508100506E+02  0.10929388129E+02  0.86522348290E+02  0.00000000000E+00 0.  1.
<mgrwt>
<rscale>  0 0.18224354E+03</rscale>
<asrwt>0</asrwt>
<pdfrwt beam="2">  1        1 0.23197554E+00 0.18528214E+03</pdfrwt>
<pdfrwt beam="1">  1       -1 0.94757810E-02 0.18528214E+03</pdfrwt>
<totfact> 0.47593683E+02</totfact>
</mgrwt>
</event>
<event>
 6    1  0.5928109E-006  0.1451963E+03  0.7546771E-02  0.1227576E+00
         -1   -1    0    0    0  501 -0.00000000000E+00  0.00000000000E+00  0.24077747842E+03  0.24077747842E+03  0.00000000000E+00 0.  1.
          1   -1    0    0  501    0  0.00000000000E+00 -0.00000000000E+00 -0.59256024330E+02  0.59256024330E+02  0.00000000000E+00 0. -1.
          5    1    1    2  502    0 -0.79040428865E+01  0.82347187585E+02  0.70887862972E+02  0.10904454280E+03  0.47000000000E+01 0. -1.
         -5    1    1    2    0  502  0.20979407621E+02 -0.56677703418E+02  0.29040158245E+02  0.67215462505E+02  0.47000000000E+01 0.  1.
        -11    1    1    2    0    0  0.70207058065E+01 -0.78944182882E+01 -0.17867721967E+02  0.20757351431E+02  0.00000000000E+00 0. -1.
         11    1    1    2    0    0 -0.20096070541E+02 -0.17775065879E+02  0.99461154843E+02  0.10301614602E+03  0.00000000000E+00 0.  1.
<mgrwt>
<rscale>  0 0.12991865E+03</rscale>
<asrwt>0</asrwt>
<pdfrwt beam="2">  1        1 0.91163116E-02 0.14519635E+03</pdfrwt>
<pdfrwt beam="1">  1       -1 0.37042688E-01 0.14519635E+03</pdfrwt>
<totfact> 0.49344261E+03</totfact>
</mgrwt>
</event>
<event>
 7    1  0.5928109E-006  0.1520528E+03  0.7546771E-02  0.1206857E+00
          1   -1    0    0  501    0  0.00000000000E+00  0.00000000000E+00  0.13814279206E+03  0.13814279206E+03  0.00000000000E+00 0. -1.
         -1   -1    0    0    0  501 -0.00000000000E+00 -0.00000000000E+00 -0.14458145242E+03  0.14458145242E+03  0.00000000000E+00 0.  1.
         23    2    1    2    0    0 -0.19201271369E+02  0.84424358566E+02  0.23170527061E+02  0.15380807594E+03  0.12499555895E+03 0.  0.
          5    1    3    3  502    0  0.38176378840E+01  0.97251449362E+02  0.55261214268E+02  0.11201924194E+03  0.47000000000E+01 0.  1.
         -5    1    3    3    0  502 -0.23018909253E+02 -0.12827090795E+02 -0.32090687207E+02  0.41788833998E+02  0.47000000000E+01 0.  1.
        -11    1    1    2    0    0  0.32144076630E+02 -0.43142636150E+02  0.24934336735E+02  0.59297975217E+02  0.00000000000E+00 0.  1.
         11    1    1    2    0    0 -0.12942805261E+02 -0.41281722416E+02 -0.54543524157E+02  0.69618193320E+02  0.00000000000E+00 0. -1.
<mgrwt>
<rscale>  0 0.14492076E+03</rscale>
<asrwt>0</asrwt>
<pdfrwt beam="1">  1        1 0.21252737E-01 0.15205279E+03</pdfrwt>
<pdfrwt beam="2">  1       -1 0.22243300E-01 0.15205279E+03</pdfrwt>
<totfact> 0.38596417E+03</totfact>
</mgrwt>
</event>
<event>
 7    1  0.5928109E-006  0.1425732E+03  0.7546771E-02  0.1213517E+00
         -1   -1    0    0    0  501 -0.00000000000E+00  0.00000000000E+00  0.21620375455E+02  0.21620375455E+02  0.00000000000E+00 0.  1.
          1   -1    0    0  501    0  0.00000000000E+00 -0.00000000000E+00 -0.90595264240E+03  0.90595264240E+03  0.00000000000E+00 0. -1.
         23    2    1    2    0    0 -0.43244627136E+02 -0.53222127196E+02 -0.54832407672E+03  0.56655663723E+03  0.12499774990E+03 0.  0.
          5    1    3    3  502    0  0.38489674130E+02 -0.43736205129E+02 -0.18555362231E+03  0.19454189114E+03  0.47000000000E+01 0. -1.
         -5    1    3    3    0  502 -0.81734301266E+02 -0.94859220677E+01 -0.36277045441E+03  0.37201474610E+03  0.47000000000E+01 0. -1.
        -11    1    1    2    0    0 -0.61744248044E+01  0.19239848814E+02 -0.52371168727E+00  0.20213104116E+02  0.00000000000E+00 0.  1.
         11    1    1    2    0    0  0.49419051940E+02  0.33982278382E+02 -0.33548447853E+03  0.34080327650E+03  0.00000000000E+00 0. -1.
<mgrwt>
<rscale>  0 0.13986042E+03</rscale>
<asrwt>0</asrwt>
<pdfrwt beam="2">  1        1 0.13937731E+00 0.14257324E+03</pdfrwt>
<pdfrwt beam="1">  1       -1 0.33262122E-02 0.14257324E+03</pdfrwt>
<totfact> 0.59526808E+03</totfact>
</mgrwt>
</event>
<event>
 7    1  0.5928109E-006  0.1482473E+03  0.7546771E-02  0.1211638E+00
          1   -1    0    0  501    0  0.00000000000E+00  0.00000000000E+00  0.20513546167E+03  0.20513546167E+03  0.00000000000E+00 0. -1.
         -1   -1    0    0    0  501 -0.00000000000E+00 -0.00000000000E+00 -0.92616056957E+02  0.92616056957E+02  0.00000000000E+00 0.  1.
         23    2    1    2    0    0 -0.36249620213E+02  0.70980195755E+02  0.90115003600E+02  0.17348769923E+03  0.12500017902E+03 0.  0.
          5    1    3    3  502    0 -0.21158012433E+02 -0.34242040478E+02  0.14868006577E+02  0.43166265136E+02  0.47000000000E+01 0.  1.
         -5    1    3    3    0  502 -0.15091607779E+02  0.10522223623E+03  0.75246997024E+02  0.13032143409E+03  0.47000000000E+01 0.  1.
        -11    1    1    2    0    0 -0.23153673311E+02  0.69508943618E+01  0.28499118804E+01  0.24341929216E+02  0.00000000000E+00 0.  1.
         11    1    1    2    0    0  0.59403293523E+02 -0.77931090117E+02  0.19554489232E+02  0.99921890181E+02  0.00000000000E+00 0. -1.
<mgrwt>
<rscale>  0 0.14126426E+03</rscale>
<asrwt>0</asrwt>
<pdfrwt beam="1">  1        1 0.31559302E-01 0.14824732E+03</pdfrwt>
<pdfrwt beam="2">  1       -1 0.14248624E-01 0.14824732E+03</pdfrwt>
<totfact> 0.47688556E+03</totfact>
</mgrwt>
</event>
<event>
 7    1  0.5928109E-006  0.1759129E+03  0.7546771E-02  0.1179078E+00
         -2   -1    0    0    0  501 -0.00000000000E+00  0.00000000000E+00  0.13457462178E+03  0.13457462178E+03  0.00000000000E+00 0.  1.
          2   -1    0    0  501    0  0.00000000000E+00 -0.00000000000E+00 -0.23661852647E+03  0.23661852647E+03  0.00000000000E+00 0. -1.
         23    2    1    2    0    0  0.12377029528E+03 -0.13713089423E+01 -0.13080498497E+03  0.21921513568E+03  0.12499746052E+03 0.  0.
          5    1    3    3  502    0 -0.66839407427E+01  0.96692891123E+01 -0.76268389543E+02  0.77311884334E+02  0.47000000000E+01 0.  1.
         -5    1    3    3    0  502  0.13045423602E+03 -0.11040598055E+02 -0.54536595431E+02  0.14190325135E+03  0.47000000000E+01 0.  1.
        -11    1    1    2    0    0 -0.69167524035E+02 -0.23431609337E+02 -0.18829986142E+02  0.75417206759E+02  0.00000000000E+00 0. -1.
         11    1    1    2    0    0 -0.54602771244E+02  0.24802918279E+02  0.47591066429E+02  0.76560805812E+02  0.00000000000E+00 0.  1.
<mgrwt>
<rscale>  0 0.16882567E+03</rscale>
<asrwt>0</asrwt>
<pdfrwt beam="2">  1        2 0.36402850E-01 0.17591285E+03</pdfrwt>
<pdfrwt beam="1">  1       -2 0.20703788E-01 0.17591285E+03</pdfrwt>
<totfact> 0.27482004E+03</totfact>
</mgrwt>
</event>
<event>
 7    1  0.5928109E-006  0.1291715E+03  0.7546771E-02  0.1242173E+00
          1   -1    0    0  501    0  0.00000000000E+00  0.00000000000E+00  0.55830214521E+03  0.55830214521E+03  0.00000000000E+00 0. -1.
         -1   -1    0    0    0  501 -0.00000000000E+00 -0.00000000000E+00 -0.42562882832E+02  0.42562882832E+02  0.00000000000E+00 0.  1.
         23    2    1    2    0    0  0.84405481047E+01 -0.31474349810E+02  0.47911270638E+03  0.49621996672E+03  0.12499356947E+03 0.  0.
          5    1    3    3  502    0  0.30566660317E+02 -0.64651373368E+02  0.16970062681E+03  0.18421322847E+03  0.47000000000E+01 0. -1.
         -5    1    3    3    0  502 -0.22126112213E+02  0.33177023558E+02  0.30941207957E+03  0.31200673826E+03  0.47000000000E+01 0. -1.
        -11    1    1    2    0    0  0.23863835837E+02  0.51170913861E+02  0.76278526346E+01  0.56974812172E+02  0.00000000000E+00 0.  1.
         11    1    1    2    0    0 -0.32304383942E+02 -0.19696564051E+02  0.28998703366E+02  0.47670249152E+02  0.00000000000E+00 0. -1.
<mgrwt>
<rscale>  0 0.12056194E+03</rscale>
<asrwt>0</asrwt>
<pdfrwt beam="1">  1        1 0.85892632E-01 0.12917148E+03</pdfrwt>
<pdfrwt beam="2">  1       -1 0.65481362E-02 0.12917148E+03</pdfrwt>
<totfact> 0.43921550E+03</totfact>
</mgrwt>
</event>
<event>
 6    1  0.5928109E-006  0.2867808E+03  0.7546771E-02  0.1094530E+00
          2   -1    0    0  501    0  0.00000000000E+00  0.00000000000E+00  0.11116163640E+04  0.11116163640E+04  0.00000000000E+00 0. -1.
         -2   -1    0    0    0  501 -0.00000000000E+00 -0.00000000000E+00 -0.75096545841E+02  0.75096545841E+02  0.00000000000E+00 0.  1.
          5    1    1    2  502    0 -0.68535556357E+01 -0.76012688739E+02  0.16279829021E+03  0.17986181743E+03  0.47000000000E+01 0. -1.
         -5    1    1    2    0  502  0.15611034274E+03 -0.12562504516E+03  0.20743667970E+03  0.28845130814E+03  0.47000000000E+01 0.  1.
        -11    1    1    2    0    0  0.83480331698E+01  0.45700917782E+02  0.10019095230E+03  0.11043772212E+03  0.00000000000E+00 0.  1.
         11    1    1    2    0    0 -0.15760482027E+03  0.15593681612E+03  0.56609389598E+03  0.60796206218E+03  0.00000000000E+00 0. -1.
<mgrwt>
<rscale>  0 0.28213160E+03</rscale>
<asrwt>0</asrwt>
<pdfrwt beam="1">  1        2 0.17101789E+00 0.28678084E+03</pdfrwt>
<pdfrwt beam="2">  1       -2 0.11553316E-01 0.28678084E+03</pdfrwt>
<totfact> 0.11832051E+03</totfact>
</mgrwt>
</event>
<event>
 7    1  0.5928109E-006  0.1410863E+03  0.7546771E-02  0.1222429E+00
         -2   -1    0    0    0  501 -0.00000000000E+00  0.00000000000E+00  0.36527064309E+02  0.36527064309E+02  0.00000000000E+00 0.  1.
          2   -1    0    0  501    0  0.00000000000E+00 -0.00000000000E+00 -0.50658877671E+03  0.50658877671E+03  0.00000000000E+00 0. -1.
         23    2    1    2    0    0 -0.55660991935E+01 -0.65205159043E+02 -0.35449385574E+03  0.38153800506E+03  0.12499064494E+03 0.  0.
          5    1    3    3  502    0  0.35659349186E+02 -0.82270782085E+02 -0.28509209529E+03  0.29889741311E+03  0.47000000000E+01 0. -1.
         -5    1    3    3    0  502 -0.41225448379E+02  0.17065623042E+02 -0.69401760452E+02  0.82640591949E+02  0.47000000000E+01 0. -1.
        -11    1    1    2    0    0 -0.19792815449E+02 -0.16727372179E+02 -0.17365583503E+02  0.31194935708E+02  0.00000000000E+00 0.  1.
         11    1    1    2    0    0  0.25358914642E+02  0.81932531222E+02 -0.98202273161E+02  0.13038290025E+03  0.00000000000E+00 0. -1.
<mgrwt>
<rscale>  0 0.13344698E+03</rscale>
<asrwt>0</asrwt>
<pdfrwt beam="2">  1        2 0.77936732E-01 0.14108634E+03</pdfrwt>
<pdfrwt beam="1">  1       -2 0.56195486E-02 0.14108634E+03</pdfrwt>
<totfact> 0.95954342E+03</totfact>
</mgrwt>
</event>
<event>
 7    1  0.5928109E-006  0.1445725E+03  0.7546771E-02  0.1217526E+00
          1   -1    0    0  501    0  0.00000000000E+00  0.00000000000E+00  0.47386073235E+02  0.47386073235E+02  0.00000000000E+00 0. -1.
         -1   -1    0    0    0  501 -0.00000000000E+00 -0.00000000000E+00 -0.35982131913E+03  0.35982131913E+03  0.00000000000E+00 0.  1.
         23    2    1    2    0    0  0.71889798323E+02 -0.10725043349E+02 -0.18202888716E+03  0.23245585160E+03  0.12497214699E+03 0.  0.
          5    1    3    3  502    0 -0.80373961940E+01  0.29204847182E+02 -0.11683811622E+01  0.30675363911E+02  0.47000000000E+01 0.  1.
         -5    1    3    3    0  502  0.79927194517E+02 -0.39929890532E+02 -0.18086050600E+03  0.20178048769E+03  0.47000000000E+01 0.  1.
        -11    1    1    2    0    0 -0.30668514778E+02 -0.36026643871E+02 -0.86222723652E+02  0.98350571636E+02  0.00000000000E+00 0.  1.
         11    1    1    2    0    0 -0.41221283544E+02  0.46751687220E+02 -0.44183635083E+02  0.76400969131E+02  0.00000000000E+00 0. -1.
<mgrwt>
<rscale>  0 0.13692591E+03</rscale>
<asrwt>0</asrwt>
<pdfrwt beam="1">  1        1 0.72901653E-02 0.14457250E+03</pdfrwt>
<pdfrwt beam="2">  1       -1 0.55357124E-01 0.14457250E+03</pdfrwt>
<totfact> 0.32361921E+03</totfact>
</mgrwt>
</event>
<event>
 7    1  0.5928109E-006  0.1281055E+03  0.7546771E-02  0.1245643E+00
         -1   -1    0    0    0  501 -0.00000000000E+00  0.00000000000E+00  0.41625945887E+02  0.41625945887E+02  0.00000000000E+00 0.  1.
          1   -1    0    0  501    0  0.00000000000E+00 -0.00000000000E+00 -0.37445169269E+03  0.37445169269E+03  0.00000000000E+00 0. -1.
         23    2    1    2    0    0  0.25707882215E+02  0.11230896309E+02 -0.28141696486E+03  0.30920305571E+03  0.12499597317E+03 0.  0.
          5    1    3    3  502    0  0.70116106316E+02 -0.15521784522E+02 -0.12363673404E+03  0.14305707310E+03  0.47000000000E+01 0. -1.
         -5    1    3    3    0  502 -0.44408224101E+02  0.26752680831E+02 -0.15778023082E+03  0.16614598261E+03  0.47000000000E+01 0. -1.
        -11    1    1    2    0    0  0.19139465108E+02 -0.26276230095E+02  0.53961768295E+01  0.32952664794E+02  0.00000000000E+00 0.  1.
         11    1    1    2    0    0 -0.44847347323E+02  0.15045333787E+02 -0.56804958774E+02  0.73921918076E+02  0.00000000000E+00 0. -1.
<mgrwt>
<rscale>  0 0.11847001E+03</rscale>
<asrwt>0</asrwt>
<pdfrwt beam="2">  1        1 0.57607950E-01 0.12810551E+03</pdfrwt>
<pdfrwt beam="1">  1       -1 0.64039920E-02 0.12810551E+03</pdfrwt>
<totfact> 0.75812863E+03</totfact>
</mgrwt>
</event>
<event>
 7    1  0.5928109E-006  0.1491757E+03  0.7546771E-02  0.1212030E+00
          2   -1    0    0  501    0  0.00000000000E+00  0.00000000000E+00  0.19792200951E+03  0.19792200951E+03  0.00000000000E+00 0. -1.
         -2   -1    0    0    0  501 -0.00000000000E+00 -0.00000000000E+00 -0.98030377238E+02  0.98030377238E+02  0.00000000000E+00 0.  1.
         23    2    1    2    0    0  0.60747701944E+02 -0.54205035767E+02  0.95063876895E+02  0.17689127443E+03  0.12499965234E+03 0.  0.
          5    1    3    3  502    0 -0.12340442249E+02  0.26751108339E+02  0.51163876303E+02  0.59226181294E+02  0.47000000000E+01 0. -1.
         -5    1    3    3    0  502  0.73088144193E+02 -0.80956144105E+02  0.43900000592E+02  0.11766509313E+03  0.47000000000E+01 0. -1.
        -11    1    1    2    0    0 -0.55327051783E+02  0.25900192569E+02 -0.34612604767E+02  0.70213496158E+02  0.00000000000E+00 0.  1.
         11    1    1    2    0    0 -0.54206501616E+01  0.28304843198E+02  0.39440360148E+02  0.48847616167E+02  0.00000000000E+00 0. -1.
<mgrwt>
<rscale>  0 0.14096999E+03</rscale>
<asrwt>0</asrwt>
<pdfrwt beam="1">  1        2 0.30449540E-01 0.14917568E+03</pdfrwt>
<pdfrwt beam="2">  1       -2 0.15081597E-01 0.14917568E+03</pdfrwt>
<totfact> 0.56152203E+03</totfact>
</mgrwt>
</event>
<event>
 7    1  0.5928109E-006  0.1337107E+03  0.7546771E-02  0.1232278E+00
          1   -1    0    0  501    0  0.00000000000E+00  0.00000000000E+00  0.15814808794E+04  0.15814808794E+04  0.00000000000E+00 0. -1.
         -1   -1    0    0    0  501 -0.00000000000E+00 -0.00000000000E+00 -0.99837844659E+01  0.99837844659E+01  0.00000000000E+00 0.  1.
         23    2    1    2    0    0 -0.44909993040E+02 -0.15334689429E+02  0.10777158297E+04  0.10859788086E+04  0.12500601192E+03 0.  0.
          5    1    3    3  502    0  0.11976918187E+02 -0.53606324856E+02  0.69168034997E+03  0.69387382222E+03  0.47000000000E+01 0. -1.
         -5    1    3    3    0  502 -0.56886911227E+02  0.38271635427E+02  0.38603547971E+03  0.39210498638E+03  0.47000000000E+01 0. -1.
        -11    1    1    2    0    0  0.27656227805E+02  0.56681912774E+02  0.30627994882E+03  0.31270611318E+03  0.00000000000E+00 0.  1.
         11    1    1    2    0    0  0.17253765235E+02 -0.41347223344E+02  0.18750131647E+03  0.19277974212E+03  0.00000000000E+00 0. -1.
<mgrwt>
<rscale>  0 0.12680298E+03</rscale>
<asrwt>0</asrwt>
<pdfrwt beam="1">  1        1 0.24330455E+00 0.13371074E+03</pdfrwt>
<pdfrwt beam="2">  1       -1 0.15359681E-02 0.13371074E+03</pdfrwt>
<totfact> 0.62499107E+03</totfact>
</mgrwt>
</event>
<event>
 7    1  0.5928109E-006  0.1468726E+03  0.7546771E-02  0.1214150E+00
          1   -1    0    0  501    0  0.00000000000E+00  0.00000000000E+00  0.16552078909E+04  0.16552078909E+04  0.00000000000E+00 0. -1.
         -1   -1    0    0    0  501 -0.00000000000E+00 -0.00000000000E+00 -0.18241040531E+02  0.18241040531E+02  0.00000000000E+00 0.  1.
         23    2    1    2    0    0 -0.53034284618E+02 -0.55987347635E+02  0.14051087407E+04  0.14127640084E+04  0.12499740736E+03 0.  0.
          5    1    3    3  502    0  0.22396722232E+02 -0.20598435419E+02  0.92103578744E+03  0.92155028102E+03  0.47000000000E+01 0.  1.
         -5    1    3    3    0  502 -0.75431006850E+02 -0.35388912216E+02  0.48407295326E+03  0.49121372739E+03  0.47000000000E+01 0.  1.
        -11    1    1    2    0    0  0.24935249849E+02  0.76443606584E+02  0.18976201412E+03  0.20609467163E+03  0.00000000000E+00 0. -1.
         11    1    1    2    0    0  0.28099034769E+02 -0.20456258949E+02  0.42096095538E+02  0.54590251371E+02  0.00000000000E+00 0.  1.
<mgrwt>
<rscale>  0 0.13939133E+03</rscale>
<asrwt>0</asrwt>
<pdfrwt beam="1">  1        1 0.25464725E+00 0.14687263E+03</pdfrwt>
<pdfrwt beam="2">  1       -1 0.28063152E-02 0.14687263E+03</pdfrwt>
<totfact> 0.23503470E+03</totfact>
</mgrwt>
</event>
<event>
 7    1  0.5928109E-006  0.1980832E+03  0.7546771E-02  0.1155988E+00
         -2   -1    0    0    0  501 -0.00000000000E+00  0.00000000000E+00  0.67377447080E+02  0.67377447080E+02  0.00000000000E+00 0.  1.
          2   -1    0    0  501    0  0.00000000000E+00 -0.00000000000E+00 -0.53261711991E+03  0.53261711991E+03  0.00000000000E+00 0. -1.
         23    2    1    2    0    0  0.26016203700E+02 -0.15146362038E+03 -0.28346976278E+03  0.34582083104E+03  0.12497547607E+03 0.  0.
          5    1    3    3  502    0  0.75204176353E+02 -0.74829514077E+02 -0.16698112897E+03  0.19788863472E+03  0.47000000000E+01 0.  1.
         -5    1    3    3    0  502 -0.49187972653E+02 -0.76634106300E+02 -0.11648863380E+03  0.14793219632E+03  0.47000000000E+01 0.  1.
        -11    1    1    2    0    0  0.23514591984E+01  0.12134686735E+03 -0.17388911990E+03  0.21205663771E+03  0.00000000000E+00 0. -1.
         11    1    1    2    0    0 -0.28367662898E+02  0.30116753027E+02 -0.78807901542E+01  0.42117098246E+02  0.00000000000E+00 0.  1.
<mgrwt>
<rscale>  0 0.19276788E+03</rscale>
<asrwt>0</asrwt>
<pdfrwt beam="2">  1        2 0.81941099E-01 0.19808317E+03</pdfrwt>
<pdfrwt beam="1">  1       -2 0.10365761E-01 0.19808317E+03</pdfrwt>
<totfact> 0.35774002E+03</totfact>
</mgrwt>
</event>
<event>
 7    1  0.5928109E-006  0.1595625E+03  0.7546771E-02  0.1197117E+00
         -2   -1    0    0    0  501 -0.00000000000E+00  0.00000000000E+00  0.18274006643E+03  0.18274006643E+03  0.00000000000E+00 0.  1.
          2   -1    0    0  501    0  0.00000000000E+00 -0.00000000000E+00 -0.12043178481E+03  0.12043178481E+03  0.00000000000E+00 0. -1.
         23    2    1    2    0    0 -0.65104369256E+02  0.74814738456E+02  0.12098970136E+02  0.16002052668E+03  0.12499743955E+03 0.  0.
          5    1    3    3  502    0 -0.52738565987E+02  0.90217284095E+02  0.50820691934E+02  0.11629852716E+03  0.47000000000E+01 0. -1.
         -5    1    3    3    0  502 -0.12365803270E+02 -0.15402545639E+02 -0.38721721798E+02  0.43721999516E+02  0.47000000000E+01 0. -1.
        -11    1    1    2    0    0  0.53776510657E+02 -0.83176518490E+02  0.88268536991E+01  0.99439226027E+02  0.00000000000E+00 0. -1.
         11    1    1    2    0    0  0.11327858600E+02  0.83617800345E+01  0.41382457782E+02  0.43712098530E+02  0.00000000000E+00 0.  1.
<mgrwt>
<rscale>  0 0.15276385E+03</rscale>
<asrwt>0</asrwt>
<pdfrwt beam="2">  1        2 0.18527967E-01 0.15956248E+03</pdfrwt>
<pdfrwt beam="1">  1       -2 0.28113856E-01 0.15956248E+03</pdfrwt>
<totfact> 0.33877920E+03</totfact>
</mgrwt>
</event>
<event>
 7    1  0.5928109E-006  0.1394880E+03  0.7546771E-02  0.1225187E+00
          1   -1    0    0  501    0  0.00000000000E+00  0.00000000000E+00  0.14381286843E+03  0.14381286843E+03  0.00000000000E+00 0. -1.
         -1   -1    0    0    0  501 -0.00000000000E+00 -0.00000000000E+00 -0.10975371160E+03  0.10975371160E+03  0.00000000000E+00 0.  1.
         23    2    1    2    0    0 -0.61014650325E+02  0.10459444720E+02  0.32583709738E+02  0.14324318803E+03  0.12499890095E+03 0.  0.
          5    1    3    3  502    0 -0.62678576448E+02  0.13207426517E+02  0.75971980123E+02  0.99483022795E+02  0.47000000000E+01 0.  1.
         -5    1    3    3    0  502  0.16639261230E+01 -0.27479817967E+01 -0.43388270385E+02  0.43760165232E+02  0.47000000000E+01 0.  1.
        -11    1    1    2    0    0 -0.37132494510E+01  0.10246449613E+02 -0.32547284385E+02  0.34323514854E+02  0.00000000000E+00 0.  1.
         11    1    1    2    0    0  0.64727899776E+02 -0.20705894333E+02  0.34022731474E+02  0.75999877148E+02  0.00000000000E+00 0. -1.
<mgrwt>
<rscale>  0 0.13154063E+03</rscale>
<asrwt>0</asrwt>
<pdfrwt beam="1">  1        1 0.22125057E-01 0.13948804E+03</pdfrwt>
<pdfrwt beam="2">  1       -1 0.16885186E-01 0.13948804E+03</pdfrwt>
<totfact> 0.56780395E+03</totfact>
</mgrwt>
</event>
<event>
 7    1  0.5928109E-006  0.1272501E+03  0.7546771E-02  0.1245816E+00
         -1   -1    0    0    0  501 -0.00000000000E+00  0.00000000000E+00  0.33015830754E+02  0.33015830754E+02  0.00000000000E+00 0.  1.
          1   -1    0    0  501    0  0.00000000000E+00 -0.00000000000E+00 -0.48164539342E+03  0.48164539342E+03  0.00000000000E+00 0. -1.
         23    2    1    2    0    0  0.83931758280E+01  0.24296685878E+02 -0.36956328145E+03  0.39085753476E+03  0.12462671922E+03 0.  0.
          5    1    3    3  502    0  0.41180917416E+02 -0.12038428957E+02 -0.44118338600E+02  0.61719604112E+02  0.47000000000E+01 0.  1.
         -5    1    3    3    0  502 -0.32787741588E+02  0.36335114835E+02 -0.32544494285E+03  0.32913793065E+03  0.47000000000E+01 0.  1.
        -11    1    1    2    0    0  0.24346234890E+02 -0.22094378295E+02  0.52810378553E+01  0.33298499461E+02  0.00000000000E+00 0.  1.
         11    1    1    2    0    0 -0.32739410718E+02 -0.22023075830E+01 -0.84347319078E+02  0.90505189953E+02  0.00000000000E+00 0. -1.
<mgrwt>
<rscale>  0 0.11836675E+03</rscale>
<asrwt>0</asrwt>
<pdfrwt beam="2">  1        1 0.74099290E-01 0.12725012E+03</pdfrwt>
<pdfrwt beam="1">  1       -1 0.50793587E-02 0.12725012E+03</pdfrwt>
<totfact> 0.77669283E+03</totfact>
</mgrwt>
</event>
<event>
 7    1  0.5928109E-006  0.1298692E+03  0.7546771E-02  0.1239677E+00
         -1   -1    0    0    0  501 -0.00000000000E+00  0.00000000000E+00  0.14917061360E+03  0.14917061360E+03  0.00000000000E+00 0.  1.
          1   -1    0    0  501    0  0.00000000000E+00 -0.00000000000E+00 -0.90256898519E+02  0.90256898519E+02  0.00000000000E+00 0. -1.
         23    2    1    2    0    0 -0.19881038349E+02 -0.29029053926E+02  0.23597711053E+02  0.13199567965E+03  0.12501226268E+03 0.  0.
          5    1    3    3  502    0  0.32187221566E+02  0.26945896396E+02  0.34619853842E+02  0.54614309890E+02  0.47000000000E+01 0.  1.
         -5    1    3    3    0  502 -0.52068259915E+02 -0.55974950322E+02 -0.11022142789E+02  0.77381369759E+02  0.47000000000E+01 0.  1.
        -11    1    1    2    0    0  0.33683102342E+02  0.33687101403E+00  0.58870925434E+02  0.67826622553E+02  0.00000000000E+00 0.  1.
         11    1    1    2    0    0 -0.13802063993E+02  0.28692182912E+02 -0.23554921401E+02  0.39605209922E+02  0.00000000000E+00 0. -1.
<mgrwt>
<rscale>  0 0.12209690E+03</rscale>
<asrwt>0</asrwt>
<pdfrwt beam="2">  1        1 0.13885677E-01 0.12986919E+03</pdfrwt>
<pdfrwt beam="1">  1       -1 0.22949325E-01 0.12986919E+03</pdfrwt>
<totfact> 0.62764675E+03</totfact>
</mgrwt>
</event>
<event>
 7    1  0.5928109E-006  0.1314129E+03  0.7546771E-02  0.1237373E+00
         -1   -1    0    0    0  501 -0.00000000000E+00  0.00000000000E+00  0.27639532075E+03  0.27639532075E+03  0.00000000000E+00 0.  1.
          1   -1    0    0  501    0  0.00000000000E+00 -0.00000000000E+00 -0.52383796519E+02  0.52383796519E+02  0.00000000000E+00 0. -1.
         23    2    1    2    0    0  0.23116441203E+02 -0.33321113021E+02  0.87041793862E+02  0.15762496038E+03  0.12499875131E+03 0.  0.
          5    1    3    3  502    0  0.10733265781E+02 -0.22291868321E+02  0.11882750528E+03  0.12146685309E+03  0.47000000000E+01 0.  1.
         -5    1    3    3    0  502  0.12383175422E+02 -0.11029244700E+02 -0.31785711421E+02  0.36158107290E+02  0.47000000000E+01 0.  1.
        -11    1    1    2    0    0 -0.41067824647E+02 -0.16442325050E+02  0.35493262850E+02  0.56715853005E+02  0.00000000000E+00 0. -1.
         11    1    1    2    0    0  0.17951383444E+02  0.49763438071E+02  0.10147646752E+03  0.11443830389E+03  0.00000000000E+00 0.  1.
<mgrwt>
<rscale>  0 0.12353720E+03</rscale>
<asrwt>0</asrwt>
<pdfrwt beam="2">  1        1 0.80590458E-02 0.13141292E+03</pdfrwt>
<pdfrwt beam="1">  1       -1 0.42522356E-01 0.13141292E+03</pdfrwt>
<totfact> 0.45406237E+03</totfact>
</mgrwt>
</event>
<event>
 7    1  0.5928109E-006  0.1646764E+03  0.7546771E-02  0.1190620E+00
          2   -1    0    0  501    0  0.00000000000E+00  0.00000000000E+00  0.83031662560E+03  0.83031662560E+03  0.00000000000E+00 0.  1.
         -2   -1    0    0    0  501 -0.00000000000E+00 -0.00000000000E+00 -0.28941420628E+02  0.28941420628E+02  0.00000000000E+00 0. -1.
         23    2    1    2    0    0  0.91334947611E+02  0.56137261465E+02  0.50568350846E+03  0.53182152963E+03  0.12499945549E+03 0.  0.
          5    1    3    3  502    0  0.36584875471E+02 -0.26937842271E+02  0.29809117739E+03  0.30157012534E+03  0.47000000000E+01 0.  1.
         -5    1    3    3    0  502  0.54750072140E+02  0.83075103736E+02  0.20759233107E+03  0.23025140429E+03  0.47000000000E+01 0.  1.
        -11    1    1    2    0    0 -0.31503890947E+02  0.17246912775E+02  0.35276930785E+02  0.50342953734E+02  0.00000000000E+00 0. -1.
         11    1    1    2    0    0 -0.59831056664E+02 -0.73384174240E+02  0.26041476572E+03  0.27709356285E+03  0.00000000000E+00 0.  1.
<mgrwt>
<rscale>  0 0.15830874E+03</rscale>
<asrwt>0</asrwt>
<pdfrwt beam="1">  1        2 0.12774100E+00 0.16467644E+03</pdfrwt>
<pdfrwt beam="2">  1       -2 0.44525269E-02 0.16467644E+03</pdfrwt>
<totfact> 0.76996244E+03</totfact>
</mgrwt>
</event>
<event>
 7    1  0.5928109E-006  0.1343849E+03  0.7546771E-02  0.1231651E+00
         -1   -1    0    0    0  501 -0.00000000000E+00  0.00000000000E+00  0.51140080190E+02  0.51140080190E+02  0.00000000000E+00 0.  1.
          1   -1    0    0  501    0  0.00000000000E+00 -0.00000000000E+00 -0.31524498133E+03  0.31524498133E+03  0.00000000000E+00 0. -1.
         23    2    1    2    0    0  0.23475819854E+02 -0.55037212368E+02 -0.19972561246E+03  0.24072728571E+03  0.12032911929E+03 0.  0.
          5    1    3    3  502    0 -0.30915783400E+01 -0.53235257703E+02 -0.20610622375E+03  0.21294463127E+03  0.47000000000E+01 0. -1.
         -5    1    3    3    0  502  0.26567398194E+02 -0.18019546650E+01  0.63806112838E+01  0.27782654441E+02  0.47000000000E+01 0.  1.
        -11    1    1    2    0    0 -0.52463126124E+02  0.90277427510E+01 -0.27174538332E+02  0.59769016016E+02  0.00000000000E+00 0. -1.
         11    1    1    2    0    0  0.28987306271E+02  0.46009469617E+02 -0.37204750347E+02  0.65888759798E+02  0.00000000000E+00 0.  1.
<mgrwt>
<rscale>  0 0.12721291E+03</rscale>
<asrwt>0</asrwt>
<pdfrwt beam="2">  1        1 0.48499228E-01 0.13438492E+03</pdfrwt>
<pdfrwt beam="1">  1       -1 0.78677046E-02 0.13438492E+03</pdfrwt>
<totfact> 0.69211692E+03</totfact>
</mgrwt>
</event>
<event>
 6    1  0.5928109E-006  0.1719303E+03  0.7546771E-02  0.1200241E+00
         -2   -1    0    0    0  501 -0.00000000000E+00  0.00000000000E+00  0.19977881334E+02  0.19977881334E+02  0.00000000000E+00 0.  1.
          2   -1    0    0  501    0  0.00000000000E+00 -0.00000000000E+00 -0.10949424695E+04  0.10949424695E+04  0.00000000000E+00 0. -1.
          5    1    1    2  502    0 -0.58167291097E+02 -0.31414232807E+02 -0.55276172770E+03  0.55672067088E+03  0.47000000000E+01 0. -1.
         -5    1    1    2    0  502  0.86038824448E+02  0.30039736533E+02 -0.31707659136E+03  0.32994654093E+03  0.47000000000E+01 0.  1.
        -11    1    1    2    0    0 -0.56582488702E+02  0.18739395500E+02 -0.16775244247E+03  0.17802703425E+03  0.00000000000E+00 0.  1.
         11    1    1    2    0    0  0.28710955350E+02 -0.17364899227E+02 -0.37373826625E+02  0.50226104755E+02  0.00000000000E+00 0. -1.
<mgrwt>
<rscale>  0 0.15018880E+03</rscale>
<asrwt>0</asrwt>
<pdfrwt beam="2">  1        2 0.16845270E+00 0.17193034E+03</pdfrwt>
<pdfrwt beam="1">  1       -2 0.30735199E-02 0.17193034E+03</pdfrwt>
<totfact> 0.92005179E+03</totfact>
</mgrwt>
</event>
<event>
 7    1  0.5928109E-006  0.1619453E+03  0.7546771E-02  0.1193816E+00
         -2   -1    0    0    0  501 -0.00000000000E+00  0.00000000000E+00  0.21586972790E+03  0.21586972790E+03  0.00000000000E+00 0.  1.
          2   -1    0    0  501    0  0.00000000000E+00 -0.00000000000E+00 -0.14051280207E+03  0.14051280207E+03  0.00000000000E+00 0. -1.
         23    2    1    2    0    0  0.10084220516E+03  0.20784247039E+02 -0.50597845606E+02  0.16966563781E+03  0.12500060563E+03 0.  0.
          5    1    3    3  502    0  0.98949235987E+02 -0.28945242473E+02 -0.59150487134E+02  0.11895229503E+03  0.47000000000E+01 0. -1.
         -5    1    3    3    0  502  0.18929691721E+01  0.49729489512E+02  0.85526415284E+01  0.50713342786E+02  0.47000000000E+01 0. -1.
        -11    1    1    2    0    0 -0.10090757888E+03 -0.42441617458E+01  0.13442171330E+03  0.16813550901E+03  0.00000000000E+00 0.  1.
         11    1    1    2    0    0  0.65373723237E-01 -0.16540085293E+02 -0.84669418641E+01  0.18581383150E+02  0.00000000000E+00 0. -1.
<mgrwt>
<rscale>  0 0.15554873E+03</rscale>
<asrwt>0</asrwt>
<pdfrwt beam="2">  1        2 0.21617354E-01 0.16194532E+03</pdfrwt>
<pdfrwt beam="1">  1       -2 0.33210728E-01 0.16194532E+03</pdfrwt>
<totfact> 0.21044120E+03</totfact>
</mgrwt>
</event>
<event>
 7    1  0.5928109E-006  0.1272091E+03  0.7546771E-02  0.1246273E+00
          1   -1    0    0  501    0  0.00000000000E+00  0.00000000000E+00  0.80839115970E+03  0.80839115970E+03  0.00000000000E+00 0. -1.
         -1   -1    0    0    0  501 -0.00000000000E+00 -0.00000000000E+00 -0.22260903708E+02  0.22260903708E+02  0.00000000000E+00 0.  1.
         23    2    1    2    0    0  0.75304238792E+01 -0.22313196367E+02  0.66484425110E+03  0.67690473657E+03  0.12501023219E+03 0.  0.
          5    1    3    3  502    0  0.14460793332E+02  0.50315334433E+02  0.22761793194E+03  0.23360813419E+03  0.47000000000E+01 0.  1.
         -5    1    3    3    0  502 -0.69303694532E+01 -0.72628530800E+02  0.43722631917E+03  0.44329660238E+03  0.47000000000E+01 0.  1.
        -11    1    1    2    0    0  0.35412118163E+02 -0.60480566505E+01  0.80258185076E+02  0.87931640345E+02  0.00000000000E+00 0.  1.
         11    1    1    2    0    0 -0.42942542042E+02  0.28361253017E+02  0.41027819812E+02  0.65815686491E+02  0.00000000000E+00 0. -1.
<mgrwt>
<rscale>  0 0.11809526E+03</rscale>
<asrwt>0</asrwt>
<pdfrwt beam="1">  1        1 0.12436785E+00 0.12720906E+03</pdfrwt>
<pdfrwt beam="2">  1       -1 0.34247550E-02 0.12720906E+03</pdfrwt>
<totfact> 0.67707206E+03</totfact>
</mgrwt>
</event>
<event>
 7    1  0.5928109E-006  0.1263901E+03  0.7546771E-02  0.1250534E+00
         -3   -1    0    0    0  501 -0.00000000000E+00  0.00000000000E+00  0.16375894404E+02  0.16375894404E+02  0.00000000000E+00 0.  1.
          3   -1    0    0  501    0  0.00000000000E+00 -0.00000000000E+00 -0.10006537414E+04  0.10006537414E+04  0.00000000000E+00 0. -1.
         23    2    1    2    0    0 -0.16093462065E+02 -0.85691444753E+01 -0.82684374415E+03  0.83644787265E+03  0.12506812807E+03 0.  0.
          5    1    3    3  502    0  0.24011943763E+02 -0.11460507429E+02 -0.38329992926E+02  0.46895575820E+02  0.47000000000E+01 0. -1.
         -5    1    3    3    0  502 -0.40105405828E+02  0.28913629534E+01 -0.78851375122E+03  0.78955229683E+03  0.47000000000E+01 0. -1.
        -11    1    1    2    0    0 -0.87179076328E+01  0.34207889559E+02 -0.24568615083E+02  0.43009283517E+02  0.00000000000E+00 0.  1.
         11    1    1    2    0    0  0.24811369698E+02 -0.25638745084E+02 -0.13286548776E+03  0.13757247964E+03  0.00000000000E+00 0. -1.
<mgrwt>
<rscale>  0 0.11560202E+03</rscale>
<asrwt>0</asrwt>
<pdfrwt beam="2">  1        3 0.15394673E+00 0.12639014E+03</pdfrwt>
<pdfrwt beam="1">  1       -3 0.25193684E-02 0.12639014E+03</pdfrwt>
<totfact> 0.49559283E+02</totfact>
</mgrwt>
</event>
<event>
 7    1  0.5928109E-006  0.1521458E+03  0.7546771E-02  0.1206376E+00
         -2   -1    0    0    0  501 -0.00000000000E+00  0.00000000000E+00  0.18668464624E+02  0.18668464624E+02  0.00000000000E+00 0.  1.
          2   -1    0    0  501    0  0.00000000000E+00 -0.00000000000E+00 -0.10704728376E+04  0.10704728376E+04  0.00000000000E+00 0. -1.
         23    2    1    2    0    0 -0.86724449851E+02  0.15532318856E+01 -0.66424792414E+03  0.68144967535E+03  0.12499925033E+03 0.  0.
          5    1    3    3  502    0 -0.42031421401E+02  0.53962761969E+01 -0.50693107618E+02  0.66239273409E+02  0.47000000000E+01 0. -1.
         -5    1    3    3    0  502 -0.44693028450E+02 -0.38430443113E+01 -0.61355481652E+03  0.61521040194E+03  0.47000000000E+01 0. -1.
        -11    1    1    2    0    0  0.10307704191E+03 -0.15545554463E+02 -0.30262180324E+03  0.32007264274E+03  0.00000000000E+00 0.  1.
         11    1    1    2    0    0 -0.16352592061E+02  0.13992322577E+02 -0.84934645599E+02  0.87618984137E+02  0.00000000000E+00 0. -1.
<mgrwt>
<rscale>  0 0.14529555E+03</rscale>
<asrwt>0</asrwt>
<pdfrwt beam="2">  1        2 0.16468813E+00 0.15214584E+03</pdfrwt>
<pdfrwt beam="1">  1       -2 0.28720715E-02 0.15214584E+03</pdfrwt>
<totfact> 0.10444669E+04</totfact>
</mgrwt>
</event>
<event>
 7    1  0.5928109E-006  0.1526123E+03  0.7546771E-02  0.1205972E+00
         -2   -1    0    0    0  501 -0.00000000000E+00  0.00000000000E+00  0.96311463539E+02  0.96311463539E+02  0.00000000000E+00 0.  1.
          2   -1    0    0  501    0  0.00000000000E+00 -0.00000000000E+00 -0.20774588543E+03  0.20774588543E+03  0.00000000000E+00 0. -1.
         23    2    1    2    0    0  0.59841251826E+02  0.63905785904E+02 -0.85564004029E+02  0.17496201602E+03  0.12500233346E+03 0.  0.
          5    1    3    3  502    0  0.48985927589E+01 -0.21034218650E+02  0.19182345470E+02  0.29265798177E+02  0.47000000000E+01 0. -1.
         -5    1    3    3    0  502  0.54942659068E+02  0.84940004554E+02 -0.10474634950E+03  0.14569621784E+03  0.47000000000E+01 0. -1.
        -11    1    1    2    0    0 -0.22593424656E+02 -0.61240906674E+02  0.21545907352E+02  0.68739636394E+02  0.00000000000E+00 0.  1.
         11    1    1    2    0    0 -0.37247827171E+02 -0.26648792297E+01 -0.47416325215E+02  0.60355696559E+02  0.00000000000E+00 0. -1.
<mgrwt>
<rscale>  0 0.14561115E+03</rscale>
<asrwt>0</asrwt>
<pdfrwt beam="2">  1        2 0.31960905E-01 0.15261228E+03</pdfrwt>
<pdfrwt beam="1">  1       -2 0.14817148E-01 0.15261228E+03</pdfrwt>
<totfact> 0.54924723E+03</totfact>
</mgrwt>
</event>
<event>
 7    1  0.5928109E-006  0.1415478E+03  0.7546771E-02  0.1222667E+00
         -1   -1    0    0    0  501 -0.00000000000E+00  0.00000000000E+00  0.35411737655E+03  0.35411737655E+03  0.00000000000E+00 0.  1.
          1   -1    0    0  501    0  0.00000000000E+00 -0.00000000000E+00 -0.51497370754E+02  0.51497370754E+02  0.00000000000E+00 0. -1.
         23    2    1    2    0    0 -0.26640434160E+02  0.60833212096E+02  0.96283975519E+02  0.17119110019E+03  0.12500158566E+03 0.  0.
          5    1    3    3  502    0  0.47767133041E+02  0.43041266571E+02  0.50644603261E+02  0.81983019379E+02  0.47000000000E+01 0. -1.
         -5    1    3    3    0  502 -0.74407567201E+02  0.17791945525E+02  0.45639372258E+02  0.89208080814E+02  0.47000000000E+01 0. -1.
        -11    1    1    2    0    0  0.10642799433E+02 -0.79001560401E+02  0.18752976798E+03  0.20376930487E+03  0.00000000000E+00 0.  1.
         11    1    1    2    0    0  0.15997634727E+02  0.18168348305E+02  0.18806262291E+02  0.30654342243E+02  0.00000000000E+00 0. -1.
<mgrwt>
<rscale>  0 0.13328062E+03</rscale>
<asrwt>0</asrwt>
<pdfrwt beam="2">  1        1 0.79226727E-02 0.14154783E+03</pdfrwt>
<pdfrwt beam="1">  1       -1 0.54479595E-01 0.14154783E+03</pdfrwt>
<totfact> 0.29773313E+03</totfact>
</mgrwt>
</event>
<event>
 7    1  0.5928109E-006  0.1413330E+03  0.7546771E-02  0.1222705E+00
         -2   -1    0    0    0  501 -0.00000000000E+00  0.00000000000E+00  0.47280224951E+02  0.47280224951E+02  0.00000000000E+00 0.  1.
          2   -1    0    0  501    0  0.00000000000E+00 -0.00000000000E+00 -0.35847803401E+03  0.35847803401E+03  0.00000000000E+00 0. -1.
         23    2    1    2    0    0 -0.25552033520E+02  0.60822414440E+02 -0.22039308909E+03  0.26181695657E+03  0.12499092973E+03 0.  0.
          5    1    3    3  502    0 -0.35537971400E+02  0.80183707203E+01 -0.19211184029E+01  0.36783452478E+02  0.47000000000E+01 0.  1.
         -5    1    3    3    0  502  0.99859378802E+01  0.52804043719E+02 -0.21847197068E+03  0.22503350409E+03  0.47000000000E+01 0.  1.
        -11    1    1    2    0    0  0.32354459854E+02  0.93018025439E+01 -0.68732661928E+01  0.34359516748E+02  0.00000000000E+00 0.  1.
         11    1    1    2    0    0 -0.68024263341E+01 -0.70124216984E+02 -0.83931453780E+02  0.10958178565E+03  0.00000000000E+00 0. -1.
<mgrwt>
<rscale>  0 0.13325440E+03</rscale>
<asrwt>0</asrwt>
<pdfrwt beam="2">  1        2 0.55150466E-01 0.14133296E+03</pdfrwt>
<pdfrwt beam="1">  1       -2 0.72738809E-02 0.14133296E+03</pdfrwt>
<totfact> 0.94058584E+03</totfact>
</mgrwt>
</event>
<event>
 7    1  0.5928109E-006  0.1360120E+03  0.7546771E-02  0.1230754E+00
          2   -1    0    0  501    0  0.00000000000E+00  0.00000000000E+00  0.24175969814E+03  0.24175969814E+03  0.00000000000E+00 0. -1.
         -2   -1    0    0    0  501 -0.00000000000E+00 -0.00000000000E+00 -0.72481229856E+02  0.72481229856E+02  0.00000000000E+00 0.  1.
         23    2    1    2    0    0 -0.40991345457E+02 -0.34506876928E+02  0.15665896461E+03  0.20746396481E+03  0.12501300149E+03 0.  0.
          5    1    3    3  502    0 -0.63637982965E+02 -0.32963594790E+02  0.16721933106E+03  0.18199117050E+03  0.47000000000E+01 0.  1.
         -5    1    3    3    0  502  0.22646637508E+02 -0.15432821387E+01 -0.10560366455E+02  0.25472794307E+02  0.47000000000E+01 0.  1.
        -11    1    1    2    0    0  0.58731917489E+02 -0.59264083567E+01 -0.49905374901E+01  0.59240745373E+02  0.00000000000E+00 0.  1.
         11    1    1    2    0    0 -0.17740572032E+02  0.40433285285E+02  0.17610041169E+02  0.47536217823E+02  0.00000000000E+00 0. -1.
<mgrwt>
<rscale>  0 0.12780231E+03</rscale>
<asrwt>0</asrwt>
<pdfrwt beam="1">  1        2 0.37193799E-01 0.13601200E+03</pdfrwt>
<pdfrwt beam="2">  1       -2 0.11150959E-01 0.13601200E+03</pdfrwt>
<totfact> 0.73216390E+03</totfact>
</mgrwt>
</event>
<event>
 7    1  0.5928109E-006  0.1470458E+03  0.7546771E-02  0.1213947E+00
         -1   -1    0    0    0  501 -0.00000000000E+00  0.00000000000E+00  0.42941538464E+03  0.42941538464E+03  0.00000000000E+00 0.  1.
          1   -1    0    0  501    0  0.00000000000E+00 -0.00000000000E+00 -0.83887712218E+02  0.83887712218E+02  0.00000000000E+00 0. -1.
         23    2    1    2    0    0  0.65078694878E+02  0.41956532422E+02 -0.77071473220E+00  0.14704786509E+03  0.12500757372E+03 0.  0.
          5    1    3    3  502    0  0.64950776206E+02  0.68383408958E+02  0.36396740766E+02  0.10120131762E+03  0.47000000000E+01 0.  1.
         -5    1    3    3    0  502  0.12791867177E+00 -0.26426876536E+02 -0.37167455498E+02  0.45846547469E+02  0.47000000000E+01 0.  1.
        -11    1    1    2    0    0 -0.79314822706E+02 -0.22237017165E+02  0.32001012875E+03  0.33044183835E+03  0.00000000000E+00 0.  1.
         11    1    1    2    0    0  0.14236127828E+02 -0.19719515258E+02  0.26288258407E+02  0.35813393411E+02  0.00000000000E+00 0. -1.
<mgrwt>
<rscale>  0 0.13954145E+03</rscale>
<asrwt>0</asrwt>
<pdfrwt beam="2">  1        1 0.12905802E-01 0.14704585E+03</pdfrwt>
<pdfrwt beam="1">  1       -1 0.66063904E-01 0.14704585E+03</pdfrwt>
<totfact> 0.10812858E+03</totfact>
</mgrwt>
</event>
<event>
 7    1  0.5928109E-006  0.1319920E+03  0.7546771E-02  0.1235595E+00
         -1   -1    0    0    0  501 -0.00000000000E+00  0.00000000000E+00  0.33226878187E+02  0.33226878187E+02  0.00000000000E+00 0.  1.
          1   -1    0    0  501    0  0.00000000000E+00 -0.00000000000E+00 -0.52934545006E+03  0.52934545006E+03  0.00000000000E+00 0. -1.
         23    2    1    2    0    0 -0.37533466313E+02  0.19743690283E+02 -0.39618748099E+03  0.41759597318E+03  0.12499320908E+03 0.  0.
          5    1    3    3  502    0 -0.53483683375E+02  0.15297868152E+02 -0.39647014212E+03  0.40038130919E+03  0.47000000000E+01 0.  1.
         -5    1    3    3    0  502  0.15950217062E+02  0.44458221308E+01  0.28266112737E+00  0.17214663983E+02  0.47000000000E+01 0.  1.
        -11    1    1    2    0    0  0.10240056021E+02 -0.17862216496E+02  0.15864805884E+02  0.25992491054E+02  0.00000000000E+00 0.  1.
         11    1    1    2    0    0  0.27293410292E+02 -0.18814737871E+01 -0.11579589676E+03  0.11898386402E+03  0.00000000000E+00 0. -1.
<mgrwt>
<rscale>  0 0.12466427E+03</rscale>
<asrwt>0</asrwt>
<pdfrwt beam="2">  1        1 0.81437768E-01 0.13199196E+03</pdfrwt>
<pdfrwt beam="1">  1       -1 0.51118270E-02 0.13199196E+03</pdfrwt>
<totfact> 0.68181579E+03</totfact>
</mgrwt>
</event>
<event>
 7    1  0.5928109E-006  0.1376333E+03  0.7546771E-02  0.1227481E+00
          1   -1    0    0  501    0  0.00000000000E+00  0.00000000000E+00  0.11333381557E+03  0.11333381557E+03  0.00000000000E+00 0. -1.
         -1   -1    0    0    0  501 -0.00000000000E+00 -0.00000000000E+00 -0.14723310623E+03  0.14723310623E+03  0.00000000000E+00 0.  1.
         23    2    1    2    0    0  0.29856745446E+02 -0.49152592540E+02  0.19051937365E+02  0.13894566791E+03  0.12504207177E+03 0.  0.
          5    1    3    3  502    0 -0.31520907530E+02 -0.43797798640E+02  0.46449241438E+02  0.71354304757E+02  0.47000000000E+01 0.  1.
         -5    1    3    3    0  502  0.61377652976E+02 -0.53547939002E+01 -0.27397304072E+02  0.67591363154E+02  0.47000000000E+01 0.  1.
        -11    1    1    2    0    0  0.32316746552E+02  0.29227589734E+02 -0.27628640700E+02  0.51594242861E+02  0.00000000000E+00 0.  1.
         11    1    1    2    0    0 -0.62173491998E+02  0.19925002806E+02 -0.25322587331E+02  0.70027011026E+02  0.00000000000E+00 0. -1.
<mgrwt>
<rscale>  0 0.12998268E+03</rscale>
<asrwt>0</asrwt>
<pdfrwt beam="1">  1        1 0.17435972E-01 0.13763329E+03</pdfrwt>
<pdfrwt beam="2">  1       -1 0.22651247E-01 0.13763329E+03</pdfrwt>
<totfact> 0.47970788E+03</totfact>
</mgrwt>
</event>
<event>
 7    1  0.5928109E-006  0.1719345E+03  0.7546771E-02  0.1179954E+00
          3   -1    0    0  501    0  0.00000000000E+00  0.00000000000E+00  0.28441609836E+02  0.28441609836E+02  0.00000000000E+00 0. -1.
         -3   -1    0    0    0  501 -0.00000000000E+00 -0.00000000000E+00 -0.11075503779E+04  0.11075503779E+04  0.00000000000E+00 0.  1.
         23    2    1    2    0    0  0.10320570257E+03  0.57327721905E+02 -0.34653711934E+03  0.38684552814E+03  0.12499441114E+03 0.  0.
          5    1    3    3  502    0  0.12964194252E+03  0.29072335710E+02 -0.26611514856E+03  0.29747537084E+03  0.47000000000E+01 0. -1.
         -5    1    3    3    0  502 -0.26436239942E+02  0.28255386195E+02 -0.80421970781E+02  0.89370157299E+02  0.47000000000E+01 0. -1.
        -11    1    1    2    0    0 -0.25914832788E+02 -0.69557834424E+02 -0.27069492696E+03  0.28068775244E+03  0.00000000000E+00 0.  1.
         11    1    1    2    0    0 -0.77290869787E+02  0.12230112519E+02 -0.46187672175E+03  0.46845870714E+03  0.00000000000E+00 0. -1.
<mgrwt>
<rscale>  0 0.16799607E+03</rscale>
<asrwt>0</asrwt>
<pdfrwt beam="1">  1        3 0.43756322E-02 0.17193454E+03</pdfrwt>
<pdfrwt beam="2">  1       -3 0.17039237E+00 0.17193454E+03</pdfrwt>
<totfact> 0.16750794E+02</totfact>
</mgrwt>
</event>
<event>
 7    1  0.5928109E-006  0.1379725E+03  0.7546771E-02  0.1228835E+00
         -1   -1    0    0    0  501 -0.00000000000E+00  0.00000000000E+00  0.11717394188E+03  0.11717394188E+03  0.00000000000E+00 0.  1.
          1   -1    0    0  501    0  0.00000000000E+00 -0.00000000000E+00 -0.12695941734E+03  0.12695941734E+03  0.00000000000E+00 0. -1.
         23    2    1    2    0    0 -0.29904509288E+02  0.50089301023E+02 -0.11395755243E+02  0.13844226795E+03  0.12503271798E+03 0.  0.
          5    1    3    3  502    0 -0.48453777340E+02 -0.23123330326E+02 -0.28348025511E+02  0.60894642574E+02  0.47000000000E+01 0.  1.
         -5    1    3    3    0  502  0.18549268051E+02  0.73212631350E+02  0.16952270268E+02  0.77547625377E+02  0.47000000000E+01 0.  1.
        -11    1    1    2    0    0 -0.29706782843E+00 -0.61087637495E+02  0.24931351034E+02  0.65979996729E+02  0.00000000000E+00 0.  1.
         11    1    1    2    0    0  0.30201577117E+02  0.10998336472E+02 -0.23321071255E+02  0.39711094545E+02  0.00000000000E+00 0. -1.
<mgrwt>
<rscale>  0 0.12907475E+03</rscale>
<asrwt>0</asrwt>
<pdfrwt beam="2">  1        1 0.19532218E-01 0.13797245E+03</pdfrwt>
<pdfrwt beam="1">  1       -1 0.18026760E-01 0.13797245E+03</pdfrwt>
<totfact> 0.59909715E+03</totfact>
</mgrwt>
</event>
<event>
 7    1  0.5928109E-006  0.1378850E+03  0.7546771E-02  0.1227849E+00
         -1   -1    0    0    0  501 -0.00000000000E+00  0.00000000000E+00  0.24829425687E+02  0.24829425687E+02  0.00000000000E+00 0.  1.
          1   -1    0    0  501    0  0.00000000000E+00 -0.00000000000E+00 -0.66108855534E+03  0.66108855534E+03  0.00000000000E+00 0. -1.
         23    2    1    2    0    0 -0.58155200456E+02 -0.26945799517E+01 -0.44922000849E+03  0.46990518875E+03  0.12499192889E+03 0.  0.
          5    1    3    3  502    0 -0.87739196504E+02 -0.29547572764E+02 -0.24928412365E+03  0.26596219649E+03  0.47000000000E+01 0.  1.
         -5    1    3    3    0  502  0.29583996048E+02  0.26852992813E+02 -0.19993588484E+03  0.20394299226E+03  0.47000000000E+01 0.  1.
        -11    1    1    2    0    0  0.81673189086E+02  0.10021859956E+02 -0.15614973788E+03  0.17650407398E+03  0.00000000000E+00 0. -1.
         11    1    1    2    0    0 -0.23517988630E+02 -0.73272800043E+01 -0.30889383281E+02  0.39508718291E+02  0.00000000000E+00 0.  1.
<mgrwt>
<rscale>  0 0.12973534E+03</rscale>
<asrwt>0</asrwt>
<pdfrwt beam="2">  1        1 0.10170593E+00 0.13788499E+03</pdfrwt>
<pdfrwt beam="1">  1       -1 0.38199119E-02 0.13788499E+03</pdfrwt>
<totfact> 0.77648281E+03</totfact>
</mgrwt>
</event>
<event>
 7    1  0.5928109E-006  0.1406970E+03  0.7546771E-02  0.1223731E+00
         -2   -1    0    0    0  501 -0.00000000000E+00  0.00000000000E+00  0.11991793114E+02  0.11991793114E+02  0.00000000000E+00 0.  1.
          2   -1    0    0  501    0  0.00000000000E+00 -0.00000000000E+00 -0.18319214652E+04  0.18319214652E+04  0.00000000000E+00 0. -1.
         23    2    1    2    0    0 -0.61519751417E+01  0.64284492142E+02 -0.14733133478E+04  0.14800161741E+04  0.12500124799E+03 0.  0.
          5    1    3    3  502    0  0.39127738817E+02  0.30522892312E+02 -0.11924535571E+04  0.11934949529E+04  0.47000000000E+01 0. -1.
         -5    1    3    3    0  502 -0.45279713958E+02  0.33761599830E+02 -0.28085979071E+03  0.28652122112E+03  0.47000000000E+01 0. -1.
        -11    1    1    2    0    0 -0.28000139527E+02 -0.58053217005E+02 -0.13673861919E+03  0.15116756860E+03  0.00000000000E+00 0.  1.
         11    1    1    2    0    0  0.34152114669E+02 -0.62312751373E+01 -0.20987770508E+03  0.21272951562E+03  0.00000000000E+00 0. -1.
<mgrwt>
<rscale>  0 0.13254263E+03</rscale>
<asrwt>0</asrwt>
<pdfrwt beam="2">  1        2 0.28183404E+00 0.14069703E+03</pdfrwt>
<pdfrwt beam="1">  1       -2 0.18448915E-02 0.14069703E+03</pdfrwt>
<totfact> 0.78103640E+03</totfact>
</mgrwt>
</event>
<event>
 7    1  0.5928109E-006  0.1542557E+03  0.7546771E-02  0.1202973E+00
         -1   -1    0    0    0  501 -0.00000000000E+00  0.00000000000E+00  0.23768518571E+02  0.23768518571E+02  0.00000000000E+00 0.  1.
          1   -1    0    0  501    0  0.00000000000E+00 -0.00000000000E+00 -0.87865896215E+03  0.87865896215E+03  0.00000000000E+00 0. -1.
         23    2    1    2    0    0  0.46140762545E+02 -0.77728964432E+02 -0.53747914532E+03  0.55917676067E+03  0.12499622450E+03 0.  0.
          5    1    3    3  502    0  0.70257087568E+01  0.32738765990E+02 -0.17365246831E+03  0.17691369967E+03  0.47000000000E+01 0. -1.
         -5    1    3    3    0  502  0.39115053789E+02 -0.11046773042E+03 -0.36382667701E+03  0.38226306099E+03  0.47000000000E+01 0. -1.
        -11    1    1    2    0    0 -0.44515656464E+02  0.28408715372E+02 -0.26895560194E+03  0.27409088747E+03  0.00000000000E+00 0. -1.
         11    1    1    2    0    0 -0.16251060811E+01  0.49320249060E+02 -0.48455696323E+02  0.69159832585E+02  0.00000000000E+00 0.  1.
<mgrwt>
<rscale>  0 0.14798363E+03</rscale>
<asrwt>0</asrwt>
<pdfrwt beam="2">  1        1 0.13517831E+00 0.15425569E+03</pdfrwt>
<pdfrwt beam="1">  1       -1 0.36566950E-02 0.15425569E+03</pdfrwt>
<totfact> 0.54582499E+03</totfact>
</mgrwt>
</event>
<event>
 7    1  0.5928109E-006  0.1685326E+03  0.7546771E-02  0.1185685E+00
          2   -1    0    0  501    0  0.00000000000E+00  0.00000000000E+00  0.30672664708E+03  0.30672664708E+03  0.00000000000E+00 0. -1.
         -2   -1    0    0    0  501 -0.00000000000E+00 -0.00000000000E+00 -0.94534393395E+02  0.94534393395E+02  0.00000000000E+00 0.  1.
         23    2    1    2    0    0  0.83502816032E+02 -0.76183143276E+02  0.18871359793E+03  0.25301395794E+03  0.12500659688E+03 0.  0.
          5    1    3    3  502    0  0.10556901061E+03 -0.44603751643E+02  0.17967383772E+03  0.21316446379E+03  0.47000000000E+01 0. -1.
         -5    1    3    3    0  502 -0.22066194575E+02 -0.31579391633E+02  0.90397602041E+01  0.39849494144E+02  0.47000000000E+01 0. -1.
        -11    1    1    2    0    0 -0.94242796076E+02  0.40061570426E+02 -0.25692781317E+01  0.10243649363E+03  0.00000000000E+00 0.  1.
         11    1    1    2    0    0  0.10739980044E+02  0.36121572850E+02  0.26047933892E+02  0.45810588913E+02  0.00000000000E+00 0. -1.
<mgrwt>
<rscale>  0 0.16269735E+03</rscale>
<asrwt>0</asrwt>
<pdfrwt beam="1">  1        2 0.47188715E-01 0.16853261E+03</pdfrwt>
<pdfrwt beam="2">  1       -2 0.14543753E-01 0.16853261E+03</pdfrwt>
<totfact> 0.37495085E+03</totfact>
</mgrwt>
</event>
<event>
 7    1  0.5928109E-006  0.1335851E+03  0.7546771E-02  0.1234758E+00
          2   -1    0    0  501    0  0.00000000000E+00  0.00000000000E+00  0.12934638066E+03  0.12934638066E+03  0.00000000000E+00 0.  1.
         -2   -1    0    0    0  501 -0.00000000000E+00 -0.00000000000E+00 -0.10829167389E+03  0.10829167389E+03  0.00000000000E+00 0. -1.
         23    2    1    2    0    0  0.35954140503E+02  0.30437218760E+02  0.95244311761E+01  0.13392424134E+03  0.12500345245E+03 0.  0.
          5    1    3    3  502    0 -0.38487734027E+01 -0.21791224974E+02 -0.43738099246E+02  0.49242074167E+02  0.47000000000E+01 0. -1.
         -5    1    3    3    0  502  0.39802913905E+02  0.52228443735E+02  0.53262530422E+02  0.84682167174E+02  0.47000000000E+01 0. -1.
        -11    1    1    2    0    0 -0.24472708747E+02 -0.23680763059E+02  0.51411092540E+02  0.61666785620E+02  0.00000000000E+00 0.  1.
         11    1    1    2    0    0 -0.11481431755E+02 -0.67564557012E+01 -0.39880816945E+02  0.42047027588E+02  0.00000000000E+00 0. -1.
<mgrwt>
<rscale>  0 0.12519950E+03</rscale>
<asrwt>0</asrwt>
<pdfrwt beam="1">  1        2 0.19899443E-01 0.13358513E+03</pdfrwt>
<pdfrwt beam="2">  1       -2 0.16660258E-01 0.13358513E+03</pdfrwt>
<totfact> 0.75757231E+03</totfact>
</mgrwt>
</event>
<event>
 7    1  0.5928109E-006  0.1591099E+03  0.7546771E-02  0.1197261E+00
          2   -1    0    0  501    0  0.00000000000E+00  0.00000000000E+00  0.45900817487E+03  0.45900817487E+03  0.00000000000E+00 0. -1.
         -2   -1    0    0    0  501 -0.00000000000E+00 -0.00000000000E+00 -0.47049812017E+02  0.47049812017E+02  0.00000000000E+00 0.  1.
         23    2    1    2    0    0  0.88818858220E+02 -0.42456879607E+02  0.21984902750E+03  0.27138450049E+03  0.12499830403E+03 0.  0.
          5    1    3    3  502    0  0.94756804571E+02 -0.43617576027E+02  0.23346981089E+03  0.25575689149E+03  0.47000000000E+01 0. -1.
         -5    1    3    3    0  502 -0.59379463508E+01  0.11606964200E+01 -0.13620783383E+02  0.15627608998E+02  0.47000000000E+01 0. -1.
        -11    1    1    2    0    0 -0.57721842276E+02  0.50308986300E+02  0.56067156534E+02  0.94901692398E+02  0.00000000000E+00 0.  1.
         11    1    1    2    0    0 -0.31097015944E+02 -0.78521066931E+01  0.13604217882E+03  0.13977179400E+03  0.00000000000E+00 0. -1.
<mgrwt>
<rscale>  0 0.15264382E+03</rscale>
<asrwt>0</asrwt>
<pdfrwt beam="1">  1        2 0.70616639E-01 0.15910987E+03</pdfrwt>
<pdfrwt beam="2">  1       -2 0.72384329E-02 0.15910987E+03</pdfrwt>
<totfact> 0.73210450E+03</totfact>
</mgrwt>
</event>
<event>
 7    1  0.5928109E-006  0.1365769E+03  0.7546771E-02  0.1234110E+00
         -2   -1    0    0    0  501 -0.00000000000E+00  0.00000000000E+00  0.18462373622E+02  0.18462373622E+02  0.00000000000E+00 0.  1.
          2   -1    0    0  501    0  0.00000000000E+00 -0.00000000000E+00 -0.10952001648E+04  0.10952001648E+04  0.00000000000E+00 0. -1.
         23    2    1    2    0    0  0.54797535415E+02 -0.52187050099E+01 -0.91157269887E+03  0.92174727384E+03  0.12499298675E+03 0.  0.
          5    1    3    3  502    0 -0.18013284438E+02 -0.48216275425E+02 -0.37012927251E+03  0.37372055871E+03  0.47000000000E+01 0. -1.
         -5    1    3    3    0  502  0.72810819853E+02  0.42997570416E+02 -0.54144342636E+03  0.54802671513E+03  0.47000000000E+01 0. -1.
        -11    1    1    2    0    0 -0.68495437549E+02  0.14885185228E+02 -0.15949387215E+03  0.17421678724E+03  0.00000000000E+00 0. -1.
         11    1    1    2    0    0  0.13697902134E+02 -0.96664802185E+01 -0.56712201862E+01  0.17698477366E+02  0.00000000000E+00 0.  1.
<mgrwt>
<rscale>  0 0.12561587E+03</rscale>
<asrwt>0</asrwt>
<pdfrwt beam="2">  1        2 0.16849235E+00 0.13657691E+03</pdfrwt>
<pdfrwt beam="1">  1       -2 0.28403648E-02 0.13657691E+03</pdfrwt>
<totfact> 0.10215051E+04</totfact>
</mgrwt>
</event>
<event>
 7    1  0.5928109E-006  0.1359235E+03  0.7546771E-02  0.1231033E+00
         -2   -1    0    0    0  501 -0.00000000000E+00  0.00000000000E+00  0.22696523643E+03  0.22696523643E+03  0.00000000000E+00 0.  1.
          2   -1    0    0  501    0  0.00000000000E+00 -0.00000000000E+00 -0.77174852018E+02  0.77174852018E+02  0.00000000000E+00 0. -1.
         23    2    1    2    0    0 -0.47416117277E+02  0.24527698196E+02  0.20936966389E+02  0.13752653936E+03  0.12500118524E+03 0.  0.
          5    1    3    3  502    0 -0.17755729004E+02 -0.71953916814E+01 -0.50262462575E+02  0.53994858255E+02  0.47000000000E+01 0. -1.
         -5    1    3    3    0  502 -0.29660388273E+02  0.31723089877E+02  0.71199428964E+02  0.83531681108E+02  0.47000000000E+01 0. -1.
        -11    1    1    2    0    0 -0.10333246372E+02  0.10254588681E+02 -0.60799530415E+01  0.15776514146E+02  0.00000000000E+00 0. -1.
         11    1    1    2    0    0  0.57749363650E+02 -0.34782286877E+02  0.13493337106E+03  0.15083703494E+03  0.00000000000E+00 0.  1.
<mgrwt>
<rscale>  0 0.12761851E+03</rscale>
<asrwt>0</asrwt>
<pdfrwt beam="2">  1        2 0.11873054E-01 0.13592348E+03</pdfrwt>
<pdfrwt beam="1">  1       -2 0.34917728E-01 0.13592348E+03</pdfrwt>
<totfact> 0.38209408E+03</totfact>
</mgrwt>
</event>
<event>
 7    1  0.5928109E-006  0.1404965E+03  0.7546771E-02  0.1223830E+00
          1   -1    0    0  501    0  0.00000000000E+00  0.00000000000E+00  0.87986003666E+03  0.87986003666E+03  0.00000000000E+00 0. -1.
         -1   -1    0    0    0  501 -0.00000000000E+00 -0.00000000000E+00 -0.18893787469E+02  0.18893787469E+02  0.00000000000E+00 0.  1.
         23    2    1    2    0    0 -0.61408538866E+02  0.18547367179E+02  0.57664442510E+03  0.59351330724E+03  0.12499695755E+03 0.  0.
          5    1    3    3  502    0 -0.93136774325E+02  0.17948600220E+02  0.51832390598E+03  0.52695196413E+03  0.47000000000E+01 0. -1.
         -5    1    3    3    0  502  0.31728235459E+02  0.59876695875E+00  0.58320519117E+02  0.66561343115E+02  0.47000000000E+01 0. -1.
        -11    1    1    2    0    0  0.82174986063E+02 -0.19120978293E+01  0.18542903986E+03  0.20283075032E+03  0.00000000000E+00 0. -1.
         11    1    1    2    0    0 -0.20766447197E+02 -0.16635269350E+02  0.98892784231E+02  0.10240976657E+03  0.00000000000E+00 0.  1.
<mgrwt>
<rscale>  0 0.13247443E+03</rscale>
<asrwt>0</asrwt>
<pdfrwt beam="1">  1        1 0.13536305E+00 0.14049645E+03</pdfrwt>
<pdfrwt beam="2">  1       -1 0.29067372E-02 0.14049645E+03</pdfrwt>
<totfact> 0.75856567E+03</totfact>
</mgrwt>
</event>
<event>
 7    1  0.5928109E-006  0.1534432E+03  0.7546771E-02  0.1204984E+00
          2   -1    0    0  501    0  0.00000000000E+00  0.00000000000E+00  0.24474243061E+03  0.24474243061E+03  0.00000000000E+00 0. -1.
         -2   -1    0    0    0  501 -0.00000000000E+00 -0.00000000000E+00 -0.80512201600E+02  0.80512201600E+02  0.00000000000E+00 0.  1.
         23    2    1    2    0    0 -0.53250887397E+02 -0.71294964255E+02  0.95896909198E+02  0.18094484427E+03  0.12500476206E+03 0.  0.
          5    1    3    3  502    0 -0.52477478808E+02  0.23237112472E+02  0.25466401865E+02  0.62964091370E+02  0.47000000000E+01 0.  1.
         -5    1    3    3    0  502 -0.77340858863E+00 -0.94532076727E+02  0.70430507333E+02  0.11798075290E+03  0.47000000000E+01 0.  1.
        -11    1    1    2    0    0  0.62091182595E+02  0.22773952743E+02  0.83610006673E+01  0.66662389784E+02  0.00000000000E+00 0.  1.
         11    1    1    2    0    0 -0.88402951981E+01  0.48521011511E+02  0.59972319150E+02  0.77647398163E+02  0.00000000000E+00 0. -1.
<mgrwt>
<rscale>  0 0.14638685E+03</rscale>
<asrwt>0</asrwt>
<pdfrwt beam="1">  1        2 0.37652681E-01 0.15344321E+03</pdfrwt>
<pdfrwt beam="2">  1       -2 0.12386493E-01 0.15344321E+03</pdfrwt>
<totfact> 0.61585211E+03</totfact>
</mgrwt>
</event>
<event>
 7    1  0.5928109E-006  0.1299752E+03  0.7546771E-02  0.1241910E+00
         -1   -1    0    0    0  501 -0.00000000000E+00  0.00000000000E+00  0.88393939236E+02  0.88393939236E+02  0.00000000000E+00 0.  1.
          1   -1    0    0  501    0  0.00000000000E+00 -0.00000000000E+00 -0.18801493187E+03  0.18801493187E+03  0.00000000000E+00 0. -1.
         23    2    1    2    0    0 -0.26804255039E+02  0.23435294148E+02 -0.12073459797E+03  0.17739895288E+03  0.12500345690E+03 0.  0.
          5    1    3    3  502    0  0.44544511411E+02  0.35145892777E+02 -0.44847236700E+02  0.72476285194E+02  0.47000000000E+01 0. -1.
         -5    1    3    3    0  502 -0.71348766450E+02 -0.11710598630E+02 -0.75887361269E+02  0.10492266769E+03  0.47000000000E+01 0. -1.
        -11    1    1    2    0    0  0.44057799805E+01 -0.12409634124E+02  0.55205621208E+02  0.56754475852E+02  0.00000000000E+00 0.  1.
         11    1    1    2    0    0  0.22398475059E+02 -0.11025660023E+02 -0.34092015876E+02  0.42255442376E+02  0.00000000000E+00 0. -1.
<mgrwt>
<rscale>  0 0.12072256E+03</rscale>
<asrwt>0</asrwt>
<pdfrwt beam="2">  1        1 0.28925374E-01 0.12997517E+03</pdfrwt>
<pdfrwt beam="1">  1       -1 0.13599068E-01 0.12997517E+03</pdfrwt>
<totfact> 0.56709679E+03</totfact>
</mgrwt>
</event>
<event>
 7    1  0.5928109E-006  0.1347966E+03  0.7546771E-02  0.1233767E+00
          3   -1    0    0  501    0  0.00000000000E+00  0.00000000000E+00  0.36537860743E+02  0.36537860743E+02  0.00000000000E+00 0.  1.
         -3   -1    0    0    0  501 -0.00000000000E+00 -0.00000000000E+00 -0.38790231215E+03  0.38790231215E+03  0.00000000000E+00 0. -1.
         23    2    1    2    0    0 -0.24356113041E+01 -0.50380100429E+02 -0.18095159745E+03  0.22564042205E+03  0.12500413081E+03 0.  0.
          5    1    3    3  502    0 -0.25020971562E+02 -0.81417984297E+02 -0.77713179073E+02  0.11539655708E+03  0.47000000000E+01 0.  1.
         -5    1    3    3    0  502  0.22585360258E+02  0.31037883868E+02 -0.10323841838E+03  0.11024386497E+03  0.47000000000E+01 0.  1.
        -11    1    1    2    0    0 -0.19605735757E+02  0.61638847223E+02 -0.15878548160E+03  0.17145425492E+03  0.00000000000E+00 0. -1.
         11    1    1    2    0    0  0.22041347061E+02 -0.11258746794E+02 -0.11627372350E+02  0.27345495925E+02  0.00000000000E+00 0.  1.
<mgrwt>
<rscale>  0 0.12583703E+03</rscale>
<asrwt>0</asrwt>
<pdfrwt beam="1">  1        3 0.56212090E-02 0.13479659E+03</pdfrwt>
<pdfrwt beam="2">  1       -3 0.59677282E-01 0.13479659E+03</pdfrwt>
<totfact> 0.12105661E+03</totfact>
</mgrwt>
</event>
<event>
 7    1  0.5928109E-006  0.3552758E+03  0.7546771E-02  0.1061414E+00
          2   -1    0    0  501    0  0.00000000000E+00  0.00000000000E+00  0.54757056835E+03  0.54757056835E+03  0.00000000000E+00 0.  1.
         -2   -1    0    0    0  501 -0.00000000000E+00 -0.00000000000E+00 -0.23126170800E+03  0.23126170800E+03  0.00000000000E+00 0. -1.
         23    2    1    2    0    0 -0.31561808681E+03 -0.10462980771E+03  0.22649868047E+03  0.42133428128E+03  0.12513493097E+03 0.  0.
          5    1    3    3  502    0 -0.10773036480E+03 -0.54559053645E+02  0.15344045518E+03  0.19531662786E+03  0.47000000000E+01 0. -1.
         -5    1    3    3    0  502 -0.20788772201E+03 -0.50070754062E+02  0.73058225290E+02  0.22601765342E+03  0.47000000000E+01 0. -1.
        -11    1    1    2    0    0  0.16776288669E+03  0.10418980346E+03  0.62525671800E+02  0.20714574804E+03  0.00000000000E+00 0.  1.
         11    1    1    2    0    0  0.14785520011E+03  0.44000424834E+00  0.27284508084E+02  0.15035224703E+03  0.00000000000E+00 0. -1.
<mgrwt>
<rscale>  0 0.35294228E+03</rscale>
<asrwt>0</asrwt>
<pdfrwt beam="1">  1        2 0.84241626E-01 0.35527584E+03</pdfrwt>
<pdfrwt beam="2">  1       -2 0.35578724E-01 0.35527584E+03</pdfrwt>
<totfact> 0.41891721E+02</totfact>
</mgrwt>
</event>
<event>
 7    1  0.5928109E-006  0.1275155E+03  0.7546771E-02  0.1245649E+00
          2   -1    0    0  501    0  0.00000000000E+00  0.00000000000E+00  0.23710017445E+03  0.23710017445E+03  0.00000000000E+00 0. -1.
         -2   -1    0    0    0  501 -0.00000000000E+00 -0.00000000000E+00 -0.54264168913E+02  0.54264168913E+02  0.00000000000E+00 0.  1.
         23    2    1    2    0    0  0.25192501447E+02 -0.73995576216E-01  0.13236879637E+03  0.18379801800E+03  0.12500218224E+03 0.  0.
          5    1    3    3  502    0  0.19815417154E+02 -0.46034007745E+02  0.12744579095E+03  0.13702664068E+03  0.47000000000E+01 0. -1.
         -5    1    3    3    0  502  0.53770842935E+01  0.45960012168E+02  0.49230054164E+01  0.46771377319E+02  0.47000000000E+01 0. -1.
        -11    1    1    2    0    0  0.22884149388E+01  0.21016706817E+02  0.66278872079E+02  0.69568870140E+02  0.00000000000E+00 0. -1.
         11    1    1    2    0    0 -0.27480916386E+02 -0.20942711241E+02 -0.15811662907E+02  0.37997455223E+02  0.00000000000E+00 0.  1.
<mgrwt>
<rscale>  0 0.11846626E+03</rscale>
<asrwt>0</asrwt>
<pdfrwt beam="1">  1        2 0.36476949E-01 0.12751554E+03</pdfrwt>
<pdfrwt beam="2">  1       -2 0.83483338E-02 0.12751554E+03</pdfrwt>
<totfact> 0.11704176E+04</totfact>
</mgrwt>
</event>
<event>
 7    1  0.5928109E-006  0.2434900E+03  0.7546771E-02  0.1120104E+00
         -2   -1    0    0    0  501 -0.00000000000E+00  0.00000000000E+00  0.15257439012E+03  0.15257439012E+03  0.00000000000E+00 0.  1.
          2   -1    0    0  501    0  0.00000000000E+00 -0.00000000000E+00 -0.37445039113E+03  0.37445039113E+03  0.00000000000E+00 0. -1.
         23    2    1    2    0    0  0.16122107861E+03  0.13293898933E+03 -0.15778971104E+03  0.29014645846E+03  0.12498945305E+03 0.  0.
          5    1    3    3  502    0  0.40794382095E+02 -0.22482253666E+02 -0.30063770052E+02  0.55637699541E+02  0.47000000000E+01 0. -1.
         -5    1    3    3    0  502  0.12042669652E+03  0.15542124300E+03 -0.12772594098E+03  0.23450875892E+03  0.47000000000E+01 0. -1.
        -11    1    1    2    0    0 -0.11322075567E+03 -0.12604609830E+03 -0.77865296984E+02  0.18646598319E+03  0.00000000000E+00 0. -1.
         11    1    1    2    0    0 -0.48000322945E+02 -0.68928910279E+01  0.13779007017E+02  0.50412339600E+02  0.00000000000E+00 0.  1.
<mgrwt>
<rscale>  0 0.23953320E+03</rscale>
<asrwt>0</asrwt>
<pdfrwt beam="2">  1        2 0.57607752E-01 0.24348999E+03</pdfrwt>
<pdfrwt beam="1">  1       -2 0.23472983E-01 0.24348999E+03</pdfrwt>
<totfact> 0.13618018E+03</totfact>
</mgrwt>
</event>
<event>
 7    1  0.5928109E-006  0.1910259E+03  0.7546771E-02  0.1162388E+00
         -2   -1    0    0    0  501 -0.00000000000E+00  0.00000000000E+00  0.70110182235E+02  0.70110182235E+02  0.00000000000E+00 0.  1.
          2   -1    0    0  501    0  0.00000000000E+00 -0.00000000000E+00 -0.47587596417E+03  0.47587596417E+03  0.00000000000E+00 0. -1.
         23    2    1    2    0    0 -0.34686332275E+02 -0.14022614248E+03 -0.25254379120E+03  0.31665321983E+03  0.12499752987E+03 0.  0.
          5    1    3    3  502    0  0.36131222136E+02 -0.67908242626E+02 -0.55131651131E+02  0.94755388164E+02  0.47000000000E+01 0.  1.
         -5    1    3    3    0  502 -0.70817554411E+02 -0.72317899850E+02 -0.19741214006E+03  0.22189783166E+03  0.47000000000E+01 0.  1.
        -11    1    1    2    0    0 -0.88161412193E+01  0.61598171038E+02 -0.14245242767E+02  0.63835616725E+02  0.00000000000E+00 0.  1.
         11    1    1    2    0    0  0.43502473494E+02  0.78627971438E+02 -0.13897674798E+03  0.16549730986E+03  0.00000000000E+00 0. -1.
<mgrwt>
<rscale>  0 0.18571065E+03</rscale>
<asrwt>0</asrwt>
<pdfrwt beam="2">  1        2 0.73211688E-01 0.19102590E+03</pdfrwt>
<pdfrwt beam="1">  1       -2 0.10786182E-01 0.19102590E+03</pdfrwt>
<totfact> 0.38019732E+03</totfact>
</mgrwt>
</event>
<event>
 7    1  0.5928109E-006  0.1700338E+03  0.7546771E-02  0.1184149E+00
         -2   -1    0    0    0  501 -0.00000000000E+00  0.00000000000E+00  0.31037086189E+02  0.31037086189E+02  0.00000000000E+00 0.  1.
          2   -1    0    0  501    0  0.00000000000E+00 -0.00000000000E+00 -0.84595063137E+03  0.84595063137E+03  0.00000000000E+00 0. -1.
         23    2    1    2    0    0 -0.95255538278E+02 -0.64921322192E+02 -0.34777191395E+03  0.38711341146E+03  0.12499237397E+03 0.  0.
          5    1    3    3  502    0 -0.93122871518E+02 -0.69784837701E+01 -0.12053964425E+03  0.15255315228E+03  0.47000000000E+01 0. -1.
         -5    1    3    3    0  502 -0.21326667603E+01 -0.57942838422E+02 -0.22723226970E+03  0.23456025918E+03  0.47000000000E+01 0. -1.
        -11    1    1    2    0    0  0.10875649079E+03  0.47846428761E+02 -0.43585877283E+03  0.45176335054E+03  0.00000000000E+00 0.  1.
         11    1    1    2    0    0 -0.13500952508E+02  0.17074893431E+02 -0.31282858393E+02  0.38110955558E+02  0.00000000000E+00 0. -1.
<mgrwt>
<rscale>  0 0.16409586E+03</rscale>
<asrwt>0</asrwt>
<pdfrwt beam="2">  1        2 0.13014625E+00 0.17003379E+03</pdfrwt>
<pdfrwt beam="1">  1       -2 0.47749362E-02 0.17003379E+03</pdfrwt>
<totfact> 0.67781166E+03</totfact>
</mgrwt>
</event>
<event>
 7    1  0.5928109E-006  0.1538044E+03  0.7546771E-02  0.1204632E+00
          2   -1    0    0  501    0  0.00000000000E+00  0.00000000000E+00  0.18164883050E+03  0.18164883050E+03  0.00000000000E+00 0. -1.
         -2   -1    0    0    0  501 -0.00000000000E+00 -0.00000000000E+00 -0.11193086328E+03  0.11193086328E+03  0.00000000000E+00 0.  1.
         23    2    1    2    0    0 -0.82184741921E+02 -0.35719314229E+02  0.13065704227E+02  0.15435840735E+03  0.12500241630E+03 0.  0.
          5    1    3    3  502    0  0.52508902842E+00 -0.36399614801E+02 -0.41310179248E+02  0.55261456601E+02  0.47000000000E+01 0. -1.
         -5    1    3    3    0  502 -0.82709830950E+02  0.68030057180E+00  0.54375883475E+02  0.99096950752E+02  0.47000000000E+01 0. -1.
        -11    1    1    2    0    0  0.68290953553E+02  0.61472816091E+02  0.60044668425E+02  0.10976303413E+03  0.00000000000E+00 0.  1.
         11    1    1    2    0    0  0.13893788368E+02 -0.25753501862E+02 -0.33924054303E+01  0.29458252290E+02  0.00000000000E+00 0. -1.
<mgrwt>
<rscale>  0 0.14666476E+03</rscale>
<asrwt>0</asrwt>
<pdfrwt beam="1">  1        2 0.27945974E-01 0.15380444E+03</pdfrwt>
<pdfrwt beam="2">  1       -2 0.17220133E-01 0.15380444E+03</pdfrwt>
<totfact> 0.49620738E+03</totfact>
</mgrwt>
</event>
<event>
 7    1  0.5928109E-006  0.1622743E+03  0.7546771E-02  0.1192625E+00
          1   -1    0    0  501    0  0.00000000000E+00  0.00000000000E+00  0.25951983769E+03  0.25951983769E+03  0.00000000000E+00 0. -1.
         -1   -1    0    0    0  501 -0.00000000000E+00 -0.00000000000E+00 -0.92353924220E+02  0.92353924220E+02  0.00000000000E+00 0.  1.
         23    2    1    2    0    0  0.10087598322E+03 -0.23058195832E+02  0.52917228592E+02  0.17068448795E+03  0.12500126784E+03 0.  0.
          5    1    3    3  502    0  0.12019108711E+03 -0.85616682172E+01  0.97278544448E+01  0.12097900948E+03  0.47000000000E+01 0. -1.
         -5    1    3    3    0  502 -0.19315103888E+02 -0.14496527614E+02  0.43189374147E+02  0.49705478473E+02  0.47000000000E+01 0. -1.
        -11    1    1    2    0    0 -0.47685861283E+02  0.34542782005E+02  0.49454329274E+01  0.59089783057E+02  0.00000000000E+00 0.  1.
         11    1    1    2    0    0 -0.53190121935E+02 -0.11484586173E+02  0.10930325195E+03  0.12209949090E+03  0.00000000000E+00 0. -1.
<mgrwt>
<rscale>  0 0.15656939E+03</rscale>
<asrwt>0</asrwt>
<pdfrwt beam="1">  1        1 0.39926129E-01 0.16227434E+03</pdfrwt>
<pdfrwt beam="2">  1       -1 0.14208296E-01 0.16227434E+03</pdfrwt>
<totfact> 0.35925672E+03</totfact>
</mgrwt>
</event>
<event>
 7    1  0.5928109E-006  0.1254721E+03  0.7546771E-02  0.1252902E+00
         -2   -1    0    0    0  501 -0.00000000000E+00  0.00000000000E+00  0.75071035857E+02  0.75071035857E+02  0.00000000000E+00 0.  1.
          2   -1    0    0  501    0  0.00000000000E+00 -0.00000000000E+00 -0.14938544552E+03  0.14938544552E+03  0.00000000000E+00 0. -1.
         23    2    1    2    0    0 -0.94149588203E+01  0.51914608388E+01 -0.40995140907E+02  0.13199945164E+03  0.12501064331E+03 0.  0.
          5    1    3    3  502    0 -0.41498204413E+02 -0.43414602464E+02  0.65509112632E+00  0.60244898713E+02  0.47000000000E+01 0. -1.
         -5    1    3    3    0  502  0.32083245593E+02  0.48606063302E+02 -0.41650232033E+02  0.71754552928E+02  0.47000000000E+01 0. -1.
        -11    1    1    2    0    0  0.19586546657E+02 -0.80096060626E+01  0.25249820117E+02  0.32944499012E+02  0.00000000000E+00 0.  1.
         11    1    1    2    0    0 -0.10171587837E+02  0.28181452238E+01 -0.58569088873E+02  0.59512530723E+02  0.00000000000E+00 0. -1.
<mgrwt>
<rscale>  0 0.11424663E+03</rscale>
<asrwt>0</asrwt>
<pdfrwt beam="2">  1        2 0.22982376E-01 0.12547212E+03</pdfrwt>
<pdfrwt beam="1">  1       -2 0.11549390E-01 0.12547212E+03</pdfrwt>
<totfact> 0.11608070E+04</totfact>
</mgrwt>
</event>
<event>
 7    1  0.5928109E-006  0.1494781E+03  0.7546771E-02  0.1210210E+00
         -1   -1    0    0    0  501 -0.00000000000E+00  0.00000000000E+00  0.14404900892E+03  0.14404900892E+03  0.00000000000E+00 0.  1.
          1   -1    0    0  501    0  0.00000000000E+00 -0.00000000000E+00 -0.13270189194E+03  0.13270189194E+03  0.00000000000E+00 0. -1.
         23    2    1    2    0    0  0.30748178233E+02  0.75984770793E+02 -0.17478213322E+02  0.15049644178E+03  0.12499822075E+03 0.  0.
          5    1    3    3  502    0 -0.30790943252E+02  0.77513750907E+02 -0.27506988108E+02  0.87949918481E+02  0.47000000000E+01 0.  1.
         -5    1    3    3    0  502  0.61539121486E+02 -0.15289801134E+01  0.10028774787E+02  0.62546523302E+02  0.47000000000E+01 0.  1.
        -11    1    1    2    0    0  0.20508722089E+02 -0.43495714303E+02  0.42351556277E+02  0.64079163256E+02  0.00000000000E+00 0.  1.
         11    1    1    2    0    0 -0.51256900322E+02 -0.32489056491E+02 -0.13526225975E+02  0.62175295829E+02  0.00000000000E+00 0. -1.
<mgrwt>
<rscale>  0 0.14234381E+03</rscale>
<asrwt>0</asrwt>
<pdfrwt beam="2">  1        1 0.20415676E-01 0.14947806E+03</pdfrwt>
<pdfrwt beam="1">  1       -1 0.22161386E-01 0.14947806E+03</pdfrwt>
<totfact> 0.40826441E+03</totfact>
</mgrwt>
</event>
<event>
 7    1  0.5928109E-006  0.1414554E+03  0.7546771E-02  0.1220833E+00
         -2   -1    0    0    0  501 -0.00000000000E+00  0.00000000000E+00  0.22209772491E+03  0.22209772491E+03  0.00000000000E+00 0. -1.
          2   -1    0    0  501    0  0.00000000000E+00 -0.00000000000E+00 -0.77064088855E+02  0.77064088855E+02  0.00000000000E+00 0.  1.
         23    2    1    2    0    0  0.65204008070E+02  0.11580850955E+02  0.52462320645E+02  0.15087055548E+03  0.12499580252E+03 0.  0.
          5    1    3    3  502    0  0.10268591459E+03  0.10103161787E+02  0.33560438291E+02  0.10860416176E+03  0.47000000000E+01 0. -1.
         -5    1    3    3    0  502 -0.37481906522E+02  0.14776891677E+01  0.18901882355E+02  0.42266393723E+02  0.47000000000E+01 0. -1.
        -11    1    1    2    0    0 -0.63237123283E+02 -0.30824933128E+02  0.19930197270E+02  0.73118554599E+02  0.00000000000E+00 0.  1.
         11    1    1    2    0    0 -0.19668847870E+01  0.19244082173E+02  0.72641118134E+02  0.75172703678E+02  0.00000000000E+00 0. -1.
<mgrwt>
<rscale>  0 0.13456656E+03</rscale>
<asrwt>0</asrwt>
<pdfrwt beam="2">  1        2 0.11856014E-01 0.14145540E+03</pdfrwt>
<pdfrwt beam="1">  1       -2 0.34168880E-01 0.14145540E+03</pdfrwt>
<totfact> 0.39934196E+03</totfact>
</mgrwt>
</event>
<event>
 7    1  0.5928109E-006  0.1695947E+03  0.7546771E-02  0.1185039E+00
          2   -1    0    0  501    0  0.00000000000E+00  0.00000000000E+00  0.45312785114E+02  0.45312785114E+02  0.00000000000E+00 0. -1.
         -2   -1    0    0    0  501 -0.00000000000E+00 -0.00000000000E+00 -0.55439025087E+03  0.55439025087E+03  0.00000000000E+00 0.  1.
         23    2    1    2    0    0 -0.56922208681E+02 -0.99592308988E+02 -0.24292613436E+03  0.29626923474E+03  0.12491431803E+03 0.  0.
          5    1    3    3  502    0  0.16047266230E+02  0.76638600708E+00 -0.12131857892E+03  0.12246791291E+03  0.47000000000E+01 0.  1.
         -5    1    3    3    0  502 -0.72969474911E+02 -0.10035869499E+03 -0.12160755543E+03  0.17380132183E+03  0.47000000000E+01 0.  1.
        -11    1    1    2    0    0  0.37084203956E+02  0.96121822490E+02 -0.26374189919E+03  0.28315090028E+03  0.00000000000E+00 0.  1.
         11    1    1    2    0    0  0.19838004725E+02  0.34704864976E+01 -0.24094322098E+01  0.20282900965E+02  0.00000000000E+00 0. -1.
<mgrwt>
<rscale>  0 0.16328341E+03</rscale>
<asrwt>0</asrwt>
<pdfrwt beam="1">  1        2 0.69711980E-02 0.16959467E+03</pdfrwt>
<pdfrwt beam="2">  1       -2 0.85290804E-01 0.16959467E+03</pdfrwt>
<totfact> 0.12290799E+03</totfact>
</mgrwt>
</event>
<event>
 7    1  0.5928109E-006  0.1378101E+03  0.7546771E-02  0.1228043E+00
         -2   -1    0    0    0  501 -0.00000000000E+00  0.00000000000E+00  0.92244826024E+02  0.92244826024E+02  0.00000000000E+00 0.  1.
          2   -1    0    0  501    0  0.00000000000E+00 -0.00000000000E+00 -0.16413050867E+03  0.16413050867E+03  0.00000000000E+00 0. -1.
         23    2    1    2    0    0  0.42066487525E+02 -0.39978699371E+02 -0.48211074478E+02  0.14599977065E+03  0.12499495811E+03 0.  0.
          5    1    3    3  502    0 -0.29901678989E+02 -0.44812293998E+02  0.76917296040E+01  0.54621468343E+02  0.47000000000E+01 0.  1.
         -5    1    3    3    0  502  0.71968166514E+02  0.48335946268E+01 -0.55902804082E+02  0.91378302308E+02  0.47000000000E+01 0.  1.
        -11    1    1    2    0    0 -0.63160261580E+01  0.53235810015E+02  0.15402792420E+02  0.55778039305E+02  0.00000000000E+00 0.  1.
         11    1    1    2    0    0 -0.35750461367E+02 -0.13257110645E+02 -0.39077400588E+02  0.54597524736E+02  0.00000000000E+00 0. -1.
<mgrwt>
<rscale>  0 0.12960513E+03</rscale>
<asrwt>0</asrwt>
<pdfrwt beam="2">  1        2 0.25250848E-01 0.13781011E+03</pdfrwt>
<pdfrwt beam="1">  1       -2 0.14191512E-01 0.13781011E+03</pdfrwt>
<totfact> 0.75694317E+03</totfact>
</mgrwt>
</event>
<event>
 7    1  0.5928109E-006  0.1964968E+03  0.7546771E-02  0.1157387E+00
          2   -1    0    0  501    0  0.00000000000E+00  0.00000000000E+00  0.10283922640E+04  0.10283922640E+04  0.00000000000E+00 0. -1.
         -2   -1    0    0    0  501 -0.00000000000E+00 -0.00000000000E+00 -0.34179902663E+02  0.34179902663E+02  0.00000000000E+00 0.  1.
         23    2    1    2    0    0  0.10916609833E+03 -0.10521024258E+03  0.58303766745E+03  0.61525923122E+03  0.12499827107E+03 0.  0.
          5    1    3    3  502    0  0.12969053843E+03 -0.69940467835E+02  0.51591947193E+03  0.53656900424E+03  0.47000000000E+01 0.  1.
         -5    1    3    3    0  502 -0.20524440103E+02 -0.35269774743E+02  0.67118195525E+02  0.78690226983E+02  0.47000000000E+01 0.  1.
        -11    1    1    2    0    0 -0.69268224268E+02  0.33421708584E+02  0.10400484577E+03  0.12935263987E+03  0.00000000000E+00 0.  1.
         11    1    1    2    0    0 -0.39897874059E+02  0.71788533995E+02  0.30716984813E+03  0.31796029559E+03  0.00000000000E+00 0. -1.
<mgrwt>
<rscale>  0 0.19119621E+03</rscale>
<asrwt>0</asrwt>
<pdfrwt beam="1">  1        2 0.15821417E+00 0.19649682E+03</pdfrwt>
<pdfrwt beam="2">  1       -2 0.52584474E-02 0.19649682E+03</pdfrwt>
<totfact> 0.45261971E+03</totfact>
</mgrwt>
</event>
<event>
 7    1  0.5928109E-006  0.1112193E+03  0.7546771E-02  0.1267972E+00
         -1   -1    0    0    0  501 -0.00000000000E+00  0.00000000000E+00  0.20265968545E+02  0.20265968545E+02  0.00000000000E+00 0.  1.
          1   -1    0    0  501    0  0.00000000000E+00 -0.00000000000E+00 -0.51700095830E+03  0.51700095830E+03  0.00000000000E+00 0. -1.
         23    2    1    2    0    0 -0.48375185978E+01 -0.91742457180E+01 -0.30258482053E+03  0.32237759409E+03  0.11073468827E+03 0.  0.
          5    1    3    3  502    0 -0.17191260475E+02  0.35763587424E+02 -0.24457275963E+03  0.24781545225E+03  0.47000000000E+01 0. -1.
         -5    1    3    3    0  502  0.12353741877E+02 -0.44937833142E+02 -0.58012060904E+02  0.74562141843E+02  0.47000000000E+01 0.  1.
        -11    1    1    2    0    0 -0.20798220390E+01  0.50245844818E+02 -0.11256469626E+03  0.12328739362E+03  0.00000000000E+00 0. -1.
         11    1    1    2    0    0  0.69173406368E+01 -0.41071599100E+02 -0.81585472961E+02  0.91601939130E+02  0.00000000000E+00 0.  1.
<mgrwt>
<rscale>  0 0.10609741E+03</rscale>
<asrwt>0</asrwt>
<pdfrwt beam="2">  1        1 0.79538609E-01 0.11121933E+03</pdfrwt>
<pdfrwt beam="1">  1       -1 0.31178413E-02 0.11121933E+03</pdfrwt>
<totfact> 0.14325008E+04</totfact>
</mgrwt>
</event>
<event>
 7    1  0.5928109E-006  0.2438282E+03  0.7546771E-02  0.1119576E+00
         -1   -1    0    0    0  501 -0.00000000000E+00  0.00000000000E+00  0.84329572129E+02  0.84329572129E+02  0.00000000000E+00 0.  1.
          1   -1    0    0  501    0  0.00000000000E+00 -0.00000000000E+00 -0.73380574392E+03  0.73380574392E+03  0.00000000000E+00 0. -1.
         23    2    1    2    0    0  0.58794929039E+01 -0.20925907525E+03 -0.45765061808E+03  0.51855210655E+03  0.12501307919E+03 0.  0.
          5    1    3    3  502    0  0.11177380467E+02 -0.26603645209E+02 -0.40631206866E+01  0.29517566332E+02  0.47000000000E+01 0.  1.
         -5    1    3    3    0  502 -0.52978875626E+01 -0.18265543004E+03 -0.45358749739E+03  0.48903454022E+03  0.47000000000E+01 0.  1.
        -11    1    1    2    0    0 -0.20231428154E+02  0.42459587535E+02 -0.28554572354E+01  0.47119856694E+02  0.00000000000E+00 0.  1.
         11    1    1    2    0    0  0.14351935250E+02  0.16679948771E+03 -0.18897009648E+03  0.25246335281E+03  0.00000000000E+00 0. -1.
<mgrwt>
<rscale>  0 0.24032522E+03</rscale>
<asrwt>0</asrwt>
<pdfrwt beam="2">  1        1 0.11289319E+00 0.24382822E+03</pdfrwt>
<pdfrwt beam="1">  1       -1 0.12973780E-01 0.24382822E+03</pdfrwt>
<totfact> 0.10661109E+03</totfact>
</mgrwt>
</event>
<event>
 7    1  0.5928109E-006  0.1554027E+03  0.7546771E-02  0.1202269E+00
         -1   -1    0    0    0  501 -0.00000000000E+00  0.00000000000E+00  0.17591404180E+02  0.17591404180E+02  0.00000000000E+00 0.  1.
          1   -1    0    0  501    0  0.00000000000E+00 -0.00000000000E+00 -0.14641057414E+04  0.14641057414E+04  0.00000000000E+00 0. -1.
         23    2    1    2    0    0 -0.12684008050E+01  0.92371518859E+02 -0.11136498761E+04  0.11244403240E+04  0.12496355198E+03 0.  0.
          5    1    3    3  502    0 -0.26995026597E+02  0.19904352688E+02 -0.68107791453E+02  0.76063631083E+02  0.47000000000E+01 0. -1.
         -5    1    3    3    0  502  0.25726625792E+02  0.72467166171E+02 -0.10455420847E+04  0.10483766929E+04  0.47000000000E+01 0. -1.
        -11    1    1    2    0    0  0.21861155704E+02 -0.15046301389E+02 -0.17240558599E+02  0.31647087939E+02  0.00000000000E+00 0.  1.
         11    1    1    2    0    0 -0.20592754899E+02 -0.77325217470E+02 -0.31562390253E+03  0.32560973367E+03  0.00000000000E+00 0. -1.
<mgrwt>
<rscale>  0 0.14854783E+03</rscale>
<asrwt>0</asrwt>
<pdfrwt beam="2">  1        1 0.22524713E+00 0.15540269E+03</pdfrwt>
<pdfrwt beam="1">  1       -1 0.27063687E-02 0.15540269E+03</pdfrwt>
<totfact> 0.32964869E+03</totfact>
</mgrwt>
</event>
<event>
 7    1  0.5928109E-006  0.1433585E+03  0.7546771E-02  0.1212041E+00
          2   -1    0    0  501    0  0.00000000000E+00  0.00000000000E+00  0.40833198098E+03  0.40833198098E+03  0.00000000000E+00 0. -1.
         -2   -1    0    0    0  501 -0.00000000000E+00 -0.00000000000E+00 -0.48991731816E+02  0.48991731816E+02  0.00000000000E+00 0.  1.
         23    2    1    2    0    0  0.48351155074E+02  0.74525840587E+02  0.23038533767E+03  0.27134673391E+03  0.11251538153E+03 0.  0.
          5    1    3    3  502    0  0.45237011352E+02  0.48146339394E+02  0.36556896893E+02  0.75650207558E+02  0.47000000000E+01 0. -1.
         -5    1    3    3    0  502  0.31141437217E+01  0.26379501193E+02  0.19382844077E+03  0.19569652635E+03  0.47000000000E+01 0.  1.
        -11    1    1    2    0    0  0.67371056783E+00 -0.57377930747E+02  0.12876284870E+02  0.58808838917E+02  0.00000000000E+00 0.  1.
         11    1    1    2    0    0 -0.49024865642E+02 -0.17147909840E+02  0.11607862663E+03  0.12716813997E+03  0.00000000000E+00 0. -1.
<mgrwt>
<rscale>  0 0.14096131E+03</rscale>
<asrwt>0</asrwt>
<pdfrwt beam="1">  1        2 0.62820302E-01 0.14335845E+03</pdfrwt>
<pdfrwt beam="2">  1       -2 0.75371898E-02 0.14335845E+03</pdfrwt>
<totfact> 0.77565326E+03</totfact>
</mgrwt>
</event>
<event>
 7    1  0.5928109E-006  0.1327226E+03  0.7546771E-02  0.1245113E+00
         -1   -1    0    0    0  501 -0.00000000000E+00  0.00000000000E+00  0.13792675996E+03  0.13792675996E+03  0.00000000000E+00 0.  1.
          1   -1    0    0  501    0  0.00000000000E+00 -0.00000000000E+00 -0.87117660215E+02  0.87117660215E+02  0.00000000000E+00 0. -1.
         23    2    1    2    0    0  0.36923022811E+02 -0.24952558908E+02  0.18701261064E+02  0.13403370689E+03  0.12501742921E+03 0.  0.
          5    1    3    3  502    0  0.67742644732E+02  0.25616821903E+02  0.32466024085E+01  0.72649280154E+02  0.47000000000E+01 0. -1.
         -5    1    3    3    0  502 -0.30819621921E+02 -0.50569380811E+02  0.15454658656E+02  0.61384426732E+02  0.47000000000E+01 0. -1.
        -11    1    1    2    0    0 -0.11520789737E+02 -0.89659126336E+01 -0.19420557019E+02  0.24295559686E+02  0.00000000000E+00 0. -1.
         11    1    1    2    0    0 -0.25402233074E+02  0.33918471542E+02  0.51528395701E+02  0.66715153604E+02  0.00000000000E+00 0.  1.
<mgrwt>
<rscale>  0 0.11878627E+03</rscale>
<asrwt>0</asrwt>
<pdfrwt beam="2">  1        1 0.13402717E-01 0.13272263E+03</pdfrwt>
<pdfrwt beam="1">  1       -1 0.21219501E-01 0.13272263E+03</pdfrwt>
<totfact> 0.74738612E+03</totfact>
</mgrwt>
</event>
<event>
 7    1  0.5928109E-006  0.1580495E+03  0.7546771E-02  0.1198985E+00
          3   -1    0    0  501    0  0.00000000000E+00  0.00000000000E+00  0.10511493307E+03  0.10511493307E+03  0.00000000000E+00 0. -1.
         -3   -1    0    0    0  501 -0.00000000000E+00 -0.00000000000E+00 -0.29524257671E+03  0.29524257671E+03  0.00000000000E+00 0.  1.
         23    2    1    2    0    0  0.18959227828E+02 -0.94740665991E+02  0.12217311857E+02  0.15852096836E+03  0.12507753031E+03 0.  0.
          5    1    3    3  502    0  0.22041546591E+02 -0.11497906163E+03  0.39897505180E+02  0.12377364545E+03  0.47000000000E+01 0. -1.
         -5    1    3    3    0  502 -0.30823187621E+01  0.20238395638E+02 -0.27680193323E+02  0.34747322909E+02  0.47000000000E+01 0. -1.
        -11    1    1    2    0    0  0.10788790037E+02  0.27137911986E+02 -0.31303087361E+01  0.29371126812E+02  0.00000000000E+00 0.  1.
         11    1    1    2    0    0 -0.29748017866E+02  0.67602754005E+02 -0.19921464677E+03  0.21246541460E+03  0.00000000000E+00 0. -1.
<mgrwt>
<rscale>  0 0.15121780E+03</rscale>
<asrwt>0</asrwt>
<pdfrwt beam="1">  1        3 0.16171528E-01 0.15804947E+03</pdfrwt>
<pdfrwt beam="2">  1       -3 0.45421934E-01 0.15804947E+03</pdfrwt>
<totfact> 0.37422945E+02</totfact>
</mgrwt>
</event>
<event>
 7    1  0.5928109E-006  0.1808834E+03  0.7546771E-02  0.1172427E+00
          1   -1    0    0  501    0  0.00000000000E+00  0.00000000000E+00  0.39939039472E+03  0.39939039472E+03  0.00000000000E+00 0. -1.
         -1   -1    0    0    0  501 -0.00000000000E+00 -0.00000000000E+00 -0.73887715972E+02  0.73887715972E+02  0.00000000000E+00 0.  1.
         23    2    1    2    0    0  0.82007829550E+02 -0.10182569971E+03  0.20445544423E+03  0.27298501024E+03  0.12500011965E+03 0.  0.
          5    1    3    3  502    0 -0.13079177766E+02  0.14087103173E+02  0.48019254926E+00  0.19794745558E+02  0.47000000000E+01 0.  1.
         -5    1    3    3    0  502  0.95087007316E+02 -0.11591280288E+03  0.20397525168E+03  0.25319026468E+03  0.47000000000E+01 0.  1.
        -11    1    1    2    0    0 -0.68778717239E+02  0.31890626692E+02  0.23172104898E+02  0.79274652072E+02  0.00000000000E+00 0.  1.
         11    1    1    2    0    0 -0.13229112311E+02  0.69935073014E+02  0.97875129617E+02  0.12101844838E+03  0.00000000000E+00 0. -1.
<mgrwt>
<rscale>  0 0.17530394E+03</rscale>
<asrwt>0</asrwt>
<pdfrwt beam="1">  1        1 0.61444675E-01 0.18088335E+03</pdfrwt>
<pdfrwt beam="2">  1       -1 0.11367341E-01 0.18088335E+03</pdfrwt>
<totfact> 0.29765130E+03</totfact>
</mgrwt>
</event>
<event>
 7    1  0.5928109E-006  0.1861651E+03  0.7546771E-02  0.1166719E+00
          2   -1    0    0  501    0  0.00000000000E+00  0.00000000000E+00  0.69809579854E+02  0.69809579854E+02  0.00000000000E+00 0. -1.
         -2   -1    0    0    0  501 -0.00000000000E+00 -0.00000000000E+00 -0.48456414231E+03  0.48456414231E+03  0.00000000000E+00 0.  1.
         23    2    1    2    0    0  0.47000253963E+02  0.12974572216E+03 -0.13994332926E+03  0.23289823267E+03  0.12495789325E+03 0.  0.
          5    1    3    3  502    0  0.61995408790E+02  0.85633303813E+02 -0.24934273391E+02  0.10872120963E+03  0.47000000000E+01 0.  1.
         -5    1    3    3    0  502 -0.14995154827E+02  0.44112418352E+02 -0.11500905587E+03  0.12417702305E+03  0.47000000000E+01 0.  1.
        -11    1    1    2    0    0  0.13005335290E+02 -0.44973983198E+02 -0.15976586248E+03  0.16648401943E+03  0.00000000000E+00 0.  1.
         11    1    1    2    0    0 -0.60005589253E+02 -0.84771738967E+02 -0.11504537072E+03  0.15499147007E+03  0.00000000000E+00 0. -1.
<mgrwt>
<rscale>  0 0.18112511E+03</rscale>
<asrwt>0</asrwt>
<pdfrwt beam="1">  1        2 0.10739935E-01 0.18616512E+03</pdfrwt>
<pdfrwt beam="2">  1       -2 0.74548332E-01 0.18616512E+03</pdfrwt>
<totfact> 0.96389840E+02</totfact>
</mgrwt>
</event>
<event>
 7    1  0.5928109E-006  0.1675987E+03  0.7546771E-02  0.1187908E+00
          2   -1    0    0  501    0  0.00000000000E+00  0.00000000000E+00  0.89210441114E+03  0.89210441114E+03  0.00000000000E+00 0. -1.
         -2   -1    0    0    0  501 -0.00000000000E+00 -0.00000000000E+00 -0.27255258770E+02  0.27255258770E+02  0.00000000000E+00 0.  1.
         23    2    1    2    0    0 -0.10208927086E+03 -0.45194987390E+02  0.52710145170E+03  0.55310511313E+03  0.12499807872E+03 0.  0.
          5    1    3    3  502    0 -0.75038374918E+02 -0.86744379442E+02  0.31587031295E+03  0.33608256378E+03  0.47000000000E+01 0.  1.
         -5    1    3    3    0  502 -0.27050895940E+02  0.41549392051E+02  0.21123113875E+03  0.21702254935E+03  0.47000000000E+01 0.  1.
        -11    1    1    2    0    0  0.37713506581E+02 -0.11003778687E+02  0.20247182235E+03  0.20624798319E+03  0.00000000000E+00 0. -1.
         11    1    1    2    0    0  0.64375764277E+02  0.56198766078E+02  0.13527587832E+03  0.16000657359E+03  0.00000000000E+00 0.  1.
<mgrwt>
<rscale>  0 0.16070094E+03</rscale>
<asrwt>0</asrwt>
<pdfrwt beam="1">  1        2 0.13724681E+00 0.16759870E+03</pdfrwt>
<pdfrwt beam="2">  1       -2 0.41931174E-02 0.16759870E+03</pdfrwt>
<totfact> 0.76844229E+03</totfact>
</mgrwt>
</event>
<event>
 7    1  0.5928109E-006  0.1881307E+03  0.7546771E-02  0.1164814E+00
          2   -1    0    0  501    0  0.00000000000E+00  0.00000000000E+00  0.95000840356E+03  0.95000840356E+03  0.00000000000E+00 0. -1.
         -2   -1    0    0    0  501 -0.00000000000E+00 -0.00000000000E+00 -0.35625501393E+02  0.35625501393E+02  0.00000000000E+00 0.  1.
         23    2    1    2    0    0  0.56155735251E+02 -0.12891695067E+03  0.59941409488E+03  0.62824390116E+03  0.12498038019E+03 0.  0.
          5    1    3    3  502    0  0.93187412734E+01 -0.19329550330E+02  0.36093444266E+03  0.36160231243E+03  0.47000000000E+01 0. -1.
         -5    1    3    3    0  502  0.46836993977E+02 -0.10958740034E+03  0.23847965221E+03  0.26664158873E+03  0.47000000000E+01 0. -1.
        -11    1    1    2    0    0 -0.81374564821E+02  0.81602347576E+02  0.21793275276E+03  0.24652676864E+03  0.00000000000E+00 0.  1.
         11    1    1    2    0    0  0.25218829570E+02  0.47314603095E+02  0.97036054533E+02  0.11086323516E+03  0.00000000000E+00 0. -1.
<mgrwt>
<rscale>  0 0.18312291E+03</rscale>
<asrwt>0</asrwt>
<pdfrwt beam="1">  1        2 0.14615512E+00 0.18813065E+03</pdfrwt>
<pdfrwt beam="2">  1       -2 0.54808471E-02 0.18813065E+03</pdfrwt>
<totfact> 0.47384070E+03</totfact>
</mgrwt>
</event>
<event>
 7    1  0.5928109E-006  0.1693007E+03  0.7546771E-02  0.1184428E+00
          2   -1    0    0  501    0  0.00000000000E+00  0.00000000000E+00  0.24675434318E+03  0.24675434318E+03  0.00000000000E+00 0.  1.
         -2   -1    0    0    0  501 -0.00000000000E+00 -0.00000000000E+00 -0.10372632482E+03  0.10372632482E+03  0.00000000000E+00 0. -1.
         23    2    1    2    0    0 -0.98871625156E+02  0.57126203311E+02  0.96489160335E+02  0.19486629018E+03  0.12499484637E+03 0.  0.
          5    1    3    3  502    0 -0.81570385015E+02  0.30130166636E+02  0.12456627946E+03  0.15198816609E+03  0.47000000000E+01 0. -1.
         -5    1    3    3    0  502 -0.17301240141E+02  0.26996036675E+02 -0.28077119127E+02  0.42878124085E+02  0.47000000000E+01 0. -1.
        -11    1    1    2    0    0  0.47951985573E+02 -0.52784131526E+02  0.69509518989E+02  0.99584791467E+02  0.00000000000E+00 0.  1.
         11    1    1    2    0    0  0.50919639583E+02 -0.43420717850E+01 -0.22970660957E+02  0.56029586358E+02  0.00000000000E+00 0. -1.
<mgrwt>
<rscale>  0 0.16384002E+03</rscale>
<asrwt>0</asrwt>
<pdfrwt beam="1">  1        2 0.37962206E-01 0.16930066E+03</pdfrwt>
<pdfrwt beam="2">  1       -2 0.15957896E-01 0.16930066E+03</pdfrwt>
<totfact> 0.40621459E+03</totfact>
</mgrwt>
</event>
<event>
 7    1  0.5928109E-006  0.1299031E+03  0.7546771E-02  0.1240550E+00
         -2   -1    0    0    0  501 -0.00000000000E+00  0.00000000000E+00  0.11104775222E+02  0.11104775222E+02  0.00000000000E+00 0. -1.
          2   -1    0    0  501    0  0.00000000000E+00 -0.00000000000E+00 -0.14723178224E+04  0.14723178224E+04  0.00000000000E+00 0.  1.
         23    2    1    2    0    0  0.31489961167E+02  0.15933215903E+02 -0.11331936181E+04  0.11406150090E+04  0.12501734926E+03 0.  0.
          5    1    3    3  502    0 -0.32087175347E+00  0.51045464448E+02 -0.94846544399E+03  0.94984974120E+03  0.47000000000E+01 0. -1.
         -5    1    3    3    0  502  0.31810832921E+02 -0.35112248545E+02 -0.18472817408E+03  0.19076526777E+03  0.47000000000E+01 0. -1.
        -11    1    1    2    0    0 -0.53200643328E+02  0.20402839729E+02 -0.20107703120E+03  0.20899415493E+03  0.00000000000E+00 0. -1.
         11    1    1    2    0    0  0.21710682161E+02 -0.36336055633E+02 -0.12694239788E+03  0.13381343370E+03  0.00000000000E+00 0.  1.
<mgrwt>
<rscale>  0 0.12155709E+03</rscale>
<asrwt>0</asrwt>
<pdfrwt beam="2">  1        2 0.22651055E+00 0.12990313E+03</pdfrwt>
<pdfrwt beam="1">  1       -2 0.17084261E-02 0.12990313E+03</pdfrwt>
<totfact> 0.13323431E+04</totfact>
</mgrwt>
</event>
<event>
 7    1  0.5928109E-006  0.1288678E+03  0.7546771E-02  0.1244148E+00
         -1   -1    0    0    0  501 -0.00000000000E+00  0.00000000000E+00  0.34746132858E+02  0.34746132858E+02  0.00000000000E+00 0.  1.
          1   -1    0    0  501    0  0.00000000000E+00 -0.00000000000E+00 -0.36024478840E+03  0.36024478840E+03  0.00000000000E+00 0. -1.
         23    2    1    2    0    0  0.24033018753E+02  0.20340460403E+02 -0.19080610845E+03  0.23024743951E+03  0.12496236256E+03 0.  0.
          5    1    3    3  502    0  0.29332991382E+02  0.51130982122E+02 -0.29890817942E+02  0.66259736744E+02  0.47000000000E+01 0.  1.
         -5    1    3    3    0  502 -0.52999726285E+01 -0.30790521719E+02 -0.16091529051E+03  0.16398770277E+03  0.47000000000E+01 0.  1.
        -11    1    1    2    0    0 -0.99361871899E+01 -0.33860396253E+02 -0.14010055870E+03  0.14447636762E+03  0.00000000000E+00 0. -1.
         11    1    1    2    0    0 -0.14096831563E+02  0.13519935850E+02  0.54080116187E+01  0.20267114131E+02  0.00000000000E+00 0.  1.
<mgrwt>
<rscale>  0 0.11936544E+03</rscale>
<asrwt>0</asrwt>
<pdfrwt beam="2">  1        1 0.55422273E-01 0.12886781E+03</pdfrwt>
<pdfrwt beam="1">  1       -1 0.53455591E-02 0.12886781E+03</pdfrwt>
<totfact> 0.10411286E+04</totfact>
</mgrwt>
</event>
<event>
 7    1  0.5928109E-006  0.1485284E+03  0.7546771E-02  0.1211823E+00
          2   -1    0    0  501    0  0.00000000000E+00  0.00000000000E+00  0.22449615597E+03  0.22449615597E+03  0.00000000000E+00 0. -1.
         -2   -1    0    0    0  501 -0.00000000000E+00 -0.00000000000E+00 -0.13577506823E+03  0.13577506823E+03  0.00000000000E+00 0.  1.
         23    2    1    2    0    0 -0.69545887626E+02  0.39990744997E+02  0.16118516128E+03  0.21918335891E+03  0.12499919374E+03 0.  0.
          5    1    3    3  502    0  0.11171070235E+02 -0.28181643179E+02  0.57973156082E+01  0.31220132779E+02  0.47000000000E+01 0.  1.
         -5    1    3    3    0  502 -0.80716957861E+02  0.68172388177E+02  0.15538784567E+03  0.18796322613E+03  0.47000000000E+01 0.  1.
        -11    1    1    2    0    0  0.89505170101E+02 -0.28061411899E+02 -0.71269280649E+02  0.11780462078E+03  0.00000000000E+00 0.  1.
         11    1    1    2    0    0 -0.19959282475E+02 -0.11929333099E+02 -0.11947928851E+01  0.23283244515E+02  0.00000000000E+00 0. -1.
<mgrwt>
<rscale>  0 0.14112515E+03</rscale>
<asrwt>0</asrwt>
<pdfrwt beam="1">  1        2 0.34537870E-01 0.14852841E+03</pdfrwt>
<pdfrwt beam="2">  1       -2 0.20888472E-01 0.14852841E+03</pdfrwt>
<totfact> 0.28437229E+03</totfact>
</mgrwt>
</event>
<event>
 7    1  0.5928109E-006  0.1283505E+03  0.7546771E-02  0.1243245E+00
         -1   -1    0    0    0  501 -0.00000000000E+00  0.00000000000E+00  0.32880918908E+03  0.32880918908E+03  0.00000000000E+00 0.  1.
          1   -1    0    0  501    0  0.00000000000E+00 -0.00000000000E+00 -0.39971876593E+02  0.39971876593E+02  0.00000000000E+00 0. -1.
         23    2    1    2    0    0 -0.13551273899E+02 -0.25785581135E+02  0.13317729595E+03  0.18495959691E+03  0.12500130845E+03 0.  0.
          5    1    3    3  502    0 -0.41275167475E+02 -0.31873800271E+02  0.38850624302E+01  0.52504878857E+02  0.47000000000E+01 0. -1.
         -5    1    3    3    0  502  0.27723893576E+02  0.60882191355E+01  0.12929223352E+03  0.13245471805E+03  0.47000000000E+01 0. -1.
        -11    1    1    2    0    0 -0.78775603510E+01  0.35274027137E+02  0.15625275134E+03  0.16037841266E+03  0.00000000000E+00 0.  1.
         11    1    1    2    0    0  0.21428834250E+02 -0.94884460022E+01 -0.59273479400E+00  0.23443056102E+02  0.00000000000E+00 0. -1.
<mgrwt>
<rscale>  0 0.11991049E+03</rscale>
<asrwt>0</asrwt>
<pdfrwt beam="2">  1        1 0.61495197E-02 0.12835054E+03</pdfrwt>
<pdfrwt beam="1">  1       -1 0.50586027E-01 0.12835054E+03</pdfrwt>
<totfact> 0.47758642E+03</totfact>
</mgrwt>
</event>
<event>
 7    1  0.5928109E-006  0.1312095E+03  0.7546771E-02  0.1238569E+00
          2   -1    0    0  501    0  0.00000000000E+00  0.00000000000E+00  0.77606835329E+02  0.77606835329E+02  0.00000000000E+00 0. -1.
         -2   -1    0    0    0  501 -0.00000000000E+00 -0.00000000000E+00 -0.20879900558E+03  0.20879900558E+03  0.00000000000E+00 0.  1.
         23    2    1    2    0    0  0.26389207780E+02  0.29913380877E+02 -0.14021700413E+02  0.13195661384E+03  0.12499895684E+03 0.  0.
          5    1    3    3  502    0 -0.31863067085E+02 -0.85748695116E+01 -0.44527114199E+02  0.55619576860E+02  0.47000000000E+01 0.  1.
         -5    1    3    3    0  502  0.58252274864E+02  0.38488250388E+02  0.30505413786E+02  0.76337036981E+02  0.47000000000E+01 0.  1.
        -11    1    1    2    0    0  0.69125685235E+01  0.30000166245E+02 -0.48323306467E+02  0.57296906777E+02  0.00000000000E+00 0.  1.
         11    1    1    2    0    0 -0.33301776303E+02 -0.59913547122E+02 -0.68847163372E+02  0.97152320292E+02  0.00000000000E+00 0. -1.
<mgrwt>
<rscale>  0 0.12278685E+03</rscale>
<asrwt>0</asrwt>
<pdfrwt beam="1">  1        2 0.11939513E-01 0.13120953E+03</pdfrwt>
<pdfrwt beam="2">  1       -2 0.32122924E-01 0.13120953E+03</pdfrwt>
<totfact> 0.44119418E+03</totfact>
</mgrwt>
</event>
<event>
 7    1  0.5928109E-006  0.1390549E+03  0.7546771E-02  0.1226044E+00
          1   -1    0    0  501    0  0.00000000000E+00  0.00000000000E+00  0.48050145952E+03  0.48050145952E+03  0.00000000000E+00 0. -1.
         -1   -1    0    0    0  501 -0.00000000000E+00 -0.00000000000E+00 -0.32430060456E+02  0.32430060456E+02  0.00000000000E+00 0.  1.
         23    2    1    2    0    0  0.29316221639E+02 -0.53336385663E+02  0.22534086402E+03  0.26479193703E+03  0.12502821294E+03 0.  0.
          5    1    3    3  502    0 -0.10006686097E+02 -0.30490781681E+02  0.21562574580E+03  0.21805130999E+03  0.47000000000E+01 0. -1.
         -5    1    3    3    0  502  0.39322907736E+02 -0.22845603983E+02  0.97151182156E+01  0.46740627040E+02  0.47000000000E+01 0. -1.
        -11    1    1    2    0    0  0.26932473733E+02  0.26742262031E+02  0.13732740597E+03  0.14247569319E+03  0.00000000000E+00 0.  1.
         11    1    1    2    0    0 -0.56248695372E+02  0.26594123632E+02  0.85403129078E+02  0.10566388976E+03  0.00000000000E+00 0. -1.
<mgrwt>
<rscale>  0 0.13095615E+03</rscale>
<asrwt>0</asrwt>
<pdfrwt beam="1">  1        1 0.73923296E-01 0.13905490E+03</pdfrwt>
<pdfrwt beam="2">  1       -1 0.49892404E-02 0.13905490E+03</pdfrwt>
<totfact> 0.80460256E+03</totfact>
</mgrwt>
</event>
<event>
 7    1  0.5928109E-006  0.1277646E+03  0.7546771E-02  0.1246094E+00
          2   -1    0    0  501    0  0.00000000000E+00  0.00000000000E+00  0.12145312371E+04  0.12145312371E+04  0.00000000000E+00 0.  1.
         -2   -1    0    0    0  501 -0.00000000000E+00 -0.00000000000E+00 -0.14186316011E+02  0.14186316011E+02  0.00000000000E+00 0. -1.
         23    2    1    2    0    0  0.55469667629E+01 -0.25769327367E+02  0.99350150457E+03  0.10016830974E+04  0.12501584292E+03 0.  0.
          5    1    3    3  502    0 -0.39684315246E+02  0.33681593265E+02  0.35961003061E+03  0.36338789016E+03  0.47000000000E+01 0. -1.
         -5    1    3    3    0  502  0.45231282008E+02 -0.59450920633E+02  0.63389147396E+03  0.63829520725E+03  0.47000000000E+01 0. -1.
        -11    1    1    2    0    0  0.24762308346E+02  0.24010640974E+02  0.24813142058E+02  0.42489702440E+02  0.00000000000E+00 0. -1.
         11    1    1    2    0    0 -0.30309275109E+02  0.17586863929E+01  0.18203027443E+03  0.18454475323E+03  0.00000000000E+00 0.  1.
<mgrwt>
<rscale>  0 0.11820167E+03</rscale>
<asrwt>0</asrwt>
<pdfrwt beam="1">  1        2 0.18685088E+00 0.12776458E+03</pdfrwt>
<pdfrwt beam="2">  1       -2 0.21825111E-02 0.12776458E+03</pdfrwt>
<totfact> 0.12815669E+04</totfact>
</mgrwt>
</event>
<event>
 7    1  0.7550351E-006  0.3433749E+03  0.7546771E-02  0.1066524E+00
         -3   -1    0    0    0  501 -0.00000000000E+00  0.00000000000E+00  0.30932398005E+03  0.30932398005E+03  0.00000000000E+00 0.  1.
          3   -1    0    0  501    0  0.00000000000E+00 -0.00000000000E+00 -0.45208337420E+03  0.45208337420E+03  0.00000000000E+00 0. -1.
         23    2    1    2    0    0  0.17848095548E+03  0.26537867086E+03 -0.23523461361E+03  0.41622310400E+03  0.12500023378E+03 0.  0.
          5    1    3    3  502    0  0.48762085379E+02  0.16062664053E+03 -0.16439830741E+03  0.23500542993E+03  0.47000000000E+01 0. -1.
         -5    1    3    3    0  502  0.12971887010E+03  0.10475203033E+03 -0.70836306206E+02  0.18121767407E+03  0.47000000000E+01 0. -1.
        -11    1    1    2    0    0 -0.19585170267E+02 -0.85713024693E+02 -0.55848041654E+00  0.87923906856E+02  0.00000000000E+00 0.  1.
         11    1    1    2    0    0 -0.15889578521E+03 -0.17966564617E+03  0.93033699879E+02  0.25726034340E+03  0.00000000000E+00 0. -1.
<mgrwt>
<rscale>  0 0.34064034E+03</rscale>
<asrwt>0</asrwt>
<pdfrwt beam="2">  1        3 0.69551289E-01 0.34337494E+03</pdfrwt>
<pdfrwt beam="1">  1       -3 0.47588304E-01 0.34337494E+03</pdfrwt>
<totfact> 0.22348976E+01</totfact>
</mgrwt>
</event>
<event>
 7    1  0.8907837E-006  0.9157213E+03  0.7546771E-02  0.9864180E-01
         -2   -1    0    0    0  501 -0.00000000000E+00  0.00000000000E+00  0.51265267946E+03  0.51265267946E+03  0.00000000000E+00 0.  1.
          2   -1    0    0  501    0  0.00000000000E+00 -0.00000000000E+00 -0.91510097617E+03  0.91510097617E+03  0.00000000000E+00 0. -1.
         23    2    1    2    0    0 -0.13885934420E+03 -0.42238076264E+02 -0.47153913423E+03  0.50942965950E+03  0.12689937078E+03 0.  0.
          5    1    3    3  502    0 -0.14798065386E+03 -0.18448035285E+02 -0.45464276341E+03  0.47849841823E+03  0.47000000000E+01 0. -1.
         -5    1    3    3    0  502  0.91213096574E+01 -0.23790040979E+02 -0.16896370819E+02  0.30931241270E+02  0.47000000000E+01 0.  1.
        -11    1    1    2    0    0 -0.20088910717E+03 -0.10545898633E+03  0.37472326281E+03  0.43805884863E+03  0.00000000000E+00 0.  1.
         11    1    1    2    0    0  0.33974845137E+03  0.14769706260E+03 -0.30563242529E+03  0.48026514749E+03  0.00000000000E+00 0. -1.
<mgrwt>
<rscale>  0 0.62029131E+03</rscale>
<asrwt>0</asrwt>
<pdfrwt beam="2">  1        2 0.14078476E+00 0.91572126E+03</pdfrwt>
<pdfrwt beam="1">  1       -2 0.78869644E-01 0.91572126E+03</pdfrwt>
<totfact> 0.40948656E+01</totfact>
</mgrwt>
</event>
<event>
 7    1  0.5928109E-006  0.1287796E+03  0.7546771E-02  0.1243654E+00
         -2   -1    0    0    0  501 -0.00000000000E+00  0.00000000000E+00  0.30463401640E+02  0.30463401640E+02  0.00000000000E+00 0.  1.
          2   -1    0    0  501    0  0.00000000000E+00 -0.00000000000E+00 -0.43919164397E+03  0.43919164397E+03  0.00000000000E+00 0. -1.
         23    2    1    2    0    0  0.17656560278E+02  0.25296650878E+02 -0.28742701913E+03  0.31495790265E+03  0.12503005418E+03 0.  0.
          5    1    3    3  502    0 -0.23309515871E+02  0.65254261542E+02 -0.18383987769E+03  0.19652135459E+03  0.47000000000E+01 0. -1.
         -5    1    3    3    0  502  0.40966076149E+02 -0.39957610665E+02 -0.10358714143E+03  0.11843654806E+03  0.47000000000E+01 0. -1.
        -11    1    1    2    0    0  0.10523260066E+02  0.29911772444E+02 -0.58000371534E+02  0.66102165103E+02  0.00000000000E+00 0. -1.
         11    1    1    2    0    0 -0.28179820344E+02 -0.55208423322E+02 -0.63300851673E+02  0.88594977865E+02  0.00000000000E+00 0.  1.
<mgrwt>
<rscale>  0 0.11966312E+03</rscale>
<asrwt>0</asrwt>
<pdfrwt beam="2">  1        2 0.67567942E-01 0.12877961E+03</pdfrwt>
<pdfrwt beam="1">  1       -2 0.46866774E-02 0.12877961E+03</pdfrwt>
<totfact> 0.14626505E+04</totfact>
</mgrwt>
</event>
<event>
 6    1  0.5928109E-006  0.1740970E+03  0.7546771E-02  0.1190407E+00
         -2   -1    0    0    0  501 -0.00000000000E+00  0.00000000000E+00  0.20564976117E+02  0.20564976117E+02  0.00000000000E+00 0.  1.
          2   -1    0    0  501    0  0.00000000000E+00 -0.00000000000E+00 -0.10504773704E+04  0.10504773704E+04  0.00000000000E+00 0. -1.
          5    1    1    2  502    0  0.14263357778E+02  0.36053236458E+02 -0.54229687852E+03  0.54370145639E+03  0.47000000000E+01 0. -1.
         -5    1    1    2    0  502  0.62438828295E+02 -0.24157390069E+02 -0.90888644304E+02  0.11298239879E+03  0.47000000000E+01 0.  1.
        -11    1    1    2    0    0 -0.96785835056E+01 -0.15640155386E+02 -0.83086201892E+01  0.20182234976E+02  0.00000000000E+00 0.  1.
         11    1    1    2    0    0 -0.67023602567E+02  0.37443089964E+01 -0.38841825124E+03  0.39417625632E+03  0.00000000000E+00 0. -1.
<mgrwt>
<rscale>  0 0.15849421E+03</rscale>
<asrwt>0</asrwt>
<pdfrwt beam="2">  1        2 0.16161193E+00 0.17409704E+03</pdfrwt>
<pdfrwt beam="1">  1       -2 0.31638420E-02 0.17409704E+03</pdfrwt>
<totfact> 0.93634837E+03</totfact>
</mgrwt>
</event>
<event>
 7    1  0.5928109E-006  0.2071988E+03  0.7546771E-02  0.1147861E+00
         -2   -1    0    0    0  501 -0.00000000000E+00  0.00000000000E+00  0.71080547558E+02  0.71080547558E+02  0.00000000000E+00 0.  1.
          2   -1    0    0  501    0  0.00000000000E+00 -0.00000000000E+00 -0.55763987400E+03  0.55763987400E+03  0.00000000000E+00 0. -1.
         23    2    1    2    0    0 -0.13238181367E+03 -0.98917150179E+02 -0.29277082950E+03  0.35867270814E+03  0.12498722241E+03 0.  0.
          5    1    3    3  502    0 -0.29216340150E+02 -0.97365571285E+02 -0.17109840329E+03  0.19907386220E+03  0.47000000000E+01 0.  1.
         -5    1    3    3    0  502 -0.10316547352E+03 -0.15515788940E+01 -0.12167242621E+03  0.15959884594E+03  0.47000000000E+01 0.  1.
        -11    1    1    2    0    0  0.92672144823E+02  0.24647076023E+02 -0.14144746548E+03  0.17088882431E+03  0.00000000000E+00 0.  1.
         11    1    1    2    0    0  0.39709668848E+02  0.74270074156E+02 -0.52341031452E+02  0.99158889106E+02  0.00000000000E+00 0. -1.
<mgrwt>
<rscale>  0 0.20224258E+03</rscale>
<asrwt>0</asrwt>
<pdfrwt beam="2">  1        2 0.85790750E-01 0.20719882E+03</pdfrwt>
<pdfrwt beam="1">  1       -2 0.10935469E-01 0.20719882E+03</pdfrwt>
<totfact> 0.31231317E+03</totfact>
</mgrwt>
</event>
<event>
 7    1  0.5928109E-006  0.1386035E+03  0.7546771E-02  0.1226943E+00
          1   -1    0    0  501    0  0.00000000000E+00  0.00000000000E+00  0.10409246377E+04  0.10409246377E+04  0.00000000000E+00 0. -1.
         -1   -1    0    0    0  501 -0.00000000000E+00 -0.00000000000E+00 -0.15484968583E+02  0.15484968583E+02  0.00000000000E+00 0.  1.
         23    2    1    2    0    0  0.54172771527E+02  0.25512463668E+02  0.69351324387E+03  0.70722807528E+03  0.12500142422E+03 0.  0.
          5    1    3    3  502    0 -0.63389661389E+01  0.65457557416E+02  0.32514342974E+03  0.33176077860E+03  0.47000000000E+01 0. -1.
         -5    1    3    3    0  502  0.60511737665E+02 -0.39945093748E+02  0.36836981413E+03  0.37546729667E+03  0.47000000000E+01 0. -1.
        -11    1    1    2    0    0 -0.63997025994E+02 -0.50294811916E+02  0.26167913429E+03  0.27404590266E+03  0.00000000000E+00 0.  1.
         11    1    1    2    0    0  0.98242544672E+01  0.24782348247E+02  0.70247290967E+02  0.75135628358E+02  0.00000000000E+00 0. -1.
<mgrwt>
<rscale>  0 0.13034589E+03</rscale>
<asrwt>0</asrwt>
<pdfrwt beam="1">  1        1 0.16014220E+00 0.13860350E+03</pdfrwt>
<pdfrwt beam="2">  1       -1 0.23823037E-02 0.13860350E+03</pdfrwt>
<totfact> 0.76714021E+03</totfact>
</mgrwt>
</event>
<event>
 7    1  0.5928109E-006  0.1415960E+03  0.7546771E-02  0.1221779E+00
          2   -1    0    0  501    0  0.00000000000E+00  0.00000000000E+00  0.69995427932E+03  0.69995427932E+03  0.00000000000E+00 0. -1.
         -2   -1    0    0    0  501 -0.00000000000E+00 -0.00000000000E+00 -0.55261859477E+02  0.55261859477E+02  0.00000000000E+00 0.  1.
         23    2    1    2    0    0  0.64146632842E+01 -0.66201273097E+02  0.62430127060E+03  0.64015741519E+03  0.12500273313E+03 0.  0.
          5    1    3    3  502    0 -0.38860324727E+02 -0.77168351191E+01  0.43562338188E+03  0.43744656271E+03  0.47000000000E+01 0. -1.
         -5    1    3    3    0  502  0.45274988011E+02 -0.58484437978E+02  0.18867788871E+03  0.20271085248E+03  0.47000000000E+01 0. -1.
        -11    1    1    2    0    0 -0.45273641307E+02  0.57366006292E+02  0.91288468350E+01  0.73647112093E+02  0.00000000000E+00 0. -1.
         11    1    1    2    0    0  0.38858978023E+02  0.88352668045E+01  0.11262302411E+02  0.41411611513E+02  0.00000000000E+00 0.  1.
<mgrwt>
<rscale>  0 0.13390162E+03</rscale>
<asrwt>0</asrwt>
<pdfrwt beam="1">  1        2 0.10768527E+00 0.14159604E+03</pdfrwt>
<pdfrwt beam="2">  1       -2 0.85018250E-02 0.14159604E+03</pdfrwt>
<totfact> 0.35210759E+03</totfact>
</mgrwt>
</event>
<event>
 7    1  0.5928109E-006  0.1276790E+03  0.7546771E-02  0.1251670E+00
          2   -1    0    0  501    0  0.00000000000E+00  0.00000000000E+00  0.22609274814E+03  0.22609274814E+03  0.00000000000E+00 0.  1.
         -2   -1    0    0    0  501 -0.00000000000E+00 -0.00000000000E+00 -0.50529707695E+02  0.50529707695E+02  0.00000000000E+00 0. -1.
         23    2    1    2    0    0  0.90795324333E+01  0.24330285125E+02  0.12499438784E+03  0.17867711544E+03  0.12501005522E+03 0.  0.
          5    1    3    3  502    0 -0.20773518932E+02  0.69132526812E+02  0.58787277103E+02  0.93214158267E+02  0.47000000000E+01 0.  1.
         -5    1    3    3    0  502  0.29853051365E+02 -0.44802241687E+02  0.66207110739E+02  0.85462957171E+02  0.47000000000E+01 0.  1.
        -11    1    1    2    0    0  0.22416705437E+02 -0.10795809822E+02 -0.11212404294E+02  0.27290588166E+02  0.00000000000E+00 0. -1.
         11    1    1    2    0    0 -0.31496237871E+02 -0.13534475303E+02  0.61781056898E+02  0.70654752233E+02  0.00000000000E+00 0.  1.
<mgrwt>
<rscale>  0 0.11494921E+03</rscale>
<asrwt>0</asrwt>
<pdfrwt beam="1">  1        2 0.34783499E-01 0.12767895E+03</pdfrwt>
<pdfrwt beam="2">  1       -2 0.77738013E-02 0.12767895E+03</pdfrwt>
<totfact> 0.13746944E+04</totfact>
</mgrwt>
</event>
<event>
 7    1  0.5928109E-006  0.1773539E+03  0.7546771E-02  0.1174083E+00
         -1   -1    0    0    0  501 -0.00000000000E+00  0.00000000000E+00  0.39963093439E+02  0.39963093439E+02  0.00000000000E+00 0.  1.
          1   -1    0    0  501    0  0.00000000000E+00 -0.00000000000E+00 -0.84763361143E+03  0.84763361143E+03  0.00000000000E+00 0. -1.
         23    2    1    2    0    0  0.13642547079E+03  0.12251118848E+02 -0.58715836371E+03  0.61335906517E+03  0.11266055105E+03 0.  0.
          5    1    3    3  502    0  0.84700578701E+02 -0.31952887051E+02 -0.46214635162E+03  0.47095277400E+03  0.47000000000E+01 0. -1.
         -5    1    3    3    0  502  0.51724892087E+02  0.44204005899E+02 -0.12501201209E+03  0.14240629117E+03  0.47000000000E+01 0.  1.
        -11    1    1    2    0    0 -0.15332616217E+02 -0.32596836756E+02 -0.79347823708E+02  0.87141953235E+02  0.00000000000E+00 0. -1.
         11    1    1    2    0    0 -0.12109285457E+03  0.20345717908E+02 -0.14116433057E+03  0.18709568646E+03  0.00000000000E+00 0.  1.
<mgrwt>
<rscale>  0 0.17366059E+03</rscale>
<asrwt>0</asrwt>
<pdfrwt beam="2">  1        1 0.13040518E+00 0.17735388E+03</pdfrwt>
<pdfrwt beam="1">  1       -1 0.61481679E-02 0.17735388E+03</pdfrwt>
<totfact> 0.26828142E+03</totfact>
</mgrwt>
</event>
<event>
 7    1  0.5928109E-006  0.1485028E+03  0.7546771E-02  0.1211804E+00
         -1   -1    0    0    0  501 -0.00000000000E+00  0.00000000000E+00  0.26840122725E+03  0.26840122725E+03  0.00000000000E+00 0.  1.
          1   -1    0    0  501    0  0.00000000000E+00 -0.00000000000E+00 -0.78600928584E+02  0.78600928584E+02  0.00000000000E+00 0. -1.
         23    2    1    2    0    0  0.45546562102E+01  0.80059921698E+02  0.38971340209E+02  0.15353128425E+03  0.12499101540E+03 0.  0.
          5    1    3    3  502    0  0.28899869594E+02 -0.46187848606E+01 -0.29520103000E+02  0.41833743763E+02  0.47000000000E+01 0.  1.
         -5    1    3    3    0  502 -0.24345213384E+02  0.84678706558E+02  0.68491443208E+02  0.11169754049E+03  0.47000000000E+01 0.  1.
        -11    1    1    2    0    0 -0.16072452243E+02 -0.23866120322E+02 -0.33490788927E+01  0.28967770880E+02  0.00000000000E+00 0. -1.
         11    1    1    2    0    0  0.11517796033E+02 -0.56193801375E+02  0.15417803735E+03  0.16450310070E+03  0.00000000000E+00 0.  1.
<mgrwt>
<rscale>  0 0.14113923E+03</rscale>
<asrwt>0</asrwt>
<pdfrwt beam="2">  1        1 0.12092451E-01 0.14850283E+03</pdfrwt>
<pdfrwt beam="1">  1       -1 0.41292496E-01 0.14850283E+03</pdfrwt>
<totfact> 0.28098034E+03</totfact>
</mgrwt>
</event>
<event>
 7    1  0.5928109E-006  0.1363033E+03  0.7546771E-02  0.1232507E+00
         -1   -1    0    0    0  501 -0.00000000000E+00  0.00000000000E+00  0.22321666365E+03  0.22321666365E+03  0.00000000000E+00 0.  1.
          1   -1    0    0  501    0  0.00000000000E+00 -0.00000000000E+00 -0.63588584063E+02  0.63588584063E+02  0.00000000000E+00 0. -1.
         23    2    1    2    0    0  0.54371864874E+02 -0.57046983986E+00  0.83629336184E+02  0.15991388804E+03  0.12498784178E+03 0.  0.
          5    1    3    3  502    0  0.89473409006E-01 -0.54901254317E+02  0.54892163735E+02  0.77777859128E+02  0.47000000000E+01 0. -1.
         -5    1    3    3    0  502  0.54282391465E+02  0.54330784477E+02  0.28737172449E+02  0.82136028912E+02  0.47000000000E+01 0. -1.
        -11    1    1    2    0    0  0.10184885364E+02 -0.28595223241E+02  0.28213081682E+02  0.41441484772E+02  0.00000000000E+00 0. -1.
         11    1    1    2    0    0 -0.64556750238E+02  0.29165693081E+02  0.47785661717E+02  0.85449874897E+02  0.00000000000E+00 0.  1.
<mgrwt>
<rscale>  0 0.12665408E+03</rscale>
<asrwt>0</asrwt>
<pdfrwt beam="2">  1        1 0.97828592E-02 0.13630329E+03</pdfrwt>
<pdfrwt beam="1">  1       -1 0.34341025E-01 0.13630329E+03</pdfrwt>
<totfact> 0.50970233E+03</totfact>
</mgrwt>
</event>
<event>
 7    1  0.5928109E-006  0.1234545E+03  0.7546771E-02  0.1251974E+00
         -2   -1    0    0    0  501 -0.00000000000E+00  0.00000000000E+00  0.19376733190E+02  0.19376733190E+02  0.00000000000E+00 0.  1.
          2   -1    0    0  501    0  0.00000000000E+00 -0.00000000000E+00 -0.64451681033E+03  0.64451681033E+03  0.00000000000E+00 0. -1.
         23    2    1    2    0    0 -0.10106787656E+02 -0.13742587937E+02 -0.44089972235E+03  0.45785760709E+03  0.12227026345E+03 0.  0.
          5    1    3    3  502    0  0.43943934937E+02 -0.83758322122E+01 -0.34183304560E+03  0.34477985012E+03  0.47000000000E+01 0. -1.
         -5    1    3    3    0  502 -0.54050722593E+02 -0.53667557249E+01 -0.99066676745E+02  0.11307775697E+03  0.47000000000E+01 0.  1.
        -11    1    1    2    0    0 -0.34111275101E+02  0.13427378426E+01 -0.13262485925E+03  0.13694792925E+03  0.00000000000E+00 0. -1.
         11    1    1    2    0    0  0.44218062756E+02  0.12399850094E+02 -0.51615495537E+02  0.69088007178E+02  0.00000000000E+00 0.  1.
<mgrwt>
<rscale>  0 0.11477515E+03</rscale>
<asrwt>0</asrwt>
<pdfrwt beam="2">  1        2 0.99156422E-01 0.12345454E+03</pdfrwt>
<pdfrwt beam="1">  1       -2 0.29810362E-02 0.12345454E+03</pdfrwt>
<totfact> 0.18600124E+04</totfact>
</mgrwt>
</event>
<event>
 7    1  0.5928109E-006  0.1357152E+03  0.7546771E-02  0.1229965E+00
         -2   -1    0    0    0  501 -0.00000000000E+00  0.00000000000E+00  0.23820633034E+03  0.23820633034E+03  0.00000000000E+00 0.  1.
          2   -1    0    0  501    0  0.00000000000E+00 -0.00000000000E+00 -0.84956291735E+02  0.84956291735E+02  0.00000000000E+00 0. -1.
         23    2    1    2    0    0 -0.52790115115E+02  0.26458242240E+01  0.38081548112E+00  0.13571570277E+03  0.12499924127E+03 0.  0.
          5    1    3    3  502    0 -0.55281024513E+02 -0.88222725085E+01 -0.55174058858E+02  0.78740656171E+02  0.47000000000E+01 0.  1.
         -5    1    3    3    0  502  0.24909093982E+01  0.11468096733E+02  0.55554874339E+02  0.56975046601E+02  0.47000000000E+01 0.  1.
        -11    1    1    2    0    0  0.34810528538E+02  0.33208269180E+02  0.26628801405E+02  0.54987772307E+02  0.00000000000E+00 0. -1.
         11    1    1    2    0    0  0.17979586577E+02 -0.35854093404E+02  0.12624042172E+03  0.13245914700E+03  0.00000000000E+00 0.  1.
<mgrwt>
<rscale>  0 0.12832348E+03</rscale>
<asrwt>0</asrwt>
<pdfrwt beam="2">  1        2 0.13070199E-01 0.13571517E+03</pdfrwt>
<pdfrwt beam="1">  1       -2 0.36647127E-01 0.13571517E+03</pdfrwt>
<totfact> 0.31137242E+03</totfact>
</mgrwt>
</event>
<event>
 7    1  0.5928109E-006  0.1616710E+03  0.7546771E-02  0.1194244E+00
          1   -1    0    0  501    0  0.00000000000E+00  0.00000000000E+00  0.11403211387E+04  0.11403211387E+04  0.00000000000E+00 0. -1.
         -1   -1    0    0    0  501 -0.00000000000E+00 -0.00000000000E+00 -0.24069016668E+02  0.24069016668E+02  0.00000000000E+00 0.  1.
         23    2    1    2    0    0 -0.70212759217E+02  0.74701677592E+02  0.84574487567E+03  0.86105859001E+03  0.12500931366E+03 0.  0.
          5    1    3    3  502    0 -0.74857349163E+02  0.94276129749E+02  0.81598571682E+03  0.82483112903E+03  0.47000000000E+01 0. -1.
         -5    1    3    3    0  502  0.46445899457E+01 -0.19574452157E+02  0.29759158854E+02  0.36227460975E+02  0.47000000000E+01 0. -1.
        -11    1    1    2    0    0  0.87593337510E+01 -0.24369624229E+02  0.52329063412E+01  0.26419459147E+02  0.00000000000E+00 0.  1.
         11    1    1    2    0    0  0.61453425466E+02 -0.50332053362E+02  0.26527434005E+03  0.27691210624E+03  0.00000000000E+00 0. -1.
<mgrwt>
<rscale>  0 0.15518410E+03</rscale>
<asrwt>0</asrwt>
<pdfrwt beam="1">  1        1 0.17543398E+00 0.16167096E+03</pdfrwt>
<pdfrwt beam="2">  1       -1 0.37029265E-02 0.16167096E+03</pdfrwt>
<totfact> 0.34449642E+03</totfact>
</mgrwt>
</event>
<event>
 7    1  0.5928109E-006  0.1457757E+03  0.7546771E-02  0.1214625E+00
         -3   -1    0    0    0  501 -0.00000000000E+00  0.00000000000E+00  0.54568024395E+02  0.54568024395E+02  0.00000000000E+00 0.  1.
          3   -1    0    0  501    0  0.00000000000E+00 -0.00000000000E+00 -0.33573299162E+03  0.33573299162E+03  0.00000000000E+00 0. -1.
         23    2    1    2    0    0 -0.67653495615E+02 -0.32371608455E+02 -0.11900141675E+03  0.18818044409E+03  0.12500250337E+03 0.  0.
          5    1    3    3  502    0 -0.62835010410E+02  0.24610033844E+02 -0.11136011046E+03  0.13029603410E+03  0.47000000000E+01 0. -1.
         -5    1    3    3    0  502 -0.48184852048E+01 -0.56981642299E+02 -0.76413062839E+01  0.57884409995E+02  0.47000000000E+01 0. -1.
        -11    1    1    2    0    0  0.41592965633E+02  0.61994732129E+02 -0.72068375023E+02  0.10376498581E+03  0.00000000000E+00 0.  1.
         11    1    1    2    0    0  0.26060529982E+02 -0.29623123674E+02 -0.90095175455E+02  0.98355586112E+02  0.00000000000E+00 0. -1.
<mgrwt>
<rscale>  0 0.13904101E+03</rscale>
<asrwt>0</asrwt>
<pdfrwt beam="2">  1        3 0.51651230E-01 0.14577566E+03</pdfrwt>
<pdfrwt beam="1">  1       -3 0.83950806E-02 0.14577566E+03</pdfrwt>
<totfact> 0.86139864E+02</totfact>
</mgrwt>
</event>
<event>
 6    1  0.5928109E-006  0.2051473E+03  0.7546771E-02  0.1168310E+00
          1   -1    0    0  501    0  0.00000000000E+00  0.00000000000E+00  0.34447744524E+03  0.34447744524E+03  0.00000000000E+00 0. -1.
         -1   -1    0    0    0  501 -0.00000000000E+00 -0.00000000000E+00 -0.10457582159E+03  0.10457582159E+03  0.00000000000E+00 0.  1.
          5    1    1    2  502    0 -0.10961347753E+03  0.61180982952E+02  0.18110207251E+03  0.22040480439E+03  0.47000000000E+01 0. -1.
         -5    1    1    2    0  502  0.30459893677E+02 -0.70881608372E+02  0.74613521867E+02  0.10743032707E+03  0.47000000000E+01 0.  1.
        -11    1    1    2    0    0  0.13833602512E+02 -0.12157173387E+02 -0.43302145872E+02  0.47055725054E+02  0.00000000000E+00 0. -1.
         11    1    1    2    0    0  0.65319981341E+02  0.21857798806E+02  0.27488175145E+02  0.74162410316E+02  0.00000000000E+00 0.  1.
<mgrwt>
<rscale>  0 0.17947722E+03</rscale>
<asrwt>0</asrwt>
<pdfrwt beam="1">  1        1 0.52996529E-01 0.20514728E+03</pdfrwt>
<pdfrwt beam="2">  1       -1 0.16088588E-01 0.20514728E+03</pdfrwt>
<totfact> 0.20896457E+03</totfact>
</mgrwt>
</event>
<event>
 7    1  0.5928109E-006  0.1588075E+03  0.7546771E-02  0.1197707E+00
          2   -1    0    0  501    0  0.00000000000E+00  0.00000000000E+00  0.33455320020E+03  0.33455320020E+03  0.00000000000E+00 0. -1.
         -2   -1    0    0    0  501 -0.00000000000E+00 -0.00000000000E+00 -0.72028456726E+02  0.72028456726E+02  0.00000000000E+00 0.  1.
         23    2    1    2    0    0  0.97921825104E+02  0.35746956182E+01  0.20799050856E+03  0.26168658365E+03  0.12497341371E+03 0.  0.
          5    1    3    3  502    0  0.12512320209E+03  0.19804321339E+02  0.16759450388E+03  0.21013813213E+03  0.47000000000E+01 0.  1.
         -5    1    3    3    0  502 -0.27201376981E+02 -0.16229625721E+02  0.40396004672E+02  0.51548451521E+02  0.47000000000E+01 0.  1.
        -11    1    1    2    0    0  0.13971026150E+01 -0.21575731354E+02 -0.11290324932E+02  0.24391300011E+02  0.00000000000E+00 0.  1.
         11    1    1    2    0    0 -0.99318927719E+02  0.18001035735E+02  0.65824559847E+02  0.12050377326E+03  0.00000000000E+00 0. -1.
<mgrwt>
<rscale>  0 0.15227352E+03</rscale>
<asrwt>0</asrwt>
<pdfrwt beam="1">  1        2 0.51469722E-01 0.15880748E+03</pdfrwt>
<pdfrwt beam="2">  1       -2 0.11081301E-01 0.15880748E+03</pdfrwt>
<totfact> 0.52839118E+03</totfact>
</mgrwt>
</event>
<event>
 7    1  0.5928109E-006  0.1290001E+03  0.7546771E-02  0.1243377E+00
         -1   -1    0    0    0  501 -0.00000000000E+00  0.00000000000E+00  0.58869432742E+03  0.58869432742E+03  0.00000000000E+00 0.  1.
          1   -1    0    0  501    0  0.00000000000E+00 -0.00000000000E+00 -0.23350758582E+02  0.23350758582E+02  0.00000000000E+00 0. -1.
         23    2    1    2    0    0 -0.19385828899E+01  0.31774130821E+02  0.23568569838E+03  0.26867970589E+03  0.12501072932E+03 0.  0.
          5    1    3    3  502    0  0.45177206443E+01  0.77429769242E+02  0.10964400345E+03  0.13438629564E+03  0.47000000000E+01 0. -1.
         -5    1    3    3    0  502 -0.64563035342E+01 -0.45655638421E+02  0.12604169493E+03  0.13429341025E+03  0.47000000000E+01 0. -1.
        -11    1    1    2    0    0 -0.31354959089E+02  0.16705921608E+02  0.94292156401E+02  0.10076324744E+03  0.00000000000E+00 0. -1.
         11    1    1    2    0    0  0.33293541979E+02 -0.48480052429E+02  0.23536571406E+03  0.24260213267E+03  0.00000000000E+00 0.  1.
<mgrwt>
<rscale>  0 0.11983018E+03</rscale>
<asrwt>0</asrwt>
<pdfrwt beam="2">  1        1 0.35924248E-02 0.12900014E+03</pdfrwt>
<pdfrwt beam="1">  1       -1 0.90568347E-01 0.12900014E+03</pdfrwt>
<totfact> 0.31801423E+03</totfact>
</mgrwt>
</event>
<event>
 7    1  0.5928109E-006  0.1327878E+03  0.7546771E-02  0.1235815E+00
          2   -1    0    0  501    0  0.00000000000E+00  0.00000000000E+00  0.69221426326E+03  0.69221426326E+03  0.00000000000E+00 0. -1.
         -2   -1    0    0    0  501 -0.00000000000E+00 -0.00000000000E+00 -0.20111496654E+02  0.20111496654E+02  0.00000000000E+00 0.  1.
         23    2    1    2    0    0 -0.38295829520E+02 -0.23246545638E+02  0.35586939629E+03  0.37983633003E+03  0.12500255176E+03 0.  0.
          5    1    3    3  502    0 -0.24070614740E+02 -0.45598507682E+02  0.47401243780E+02  0.70196768506E+02  0.47000000000E+01 0.  1.
         -5    1    3    3    0  502 -0.14225214781E+02  0.22351962044E+02  0.30846815251E+03  0.30963956152E+03  0.47000000000E+01 0.  1.
        -11    1    1    2    0    0  0.34038352360E+02 -0.30787226468E+02  0.10863969304E+03  0.11793661708E+03  0.00000000000E+00 0.  1.
         11    1    1    2    0    0  0.42574771604E+01  0.54033772106E+02  0.20759367727E+03  0.21455281280E+03  0.00000000000E+00 0. -1.
<mgrwt>
<rscale>  0 0.12452399E+03</rscale>
<asrwt>0</asrwt>
<pdfrwt beam="1">  1        2 0.10649448E+00 0.13278784E+03</pdfrwt>
<pdfrwt beam="2">  1       -2 0.30940769E-02 0.13278784E+03</pdfrwt>
<totfact> 0.16297643E+04</totfact>
</mgrwt>
</event>
<event>
 7    1  0.5928109E-006  0.1789293E+03  0.7546771E-02  0.1174534E+00
         -1   -1    0    0    0  501 -0.00000000000E+00  0.00000000000E+00  0.41814141694E+02  0.41814141694E+02  0.00000000000E+00 0.  1.
          1   -1    0    0  501    0  0.00000000000E+00 -0.00000000000E+00 -0.68834747850E+03  0.68834747850E+03  0.00000000000E+00 0. -1.
         23    2    1    2    0    0 -0.74320832742E+02 -0.10424918274E+03 -0.39396013512E+03  0.43268959893E+03  0.12499689067E+03 0.  0.
          5    1    3    3  502    0  0.29505079727E+02 -0.40879557633E+02 -0.68290159138E+02  0.85013668296E+02  0.47000000000E+01 0. -1.
         -5    1    3    3    0  502 -0.10382591247E+03 -0.63369625111E+02 -0.32566997598E+03  0.34767593064E+03  0.47000000000E+01 0. -1.
        -11    1    1    2    0    0  0.45318026846E+02  0.39618396643E+02 -0.37232390650E+02  0.70778470054E+02  0.00000000000E+00 0.  1.
         11    1    1    2    0    0  0.29002805897E+02  0.64630786102E+02 -0.21534081103E+03  0.22669355120E+03  0.00000000000E+00 0. -1.
<mgrwt>
<rscale>  0 0.17321691E+03</rscale>
<asrwt>0</asrwt>
<pdfrwt beam="2">  1        1 0.10589961E+00 0.17892932E+03</pdfrwt>
<pdfrwt beam="1">  1       -1 0.64329452E-02 0.17892932E+03</pdfrwt>
<totfact> 0.34219295E+03</totfact>
</mgrwt>
</event>
<event>
 6    1  0.5928109E-006  0.1470451E+03  0.7546771E-02  0.1224019E+00
          1   -1    0    0  501    0  0.00000000000E+00  0.00000000000E+00  0.13502095956E+04  0.13502095956E+04  0.00000000000E+00 0. -1.
         -1   -1    0    0    0  501 -0.00000000000E+00 -0.00000000000E+00 -0.15571910374E+02  0.15571910374E+02  0.00000000000E+00 0.  1.
          5    1    1    2  502    0 -0.32940472624E+02  0.39436117899E+02  0.10085291365E+04  0.10098482021E+04  0.47000000000E+01 0. -1.
         -5    1    1    2    0  502  0.44189159464E+02 -0.94101057044E+01  0.12160057710E+03  0.12980763558E+03  0.47000000000E+01 0.  1.
        -11    1    1    2    0    0 -0.15819455328E+02 -0.61271456553E+02  0.15480825319E+03  0.16724246414E+03  0.00000000000E+00 0.  1.
         11    1    1    2    0    0  0.45707684875E+01  0.31245444358E+02  0.49699718407E+02  0.58883204120E+02  0.00000000000E+00 0. -1.
<mgrwt>
<rscale>  0 0.13234349E+03</rscale>
<asrwt>0</asrwt>
<pdfrwt beam="1">  1        1 0.20772446E+00 0.14704509E+03</pdfrwt>
<pdfrwt beam="2">  1       -1 0.23956796E-02 0.14704509E+03</pdfrwt>
<totfact> 0.46723809E+03</totfact>
</mgrwt>
</event>
<event>
 7    1  0.5928109E-006  0.1389981E+03  0.7546771E-02  0.1227313E+00
         -1   -1    0    0    0  501 -0.00000000000E+00  0.00000000000E+00  0.50703349603E+02  0.50703349603E+02  0.00000000000E+00 0.  1.
          1   -1    0    0  501    0  0.00000000000E+00 -0.00000000000E+00 -0.67906845562E+03  0.67906845562E+03  0.00000000000E+00 0. -1.
         23    2    1    2    0    0  0.59842457981E+02  0.10790005207E+02 -0.60475300225E+03  0.62052128639E+03  0.12499171632E+03 0.  0.
          5    1    3    3  502    0  0.37273962323E+02 -0.21123549179E+02 -0.57531405273E+02  0.71885361443E+02  0.47000000000E+01 0.  1.
         -5    1    3    3    0  502  0.22568495658E+02  0.31913554386E+02 -0.54722159698E+03  0.54863592495E+03  0.47000000000E+01 0.  1.
        -11    1    1    2    0    0  0.10087505462E+02 -0.16118980336E+02  0.19249175601E+02  0.27057532313E+02  0.00000000000E+00 0.  1.
         11    1    1    2    0    0 -0.69929963444E+02  0.53289751291E+01 -0.42861279368E+02  0.82192986515E+02  0.00000000000E+00 0. -1.
<mgrwt>
<rscale>  0 0.13009649E+03</rscale>
<asrwt>0</asrwt>
<pdfrwt beam="2">  1        1 0.10447206E+00 0.13899810E+03</pdfrwt>
<pdfrwt beam="1">  1       -1 0.78005163E-02 0.13899810E+03</pdfrwt>
<totfact> 0.25894767E+03</totfact>
</mgrwt>
</event>
<event>
 7    1  0.5928109E-006  0.1308540E+03  0.7546771E-02  0.1240044E+00
          2   -1    0    0  501    0  0.00000000000E+00  0.00000000000E+00  0.14872526018E+04  0.14872526018E+04  0.00000000000E+00 0. -1.
         -2   -1    0    0    0  501 -0.00000000000E+00 -0.00000000000E+00 -0.11522365319E+02  0.11522365319E+02  0.00000000000E+00 0.  1.
         23    2    1    2    0    0  0.38695894659E+02 -0.85607715588E+00  0.11767349612E+04  0.11839881530E+04  0.12499868990E+03 0.  0.
          5    1    3    3  502    0  0.27906491432E+02  0.37782361940E+02  0.10480644630E+04  0.10491270122E+04  0.47000000000E+01 0.  1.
         -5    1    3    3    0  502  0.10789403227E+02 -0.38638439096E+02  0.12867049821E+03  0.13486114083E+03  0.47000000000E+01 0.  1.
        -11    1    1    2    0    0  0.14803415541E+02  0.24800494428E+01  0.47945070267E+01  0.15756873247E+02  0.00000000000E+00 0.  1.
         11    1    1    2    0    0 -0.53499310200E+02 -0.16239722870E+01  0.29420076830E+03  0.29902994088E+03  0.00000000000E+00 0. -1.
<mgrwt>
<rscale>  0 0.12186954E+03</rscale>
<asrwt>0</asrwt>
<pdfrwt beam="1">  1        2 0.22880794E+00 0.13085403E+03</pdfrwt>
<pdfrwt beam="2">  1       -2 0.17726728E-02 0.13085403E+03</pdfrwt>
<totfact> 0.12411427E+04</totfact>
</mgrwt>
</event>
<event>
 7    1  0.5928109E-006  0.1826834E+03  0.7546771E-02  0.1170724E+00
          1   -1    0    0  501    0  0.00000000000E+00  0.00000000000E+00  0.37546380872E+02  0.37546380872E+02  0.00000000000E+00 0. -1.
         -1   -1    0    0    0  501 -0.00000000000E+00 -0.00000000000E+00 -0.84068512940E+03  0.84068512940E+03  0.00000000000E+00 0.  1.
         23    2    1    2    0    0 -0.86705775755E+02 -0.10117697481E+03 -0.31413846222E+03  0.36339535094E+03  0.12497414076E+03 0.  0.
          5    1    3    3  502    0 -0.53318065034E+02 -0.28625799943E+02 -0.25952510416E+03  0.26652883928E+03  0.47000000000E+01 0. -1.
         -5    1    3    3    0  502 -0.33387710722E+02 -0.72551174869E+02 -0.54613358060E+02  0.96866511658E+02  0.47000000000E+01 0. -1.
        -11    1    1    2    0    0  0.25088227123E+02  0.78348811892E+01 -0.20958911424E+02  0.33616669549E+02  0.00000000000E+00 0. -1.
         11    1    1    2    0    0  0.61617548632E+02  0.93342093623E+02 -0.46804137489E+03  0.48121948978E+03  0.00000000000E+00 0.  1.
<mgrwt>
<rscale>  0 0.17701497E+03</rscale>
<asrwt>0</asrwt>
<pdfrwt beam="1">  1        1 0.57763664E-02 0.18268335E+03</pdfrwt>
<pdfrwt beam="2">  1       -1 0.12933617E+00 0.18268335E+03</pdfrwt>
<totfact> 0.74649282E+02</totfact>
</mgrwt>
</event>
<event>
 7    1  0.5928109E-006  0.1313958E+03  0.7546771E-02  0.1237831E+00
         -2   -1    0    0    0  501 -0.00000000000E+00  0.00000000000E+00  0.15235310409E+03  0.15235310409E+03  0.00000000000E+00 0.  1.
          2   -1    0    0  501    0  0.00000000000E+00 -0.00000000000E+00 -0.89385505087E+02  0.89385505087E+02  0.00000000000E+00 0. -1.
         23    2    1    2    0    0 -0.38232199726E+02  0.13359286975E+02  0.29600328755E+02  0.13468865415E+03  0.12499872979E+03 0.  0.
          5    1    3    3  502    0 -0.50949569875E+01 -0.57450565264E+01 -0.47578754844E+02  0.48423054155E+02  0.47000000000E+01 0. -1.
         -5    1    3    3    0  502 -0.33137242738E+02  0.19104343501E+02  0.77179083599E+02  0.86265599993E+02  0.47000000000E+01 0. -1.
        -11    1    1    2    0    0  0.10994121641E+02  0.47260464838E+01  0.62270927922E+02  0.63410367372E+02  0.00000000000E+00 0.  1.
         11    1    1    2    0    0  0.27238078085E+02 -0.18085333459E+02 -0.28903657673E+02  0.43639587658E+02  0.00000000000E+00 0. -1.
<mgrwt>
<rscale>  0 0.12324926E+03</rscale>
<asrwt>0</asrwt>
<pdfrwt beam="2">  1        2 0.13751616E-01 0.13139579E+03</pdfrwt>
<pdfrwt beam="1">  1       -2 0.23438939E-01 0.13139579E+03</pdfrwt>
<totfact> 0.65165260E+03</totfact>
</mgrwt>
</event>
<event>
 7    1  0.5928109E-006  0.1323703E+03  0.7546771E-02  0.1236955E+00
          2   -1    0    0  501    0  0.00000000000E+00  0.00000000000E+00  0.11596862761E+03  0.11596862761E+03  0.00000000000E+00 0. -1.
         -2   -1    0    0    0  501 -0.00000000000E+00 -0.00000000000E+00 -0.13570623532E+03  0.13570623532E+03  0.00000000000E+00 0.  1.
         23    2    1    2    0    0 -0.92768037952E+01 -0.42622874823E+02  0.34490973278E+02  0.13679007209E+03  0.12497650994E+03 0.  0.
          5    1    3    3  502    0  0.49406078882E+01 -0.85649439091E+02  0.14919051520E+02  0.87206101399E+02  0.47000000000E+01 0.  1.
         -5    1    3    3    0  502 -0.14217411683E+02  0.43026564269E+02  0.19571921758E+02  0.49583970687E+02  0.47000000000E+01 0.  1.
        -11    1    1    2    0    0  0.15451762547E+02  0.29657624181E+02 -0.79260269570E+02  0.86026286507E+02  0.00000000000E+00 0.  1.
         11    1    1    2    0    0 -0.61749587519E+01  0.12965250641E+02  0.25031688582E+02  0.28858504345E+02  0.00000000000E+00 0. -1.
<mgrwt>
<rscale>  0 0.12380112E+03</rscale>
<asrwt>0</asrwt>
<pdfrwt beam="1">  1        2 0.17841327E-01 0.13237030E+03</pdfrwt>
<pdfrwt beam="2">  1       -2 0.20877882E-01 0.13237030E+03</pdfrwt>
<totfact> 0.58726429E+03</totfact>
</mgrwt>
</event>
<event>
 7    1  0.5928109E-006  0.1277976E+03  0.7546771E-02  0.1248495E+00
          1   -1    0    0  501    0  0.00000000000E+00  0.00000000000E+00  0.28002218058E+03  0.28002218058E+03  0.00000000000E+00 0. -1.
         -1   -1    0    0    0  501 -0.00000000000E+00 -0.00000000000E+00 -0.45545593203E+02  0.45545593203E+02  0.00000000000E+00 0.  1.
         23    2    1    2    0    0 -0.76716160901E+01  0.25542994199E+02  0.18119829100E+03  0.22173192697E+03  0.12498371307E+03 0.  0.
          5    1    3    3  502    0  0.56083837021E+02 -0.57115787949E+01  0.83865550219E+02  0.10116095799E+03  0.47000000000E+01 0. -1.
         -5    1    3    3    0  502 -0.63755453111E+02  0.31254572994E+02  0.97332740780E+02  0.12057096899E+03  0.47000000000E+01 0. -1.
        -11    1    1    2    0    0 -0.23629481291E+02  0.22152021563E+01 -0.11773077344E+02  0.26492732151E+02  0.00000000000E+00 0.  1.
         11    1    1    2    0    0  0.31301097381E+02 -0.27758196355E+02  0.65051373719E+02  0.77343114657E+02  0.00000000000E+00 0. -1.
<mgrwt>
<rscale>  0 0.11678638E+03</rscale>
<asrwt>0</asrwt>
<pdfrwt beam="1">  1        1 0.43080334E-01 0.12779760E+03</pdfrwt>
<pdfrwt beam="2">  1       -1 0.70070145E-02 0.12779760E+03</pdfrwt>
<totfact> 0.95016440E+03</totfact>
</mgrwt>
</event>
<event>
 7    1  0.5928109E-006  0.1309017E+03  0.7546771E-02  0.1239834E+00
          2   -1    0    0  501    0  0.00000000000E+00  0.00000000000E+00  0.22748024143E+03  0.22748024143E+03  0.00000000000E+00 0. -1.
         -2   -1    0    0    0  501 -0.00000000000E+00 -0.00000000000E+00 -0.58510472491E+02  0.58510472491E+02  0.00000000000E+00 0.  1.
         23    2    1    2    0    0  0.52061820812E+01 -0.38686898600E+02  0.10982230182E+03  0.17086891786E+03  0.12494586291E+03 0.  0.
          5    1    3    3  502    0 -0.38351898886E+02 -0.37145272478E+02  0.11485258255E+03  0.12674322520E+03  0.47000000000E+01 0.  1.
         -5    1    3    3    0  502  0.43558080968E+02 -0.15416261220E+01 -0.50302807282E+01  0.44125692662E+02  0.47000000000E+01 0.  1.
        -11    1    1    2    0    0  0.31568357415E+02  0.15695215279E+02  0.62356806601E+02  0.71632899578E+02  0.00000000000E+00 0. -1.
         11    1    1    2    0    0 -0.36774539496E+02  0.22991683322E+02 -0.32093394847E+01  0.43488896480E+02  0.00000000000E+00 0.  1.
<mgrwt>
<rscale>  0 0.12200008E+03</rscale>
<asrwt>0</asrwt>
<pdfrwt beam="1">  1        2 0.34996960E-01 0.13090168E+03</pdfrwt>
<pdfrwt beam="2">  1       -2 0.90016113E-02 0.13090168E+03</pdfrwt>
<totfact> 0.10907641E+04</totfact>
</mgrwt>
</event>
<event>
 7    1  0.5928109E-006  0.1258893E+03  0.7546771E-02  0.1248734E+00
          2   -1    0    0  501    0  0.00000000000E+00  0.00000000000E+00  0.83004112121E+02  0.83004112121E+02  0.00000000000E+00 0. -1.
         -2   -1    0    0    0  501 -0.00000000000E+00 -0.00000000000E+00 -0.15067028092E+03  0.15067028092E+03  0.00000000000E+00 0.  1.
         23    2    1    2    0    0  0.13360919919E+02 -0.62365822597E+01 -0.14482355690E+02  0.12671959930E+03  0.12502283424E+03 0.  0.
          5    1    3    3  502    0 -0.54851149824E+02 -0.11302490475E+02 -0.14957327412E+02  0.58156741408E+02  0.47000000000E+01 0. -1.
         -5    1    3    3    0  502  0.68212069742E+02  0.50659082155E+01  0.47497172161E+00  0.68562857895E+02  0.47000000000E+01 0. -1.
        -11    1    1    2    0    0  0.28001164266E+02 -0.12282304892E+01 -0.58228344481E+02  0.64622858583E+02  0.00000000000E+00 0.  1.
         11    1    1    2    0    0 -0.41362084184E+02  0.74648127489E+01  0.50445313704E+01  0.42331935158E+02  0.00000000000E+00 0. -1.
<mgrwt>
<rscale>  0 0.11664661E+03</rscale>
<asrwt>0</asrwt>
<pdfrwt beam="1">  1        2 0.12769863E-01 0.12588931E+03</pdfrwt>
<pdfrwt beam="2">  1       -2 0.23180043E-01 0.12588931E+03</pdfrwt>
<totfact> 0.72286434E+03</totfact>
</mgrwt>
</event>
<event>
 7    1  0.5928109E-006  0.1129845E+03  0.7546771E-02  0.1265465E+00
          1   -1    0    0  501    0  0.00000000000E+00  0.00000000000E+00  0.14964166127E+03  0.14964166127E+03  0.00000000000E+00 0. -1.
         -1   -1    0    0    0  501 -0.00000000000E+00 -0.00000000000E+00 -0.88835645462E+02  0.88835645462E+02  0.00000000000E+00 0.  1.
         23    2    1    2    0    0  0.15689509494E+02 -0.18532323683E+01  0.86985866829E+02  0.14259043094E+03  0.11187445995E+03 0.  0.
          5    1    3    3  502    0 -0.13215271626E+02  0.40520388139E+02  0.79790096092E+02  0.90581977752E+02  0.47000000000E+01 0. -1.
         -5    1    3    3    0  502  0.28904781120E+02 -0.42373620507E+02  0.71957707370E+01  0.52008453188E+02  0.47000000000E+01 0.  1.
        -11    1    1    2    0    0 -0.51507641374E+02 -0.12732562834E+02 -0.10138883697E+02  0.54018073262E+02  0.00000000000E+00 0.  1.
         11    1    1    2    0    0  0.35818131880E+02  0.14585795202E+02 -0.16040967321E+02  0.41868802534E+02  0.00000000000E+00 0. -1.
<mgrwt>
<rscale>  0 0.10739852E+03</rscale>
<asrwt>0</asrwt>
<pdfrwt beam="1">  1        1 0.23021794E-01 0.11298447E+03</pdfrwt>
<pdfrwt beam="2">  1       -1 0.13667022E-01 0.11298447E+03</pdfrwt>
<totfact> 0.74093724E+03</totfact>
</mgrwt>
</event>
<event>
 7    1  0.5928109E-006  0.1252290E+03  0.7546771E-02  0.1251562E+00
          3   -1    0    0  501    0  0.00000000000E+00  0.00000000000E+00  0.12608175027E+03  0.12608175027E+03  0.00000000000E+00 0. -1.
         -3   -1    0    0    0  501 -0.00000000000E+00 -0.00000000000E+00 -0.10244725389E+03  0.10244725389E+03  0.00000000000E+00 0.  1.
         23    2    1    2    0    0  0.72318151951E+01 -0.19998316615E+01  0.51166926898E+02  0.13527882955E+03  0.12500403529E+03 0.  0.
          5    1    3    3  502    0  0.37198185678E+02  0.49703664894E+02  0.11270200649E+02  0.63271373814E+02  0.47000000000E+01 0. -1.
         -5    1    3    3    0  502 -0.29966370483E+02 -0.51703496556E+02  0.39896726249E+02  0.72007455735E+02  0.47000000000E+01 0. -1.
        -11    1    1    2    0    0  0.20200998941E+02  0.38251783150E+02 -0.17688058858E+02  0.46734855285E+02  0.00000000000E+00 0. -1.
         11    1    1    2    0    0 -0.27432814136E+02 -0.36251951488E+02 -0.98443716560E+01  0.46515319320E+02  0.00000000000E+00 0.  1.
<mgrwt>
<rscale>  0 0.11501106E+03</rscale>
<asrwt>0</asrwt>
<pdfrwt beam="1">  1        3 0.19397192E-01 0.12522902E+03</pdfrwt>
<pdfrwt beam="2">  1       -3 0.15761116E-01 0.12522902E+03</pdfrwt>
<totfact> 0.18260801E+03</totfact>
</mgrwt>
</event>
<event>
 7    1  0.5928109E-006  0.1256263E+03  0.7546771E-02  0.1249372E+00
         -1   -1    0    0    0  501 -0.00000000000E+00  0.00000000000E+00  0.47082438466E+02  0.47082438466E+02  0.00000000000E+00 0.  1.
          1   -1    0    0  501    0  0.00000000000E+00 -0.00000000000E+00 -0.27624988498E+03  0.27624988498E+03  0.00000000000E+00 0. -1.
         23    2    1    2    0    0 -0.95346719433E+01 -0.78185260684E+01 -0.17807594326E+03  0.21792890453E+03  0.12501970462E+03 0.  0.
          5    1    3    3  502    0  0.18451831533E+02 -0.31441857280E+02 -0.17722299144E+03  0.18099485951E+03  0.47000000000E+01 0.  1.
         -5    1    3    3    0  502 -0.27986503477E+02  0.23623331212E+02 -0.85295182053E+00  0.36934045015E+02  0.47000000000E+01 0.  1.
        -11    1    1    2    0    0 -0.73663480656E+01  0.47996104543E+02 -0.28606132583E+02  0.56357785234E+02  0.00000000000E+00 0. -1.
         11    1    1    2    0    0  0.16901020009E+02 -0.40177578475E+02 -0.22485370679E+02  0.49045633690E+02  0.00000000000E+00 0.  1.
<mgrwt>
<rscale>  0 0.11627459E+03</rscale>
<asrwt>0</asrwt>
<pdfrwt beam="2">  1        1 0.42499983E-01 0.12562629E+03</pdfrwt>
<pdfrwt beam="1">  1       -1 0.72434520E-02 0.12562629E+03</pdfrwt>
<totfact> 0.91812437E+03</totfact>
</mgrwt>
</event>
<event>
 7    1  0.5928109E-006  0.1279545E+03  0.7546771E-02  0.1246164E+00
          2   -1    0    0  501    0  0.00000000000E+00  0.00000000000E+00  0.20116644874E+04  0.20116644874E+04  0.00000000000E+00 0.  1.
         -2   -1    0    0    0  501 -0.00000000000E+00 -0.00000000000E+00 -0.74774363128E+01  0.74774363128E+01  0.00000000000E+00 0. -1.
         23    2    1    2    0    0 -0.26753234650E+02 -0.56208895264E+01  0.15641260888E+04  0.15693510655E+04  0.12500006039E+03 0.  0.
          5    1    3    3  502    0  0.49173581800E-03 -0.52955596105E+02  0.11980793763E+04  0.11992583446E+04  0.47000000000E+01 0. -1.
         -5    1    3    3    0  502 -0.26753726385E+02  0.47334706578E+02  0.36604671246E+03  0.37009272085E+03  0.47000000000E+01 0. -1.
        -11    1    1    2    0    0 -0.30216795023E+02  0.86420567861E+01  0.95490567158E+02  0.10052953926E+03  0.00000000000E+00 0. -1.
         11    1    1    2    0    0  0.56970029673E+02 -0.30211672597E+01  0.34457039508E+03  0.34926131893E+03  0.00000000000E+00 0.  1.
<mgrwt>
<rscale>  0 0.11815982E+03</rscale>
<asrwt>0</asrwt>
<pdfrwt beam="1">  1        2 0.30948641E+00 0.12795446E+03</pdfrwt>
<pdfrwt beam="2">  1       -2 0.11503764E-02 0.12795446E+03</pdfrwt>
<totfact> 0.12446513E+04</totfact>
</mgrwt>
</event>
<event>
 6    1  0.5928109E-006  0.6024577E+03  0.7546771E-02  0.1042843E+00
         -2   -1    0    0    0  501 -0.00000000000E+00  0.00000000000E+00  0.16278029254E+03  0.16278029254E+03  0.00000000000E+00 0.  1.
          2   -1    0    0  501    0  0.00000000000E+00 -0.00000000000E+00 -0.80262195545E+03  0.80262195545E+03  0.00000000000E+00 0. -1.
          5    1    1    2  502    0  0.34048166431E+02 -0.14735245486E+03 -0.59402534891E+03  0.61299284559E+03  0.47000000000E+01 0. -1.
         -5    1    1    2    0  502  0.37005746274E+02  0.18576127427E+03  0.52994558328E+02  0.19674142799E+03  0.47000000000E+01 0.  1.
        -11    1    1    2    0    0  0.10997435093E+02  0.15848824533E+02 -0.29828238660E+02  0.35522565212E+02  0.00000000000E+00 0.  1.
         11    1    1    2    0    0 -0.82051347799E+02 -0.54257643946E+02 -0.68982633663E+02  0.12014540919E+03  0.00000000000E+00 0. -1.
<mgrwt>
<rscale>  0 0.40271654E+03</rscale>
<asrwt>0</asrwt>
<pdfrwt beam="2">  1        2 0.12348030E+00 0.60245770E+03</pdfrwt>
<pdfrwt beam="1">  1       -2 0.25043121E-01 0.60245770E+03</pdfrwt>
<totfact> 0.49502783E+02</totfact>
</mgrwt>
</event>
<event>
 7    1  0.5928109E-006  0.1426533E+03  0.7546771E-02  0.1220509E+00
         -3   -1    0    0    0  501 -0.00000000000E+00  0.00000000000E+00  0.21638000854E+03  0.21638000854E+03  0.00000000000E+00 0.  1.
          3   -1    0    0  501    0  0.00000000000E+00 -0.00000000000E+00 -0.90030258277E+02  0.90030258277E+02  0.00000000000E+00 0. -1.
         23    2    1    2    0    0 -0.26911797070E+02 -0.63246622358E+02  0.89093331521E+01  0.14293128487E+03  0.12500238365E+03 0.  0.
          5    1    3    3  502    0  0.16888090293E+02 -0.81007920847E+02 -0.22629326500E+02  0.85916629656E+02  0.47000000000E+01 0.  1.
         -5    1    3    3    0  502 -0.43799887362E+02  0.17761298489E+02  0.31538659652E+02  0.57014655218E+02  0.47000000000E+01 0.  1.
        -11    1    1    2    0    0 -0.32142129897E+02  0.95178907064E+01  0.40849330099E+02  0.52842923153E+02  0.00000000000E+00 0. -1.
         11    1    1    2    0    0  0.59053926967E+02  0.53728731651E+02  0.76591087013E+02  0.11063605879E+03  0.00000000000E+00 0.  1.
<mgrwt>
<rscale>  0 0.13479519E+03</rscale>
<asrwt>0</asrwt>
<pdfrwt beam="2">  1        3 0.13850809E-01 0.14265334E+03</pdfrwt>
<pdfrwt beam="1">  1       -3 0.33289232E-01 0.14265334E+03</pdfrwt>
<totfact> 0.87437356E+02</totfact>
</mgrwt>
</event>
<event>
 7    1  0.5928109E-006  0.1446512E+03  0.7546771E-02  0.1217813E+00
          3   -1    0    0  501    0  0.00000000000E+00  0.00000000000E+00  0.21821634881E+03  0.21821634881E+03  0.00000000000E+00 0. -1.
         -3   -1    0    0    0  501 -0.00000000000E+00 -0.00000000000E+00 -0.78053515441E+02  0.78053515441E+02  0.00000000000E+00 0.  1.
         23    2    1    2    0    0 -0.49751054221E+02  0.53185856273E+02  0.65492308029E+02  0.15878669676E+03  0.12498027826E+03 0.  0.
          5    1    3    3  502    0 -0.50153848068E+02 -0.69788263042E+01 -0.19570453787E+02  0.54490413414E+02  0.47000000000E+01 0. -1.
         -5    1    3    3    0  502  0.40279384688E+00  0.60164682578E+02  0.85062761817E+02  0.10429628335E+03  0.47000000000E+01 0. -1.
        -11    1    1    2    0    0  0.46663974441E+00 -0.30439929795E+02 -0.14007483470E+02  0.33511440908E+02  0.00000000000E+00 0.  1.
         11    1    1    2    0    0  0.49284414477E+02 -0.22745926479E+02  0.88678008811E+02  0.10397172658E+03  0.00000000000E+00 0. -1.
<mgrwt>
<rscale>  0 0.13671896E+03</rscale>
<asrwt>0</asrwt>
<pdfrwt beam="1">  1        3 0.33571746E-01 0.14465121E+03</pdfrwt>
<pdfrwt beam="2">  1       -3 0.12008233E-01 0.14465121E+03</pdfrwt>
<totfact> 0.10978340E+03</totfact>
</mgrwt>
</event>
<event>
 7    1  0.5928109E-006  0.1288009E+03  0.7546771E-02  0.1244943E+00
          4   -1    0    0  501    0  0.00000000000E+00  0.00000000000E+00  0.11674480752E+03  0.11674480752E+03  0.00000000000E+00 0. -1.
         -4   -1    0    0    0  501 -0.00000000000E+00 -0.00000000000E+00 -0.11489841971E+03  0.11489841971E+03  0.00000000000E+00 0.  1.
         23    2    1    2    0    0 -0.46557535587E+01  0.30829062245E+02  0.33233754745E+02  0.13301938644E+03  0.12497026684E+03 0.  0.
          5    1    3    3  502    0 -0.39858569948E+02 -0.22037489707E+02  0.49354558405E+02  0.67322499851E+02  0.47000000000E+01 0. -1.
         -5    1    3    3    0  502  0.35202816389E+02  0.52866551952E+02 -0.16120803661E+02  0.65696886590E+02  0.47000000000E+01 0. -1.
        -11    1    1    2    0    0 -0.11979883515E+02  0.55921527434E+01  0.25695922436E+02  0.28897581408E+02  0.00000000000E+00 0. -1.
         11    1    1    2    0    0  0.16635637074E+02 -0.36421214988E+02 -0.57083289373E+02  0.69726259384E+02  0.00000000000E+00 0.  1.
<mgrwt>
<rscale>  0 0.11888783E+03</rscale>
<asrwt>0</asrwt>
<pdfrwt beam="1">  1        4 0.17960740E-01 0.12880091E+03</pdfrwt>
<pdfrwt beam="2">  1       -4 0.17676680E-01 0.12880091E+03</pdfrwt>
<totfact> 0.12571257E+03</totfact>
</mgrwt>
</event>
<event>
 7    1  0.5928109E-006  0.1916945E+03  0.7546771E-02  0.1161624E+00
         -2   -1    0    0    0  501 -0.00000000000E+00  0.00000000000E+00  0.59897586145E+02  0.59897586145E+02  0.00000000000E+00 0.  1.
          2   -1    0    0  501    0  0.00000000000E+00 -0.00000000000E+00 -0.55989552035E+03  0.55989552035E+03  0.00000000000E+00 0. -1.
         23    2    1    2    0    0 -0.12303339136E+03  0.77367615431E+02 -0.30085532136E+03  0.35673620772E+03  0.12499533672E+03 0.  0.
          5    1    3    3  502    0  0.15844788003E+02  0.37127566088E+02 -0.33161802251E+02  0.52452917927E+02  0.47000000000E+01 0.  1.
         -5    1    3    3    0  502 -0.13887817937E+03  0.40240049343E+02 -0.26769351911E+03  0.30428328980E+03  0.47000000000E+01 0.  1.
        -11    1    1    2    0    0  0.44037657768E+02 -0.66119567981E+02 -0.49875898804E+02  0.93801481081E+02  0.00000000000E+00 0.  1.
         11    1    1    2    0    0  0.78995733596E+02 -0.11248047451E+02 -0.14926671404E+03  0.16925541769E+03  0.00000000000E+00 0. -1.
<mgrwt>
<rscale>  0 0.18653518E+03</rscale>
<asrwt>0</asrwt>
<pdfrwt beam="2">  1        2 0.86137770E-01 0.19169454E+03</pdfrwt>
<pdfrwt beam="1">  1       -2 0.92150135E-02 0.19169454E+03</pdfrwt>
<totfact> 0.40679791E+03</totfact>
</mgrwt>
</event>
<event>
 7    1  0.5928109E-006  0.1322908E+03  0.7546771E-02  0.1236452E+00
         -4   -1    0    0    0  501 -0.00000000000E+00  0.00000000000E+00  0.70630164665E+02  0.70630164665E+02  0.00000000000E+00 0.  1.
          4   -1    0    0  501    0  0.00000000000E+00 -0.00000000000E+00 -0.21453935749E+03  0.21453935749E+03  0.00000000000E+00 0. -1.
         23    2    1    2    0    0 -0.35624999491E+02  0.24775635823E+02 -0.12281497091E+03  0.18051145261E+03  0.12497157567E+03 0.  0.
          5    1    3    3  502    0  0.25113042668E+02  0.37355442735E+00  0.13735766326E+02  0.29009752352E+02  0.47000000000E+01 0.  1.
         -5    1    3    3    0  502 -0.60738042158E+02  0.24402081395E+02 -0.13655073723E+03  0.15150170026E+03  0.47000000000E+01 0.  1.
        -11    1    1    2    0    0  0.18664920277E+02 -0.43661599509E+02  0.23777345291E+02  0.53104394071E+02  0.00000000000E+00 0.  1.
         11    1    1    2    0    0  0.16960079213E+02  0.18885963686E+02 -0.44871567211E+02  0.51553675477E+02  0.00000000000E+00 0. -1.
<mgrwt>
<rscale>  0 0.12411925E+03</rscale>
<asrwt>0</asrwt>
<pdfrwt beam="2">  1        4 0.33006054E-01 0.13229084E+03</pdfrwt>
<pdfrwt beam="1">  1       -4 0.10866179E-01 0.13229084E+03</pdfrwt>
<totfact> 0.95839089E+02</totfact>
</mgrwt>
</event>
<event>
 7    1  0.5928109E-006  0.1364543E+03  0.7546771E-02  0.1230123E+00
          2   -1    0    0  501    0  0.00000000000E+00  0.00000000000E+00  0.72224423147E+03  0.72224423147E+03  0.00000000000E+00 0. -1.
         -2   -1    0    0    0  501 -0.00000000000E+00 -0.00000000000E+00 -0.22386784829E+02  0.22386784829E+02  0.00000000000E+00 0.  1.
         23    2    1    2    0    0 -0.18952562408E+02  0.51337407260E+02  0.49927550741E+03  0.51758652409E+03  0.12500019444E+03 0.  0.
          5    1    3    3  502    0  0.30112762740E+02  0.68203433651E+02  0.19377486997E+03  0.20767589430E+03  0.47000000000E+01 0.  1.
         -5    1    3    3    0  502 -0.49065325149E+02 -0.16866026391E+02  0.30550063744E+03  0.30991062979E+03  0.47000000000E+01 0.  1.
        -11    1    1    2    0    0 -0.21512627973E+02 -0.56557404267E+02  0.15200465685E+03  0.16360607826E+03  0.00000000000E+00 0. -1.
         11    1    1    2    0    0  0.40465190381E+02  0.52199970067E+01  0.48577282382E+02  0.63438413953E+02  0.00000000000E+00 0.  1.
<mgrwt>
<rscale>  0 0.12821902E+03</rscale>
<asrwt>0</asrwt>
<pdfrwt beam="1">  1        2 0.11111448E+00 0.13645431E+03</pdfrwt>
<pdfrwt beam="2">  1       -2 0.34441213E-02 0.13645431E+03</pdfrwt>
<totfact> 0.13255998E+04</totfact>
</mgrwt>
</event>
<event>
 7    1  0.5928109E-006  0.1589360E+03  0.7546771E-02  0.1197822E+00
          1   -1    0    0  501    0  0.00000000000E+00  0.00000000000E+00  0.62354579363E+03  0.62354579363E+03  0.00000000000E+00 0. -1.
         -1   -1    0    0    0  501 -0.00000000000E+00 -0.00000000000E+00 -0.44444588431E+02  0.44444588431E+02  0.00000000000E+00 0.  1.
         23    2    1    2    0    0 -0.53566857553E+02 -0.82258638951E+02  0.46798567623E+03  0.49423802991E+03  0.12499898058E+03 0.  0.
          5    1    3    3  502    0 -0.11885600032E+02 -0.10772651346E+03  0.29053634705E+03  0.31012856712E+03  0.47000000000E+01 0.  1.
         -5    1    3    3    0  502 -0.41681257522E+02  0.25467874513E+02  0.17744932918E+03  0.18410946279E+03  0.47000000000E+01 0.  1.
        -11    1    1    2    0    0  0.64240152134E+02  0.56759859935E+02  0.34681071593E+02  0.92472999156E+02  0.00000000000E+00 0.  1.
         11    1    1    2    0    0 -0.10673294581E+02  0.25498779017E+02  0.76434457380E+02  0.81279352997E+02  0.00000000000E+00 0. -1.
<mgrwt>
<rscale>  0 0.15217761E+03</rscale>
<asrwt>0</asrwt>
<pdfrwt beam="1">  1        1 0.95930116E-01 0.15893595E+03</pdfrwt>
<pdfrwt beam="2">  1       -1 0.68376294E-02 0.15893595E+03</pdfrwt>
<totfact> 0.35741610E+03</totfact>
</mgrwt>
</event>
<event>
 7    1  0.5928109E-006  0.1303961E+03  0.7546771E-02  0.1243665E+00
          1   -1    0    0  501    0  0.00000000000E+00  0.00000000000E+00  0.13587332925E+04  0.13587332925E+04  0.00000000000E+00 0. -1.
         -1   -1    0    0    0  501 -0.00000000000E+00 -0.00000000000E+00 -0.19615379745E+02  0.19615379745E+02  0.00000000000E+00 0.  1.
         23    2    1    2    0    0  0.24983569748E+02 -0.27453347363E+02  0.12229277283E+04  0.12298599032E+04  0.12500115095E+03 0.  0.
          5    1    3    3  502    0  0.70344784234E+02  0.97231646143E+00  0.87146964198E+03  0.87431731137E+03  0.47000000000E+01 0. -1.
         -5    1    3    3    0  502 -0.45361214487E+02 -0.28425663825E+02  0.35145808634E+03  0.35554259182E+03  0.47000000000E+01 0. -1.
        -11    1    1    2    0    0  0.17314585138E+02  0.33961922265E+02  0.91400196821E+02  0.99031323335E+02  0.00000000000E+00 0. -1.
         11    1    1    2    0    0 -0.42298154886E+02 -0.65085749021E+01  0.24789987666E+02  0.49457445774E+02  0.00000000000E+00 0.  1.
<mgrwt>
<rscale>  0 0.11965653E+03</rscale>
<asrwt>0</asrwt>
<pdfrwt beam="1">  1        1 0.20903582E+00 0.13039614E+03</pdfrwt>
<pdfrwt beam="2">  1       -1 0.30177518E-02 0.13039614E+03</pdfrwt>
<totfact> 0.32876904E+03</totfact>
</mgrwt>
</event>
<event>
 7    1  0.5928109E-006  0.1308774E+03  0.7546771E-02  0.1239529E+00
         -1   -1    0    0    0  501 -0.00000000000E+00  0.00000000000E+00  0.13185486944E+02  0.13185486944E+02  0.00000000000E+00 0.  1.
          1   -1    0    0  501    0  0.00000000000E+00 -0.00000000000E+00 -0.14785576196E+04  0.14785576196E+04  0.00000000000E+00 0. -1.
         23    2    1    2    0    0  0.20065872421E+02  0.33189002417E+02 -0.12198381296E+04  0.12268390084E+04  0.12499896429E+03 0.  0.
          5    1    3    3  502    0  0.66200119990E+02 -0.92564089201E+01 -0.55333196291E+03  0.55737463897E+03  0.47000000000E+01 0.  1.
         -5    1    3    3    0  502 -0.46134247568E+02  0.42445411337E+02 -0.66650616666E+03  0.66946436943E+03  0.47000000000E+01 0.  1.
        -11    1    1    2    0    0 -0.43176500174E+02  0.13678839715E+02 -0.88712914899E+02  0.99605733234E+02  0.00000000000E+00 0.  1.
         11    1    1    2    0    0  0.23110627753E+02 -0.46867842132E+02 -0.15682108824E+03  0.16529836496E+03  0.00000000000E+00 0. -1.
<mgrwt>
<rscale>  0 0.12218920E+03</rscale>
<asrwt>0</asrwt>
<pdfrwt beam="2">  1        1 0.22747047E+00 0.13087739E+03</pdfrwt>
<pdfrwt beam="1">  1       -1 0.20285358E-02 0.13087739E+03</pdfrwt>
<totfact> 0.48787971E+03</totfact>
</mgrwt>
</event>
<event>
 7    1  0.5928109E-006  0.1329863E+03  0.7546771E-02  0.1224560E+00
          2   -1    0    0  501    0  0.00000000000E+00  0.00000000000E+00  0.31059195732E+03  0.31059195732E+03  0.00000000000E+00 0. -1.
         -2   -1    0    0    0  501 -0.00000000000E+00 -0.00000000000E+00 -0.57641760469E+02  0.57641760469E+02  0.00000000000E+00 0.  1.
         23    2    1    2    0    0 -0.27540715157E+02 -0.36067355863E+02  0.16594674897E+03  0.21265859275E+03  0.12500403364E+03 0.  0.
          5    1    3    3  502    0 -0.27475799136E+02 -0.76832753835E+02  0.67502518119E+02  0.10600411102E+03  0.47000000000E+01 0.  1.
         -5    1    3    3    0  502 -0.64916020175E-01  0.40765397973E+02  0.98444230855E+02  0.10665448174E+03  0.47000000000E+01 0.  1.
        -11    1    1    2    0    0 -0.13564654355E+02  0.68266608460E+01 -0.26962085285E+02  0.30944420967E+02  0.00000000000E+00 0.  1.
         11    1    1    2    0    0  0.41105369511E+02  0.29240695017E+02  0.11396553316E+03  0.12463070407E+03  0.00000000000E+00 0. -1.
<mgrwt>
<rscale>  0 0.13197139E+03</rscale>
<asrwt>0</asrwt>
<pdfrwt beam="1">  1        2 0.47783377E-01 0.13298629E+03</pdfrwt>
<pdfrwt beam="2">  1       -2 0.88679633E-02 0.13298629E+03</pdfrwt>
<totfact> 0.80297442E+03</totfact>
</mgrwt>
</event>
<event>
 7    1  0.5928109E-006  0.3084351E+03  0.7546771E-02  0.1082662E+00
         -1   -1    0    0    0  501 -0.00000000000E+00  0.00000000000E+00  0.97849487354E+02  0.97849487354E+02  0.00000000000E+00 0.  1.
          1   -1    0    0  501    0  0.00000000000E+00 -0.00000000000E+00 -0.93344306929E+03  0.93344306929E+03  0.00000000000E+00 0. -1.
         23    2    1    2    0    0 -0.16683858716E+03  0.22731089478E+03 -0.44141254880E+03  0.53849538209E+03  0.12500752473E+03 0.  0.
          5    1    3    3  502    0 -0.11316271707E+03  0.52119582223E+02 -0.19338959991E+03  0.23009536879E+03  0.47000000000E+01 0. -1.
         -5    1    3    3    0  502 -0.53675870092E+02  0.17519131255E+03 -0.24802294890E+03  0.30840001330E+03  0.47000000000E+01 0. -1.
        -11    1    1    2    0    0  0.58036300198E+02 -0.21619348915E+02 -0.66184480607E+02  0.90642119687E+02  0.00000000000E+00 0.  1.
         11    1    1    2    0    0  0.10880228697E+03 -0.20569154586E+03 -0.32799655253E+03  0.40215505487E+03  0.00000000000E+00 0. -1.
<mgrwt>
<rscale>  0 0.30521475E+03</rscale>
<asrwt>0</asrwt>
<pdfrwt beam="2">  1        1 0.14360662E+00 0.30843514E+03</pdfrwt>
<pdfrwt beam="1">  1       -1 0.15053767E-01 0.30843514E+03</pdfrwt>
<totfact> 0.57537461E+02</totfact>
</mgrwt>
</event>
<event>
 7    1  0.5928109E-006  0.1681239E+03  0.7546771E-02  0.1186360E+00
         -1   -1    0    0    0  501 -0.00000000000E+00  0.00000000000E+00  0.12702284452E+03  0.12702284452E+03  0.00000000000E+00 0.  1.
          1   -1    0    0  501    0  0.00000000000E+00 -0.00000000000E+00 -0.22086961434E+03  0.22086961434E+03  0.00000000000E+00 0. -1.
         23    2    1    2    0    0  0.34260645893E+02  0.10708299746E+03 -0.11125794331E+03  0.20160352719E+03  0.12500036809E+03 0.  0.
          5    1    3    3  502    0 -0.32569525220E+02  0.85379677175E+02 -0.35439788620E+02  0.98125082751E+02  0.47000000000E+01 0. -1.
         -5    1    3    3    0  502  0.66830171112E+02  0.21703320288E+02 -0.75818154687E+02  0.10347844443E+03  0.47000000000E+01 0. -1.
        -11    1    1    2    0    0 -0.26654912869E+02 -0.12160881209E+03  0.26866178846E+02  0.12736160773E+03  0.00000000000E+00 0.  1.
         11    1    1    2    0    0 -0.76057330235E+01  0.14525814626E+02 -0.94550053543E+01  0.18927323942E+02  0.00000000000E+00 0. -1.
<mgrwt>
<rscale>  0 0.16208786E+03</rscale>
<asrwt>0</asrwt>
<pdfrwt beam="2">  1        1 0.33979940E-01 0.16812392E+03</pdfrwt>
<pdfrwt beam="1">  1       -1 0.19541976E-01 0.16812392E+03</pdfrwt>
<totfact> 0.26507986E+03</totfact>
</mgrwt>
</event>
<event>
 6    1  0.5928109E-006  0.1558592E+03  0.7546771E-02  0.1216362E+00
         -1   -1    0    0    0  501 -0.00000000000E+00  0.00000000000E+00  0.21497933983E+03  0.21497933983E+03  0.00000000000E+00 0.  1.
          1   -1    0    0  501    0  0.00000000000E+00 -0.00000000000E+00 -0.13560263904E+03  0.13560263904E+03  0.00000000000E+00 0. -1.
          5    1    1    2  502    0  0.64446619606E+02 -0.11713507258E+01 -0.82607389969E+02  0.10488474493E+03  0.47000000000E+01 0. -1.
         -5    1    1    2    0  502 -0.50928827866E+02 -0.41713724446E+02  0.10529999042E+02  0.66833757898E+02  0.47000000000E+01 0.  1.
        -11    1    1    2    0    0  0.81091335110E+01  0.78125161627E+01 -0.82310455295E+01  0.13947887496E+02  0.00000000000E+00 0. -1.
         11    1    1    2    0    0 -0.21626925250E+02  0.35072559009E+02  0.15968513724E+03  0.16491558855E+03  0.00000000000E+00 0.  1.
<mgrwt>
<rscale>  0 0.13776955E+03</rscale>
<asrwt>0</asrwt>
<pdfrwt beam="2">  1        1 0.20861944E-01 0.15585921E+03</pdfrwt>
<pdfrwt beam="1">  1       -1 0.33073745E-01 0.15585921E+03</pdfrwt>
<totfact> 0.20437845E+03</totfact>
</mgrwt>
</event>
<event>
 7    1  0.5928109E-006  0.1581305E+03  0.7546771E-02  0.1198731E+00
          1   -1    0    0  501    0  0.00000000000E+00  0.00000000000E+00  0.35425615264E+02  0.35425615264E+02  0.00000000000E+00 0. -1.
         -1   -1    0    0    0  501 -0.00000000000E+00 -0.00000000000E+00 -0.72818583887E+03  0.72818583887E+03  0.00000000000E+00 0.  1.
         23    2    1    2    0    0 -0.83716648301E+02  0.48725641656E+02 -0.21003390800E+03  0.26290587528E+03  0.12499036519E+03 0.  0.
          5    1    3    3  502    0  0.31129183652E+02  0.26169439222E+02 -0.51318576581E+02  0.65647177596E+02  0.47000000000E+01 0.  1.
         -5    1    3    3    0  502 -0.11484583195E+03  0.22556202433E+02 -0.15871533142E+03  0.19725869769E+03  0.47000000000E+01 0.  1.
        -11    1    1    2    0    0  0.15147369572E+01 -0.14627057917E+02 -0.62309545209E+01  0.15970912485E+02  0.00000000000E+00 0. -1.
         11    1    1    2    0    0  0.82201911344E+02 -0.34098583739E+02 -0.47649536108E+03  0.48473466636E+03  0.00000000000E+00 0.  1.
<mgrwt>
<rscale>  0 0.15142628E+03</rscale>
<asrwt>0</asrwt>
<pdfrwt beam="1">  1        1 0.54500952E-02 0.15813051E+03</pdfrwt>
<pdfrwt beam="2">  1       -1 0.11202858E+00 0.15813051E+03</pdfrwt>
<totfact> 0.11319252E+03</totfact>
</mgrwt>
</event>
<event>
 7    1  0.5928109E-006  0.1760621E+03  0.7546771E-02  0.1177460E+00
          2   -1    0    0  501    0  0.00000000000E+00  0.00000000000E+00  0.54354433170E+03  0.54354433170E+03  0.00000000000E+00 0. -1.
         -2   -1    0    0    0  501 -0.00000000000E+00 -0.00000000000E+00 -0.50858772554E+02  0.50858772554E+02  0.00000000000E+00 0.  1.
         23    2    1    2    0    0 -0.56959971994E+02 -0.11013003834E+03  0.29545689914E+03  0.34393695827E+03  0.12499915301E+03 0.  0.
          5    1    3    3  502    0  0.95035945790E+01 -0.16290191453E+02 -0.67357518205E+01  0.20570585798E+02  0.47000000000E+01 0. -1.
         -5    1    3    3    0  502 -0.66463566573E+02 -0.93839846892E+02  0.30219265096E+03  0.32336637247E+03  0.47000000000E+01 0. -1.
        -11    1    1    2    0    0  0.53369605694E+02  0.58427773837E+02  0.48139532852E+02  0.92625774980E+02  0.00000000000E+00 0.  1.
         11    1    1    2    0    0  0.35903663003E+01  0.51702264508E+02  0.14908912715E+03  0.15784037101E+03  0.00000000000E+00 0. -1.
<mgrwt>
<rscale>  0 0.17037242E+03</rscale>
<asrwt>0</asrwt>
<pdfrwt beam="1">  1        2 0.83622201E-01 0.17606207E+03</pdfrwt>
<pdfrwt beam="2">  1       -2 0.78244269E-02 0.17606207E+03</pdfrwt>
<totfact> 0.54116895E+03</totfact>
</mgrwt>
</event>
<event>
 7    1  0.5928109E-006  0.1380577E+03  0.7546771E-02  0.1233775E+00
          2   -1    0    0  501    0  0.00000000000E+00  0.00000000000E+00  0.94888703341E+03  0.94888703341E+03  0.00000000000E+00 0.  1.
         -2   -1    0    0    0  501 -0.00000000000E+00 -0.00000000000E+00 -0.14548389518E+02  0.14548389518E+02  0.00000000000E+00 0. -1.
         23    2    1    2    0    0 -0.58517942287E+02 -0.31720118300E+01  0.60774952143E+03  0.62323301880E+03  0.12500201473E+03 0.  0.
          5    1    3    3  502    0 -0.97738531732E+02 -0.59410873548E+01  0.40988257852E+03  0.42144268326E+03  0.47000000000E+01 0. -1.
         -5    1    3    3    0  502  0.39220589445E+02  0.27690755248E+01  0.19786694292E+03  0.20179033553E+03  0.47000000000E+01 0. -1.
        -11    1    1    2    0    0 -0.92610188289E+01  0.14931332523E+02  0.23146234157E+02  0.29059582177E+02  0.00000000000E+00 0. -1.
         11    1    1    2    0    0  0.67778961116E+02 -0.11759320693E+02  0.30344288830E+03  0.31114282195E+03  0.00000000000E+00 0.  1.
<mgrwt>
<rscale>  0 0.12583153E+03</rscale>
<asrwt>0</asrwt>
<pdfrwt beam="1">  1        2 0.14598257E+00 0.13805765E+03</pdfrwt>
<pdfrwt beam="2">  1       -2 0.22382145E-02 0.13805765E+03</pdfrwt>
<totfact> 0.17678166E+04</totfact>
</mgrwt>
</event>
<event>
 7    1  0.5928109E-006  0.1602047E+03  0.7546771E-02  0.1196432E+00
         -2   -1    0    0    0  501 -0.00000000000E+00  0.00000000000E+00  0.37509035644E+02  0.37509035644E+02  0.00000000000E+00 0. -1.
          2   -1    0    0  501    0  0.00000000000E+00 -0.00000000000E+00 -0.60714444519E+03  0.60714444519E+03  0.00000000000E+00 0.  1.
         23    2    1    2    0    0  0.48863255381E+02  0.87456108221E+02 -0.37810307219E+03  0.41064277259E+03  0.12501745832E+03 0.  0.
          5    1    3    3  502    0 -0.31823161816E+02  0.44191319059E+02 -0.23046168977E+03  0.23685494877E+03  0.47000000000E+01 0.  1.
         -5    1    3    3    0  502  0.80686417197E+02  0.43264789161E+02 -0.14764138243E+03  0.17378782381E+03  0.47000000000E+01 0.  1.
        -11    1    1    2    0    0 -0.26877336944E+02  0.65247353251E+01 -0.11939403962E+02  0.30124952768E+02  0.00000000000E+00 0.  1.
         11    1    1    2    0    0 -0.21985918437E+02 -0.93980843546E+02 -0.17959293339E+03  0.20388575548E+03  0.00000000000E+00 0. -1.
<mgrwt>
<rscale>  0 0.15333645E+03</rscale>
<asrwt>0</asrwt>
<pdfrwt beam="2">  1        2 0.93406843E-01 0.16020472E+03</pdfrwt>
<pdfrwt beam="1">  1       -2 0.57706206E-02 0.16020472E+03</pdfrwt>
<totfact> 0.75792290E+03</totfact>
</mgrwt>
</event>
<event>
 6    1  0.5928109E-006  0.1722395E+03  0.7546771E-02  0.1199840E+00
         -2   -1    0    0    0  501 -0.00000000000E+00  0.00000000000E+00  0.15304996703E+03  0.15304996703E+03  0.00000000000E+00 0.  1.
          2   -1    0    0  501    0  0.00000000000E+00 -0.00000000000E+00 -0.40381734778E+03  0.40381734778E+03  0.00000000000E+00 0. -1.
          5    1    1    2  502    0  0.66874050399E+02  0.11473955943E+01 -0.12754278600E+03  0.14409270416E+03  0.47000000000E+01 0. -1.
         -5    1    1    2    0  502 -0.10170975714E+03 -0.24213066500E+02 -0.23815501563E+03  0.26013659634E+03  0.47000000000E+01 0.  1.
        -11    1    1    2    0    0 -0.14983007319E+02  0.24266927791E+02  0.94620220212E+02  0.98824897499E+02  0.00000000000E+00 0.  1.
         11    1    1    2    0    0  0.49818714064E+02 -0.12012568850E+01  0.20310200668E+02  0.53813116805E+02  0.00000000000E+00 0. -1.
<mgrwt>
<rscale>  0 0.15051595E+03</rscale>
<asrwt>0</asrwt>
<pdfrwt beam="2">  1        2 0.62125745E-01 0.17223950E+03</pdfrwt>
<pdfrwt beam="1">  1       -2 0.23546149E-01 0.17223950E+03</pdfrwt>
<totfact> 0.12408606E+03</totfact>
</mgrwt>
</event>
<event>
 7    1  0.5928109E-006  0.1411813E+03  0.7546771E-02  0.1220034E+00
         -1   -1    0    0    0  501 -0.00000000000E+00  0.00000000000E+00  0.19056905812E+02  0.19056905812E+02  0.00000000000E+00 0.  1.
          1   -1    0    0  501    0  0.00000000000E+00 -0.00000000000E+00 -0.96665971001E+03  0.96665971001E+03  0.00000000000E+00 0. -1.
         23    2    1    2    0    0 -0.44644765026E+02  0.48088098386E+02 -0.65478090115E+03  0.66982847222E+03  0.12500613357E+03 0.  0.
          5    1    3    3  502    0 -0.49065593066E+02  0.21506769601E+02 -0.63185146648E+03  0.63413589967E+03  0.47000000000E+01 0. -1.
         -5    1    3    3    0  502  0.44208280400E+01  0.26581328785E+02 -0.22929434674E+02  0.35692572547E+02  0.47000000000E+01 0. -1.
        -11    1    1    2    0    0  0.49835341919E+02 -0.87422306976E+01 -0.54821417376E+02  0.74601445729E+02  0.00000000000E+00 0. -1.
         11    1    1    2    0    0 -0.51905768929E+01 -0.39345867688E+02 -0.23800048567E+03  0.24128669787E+03  0.00000000000E+00 0.  1.
<mgrwt>
<rscale>  0 0.13513139E+03</rscale>
<asrwt>0</asrwt>
<pdfrwt beam="2">  1        1 0.14871685E+00 0.14118128E+03</pdfrwt>
<pdfrwt beam="1">  1       -1 0.29318323E-02 0.14118128E+03</pdfrwt>
<totfact> 0.64366268E+03</totfact>
</mgrwt>
</event>
<event>
 7    1  0.5928109E-006  0.1268355E+03  0.7546771E-02  0.1246958E+00
          2   -1    0    0  501    0  0.00000000000E+00  0.00000000000E+00  0.38055835702E+02  0.38055835702E+02  0.00000000000E+00 0.  1.
         -2   -1    0    0    0  501 -0.00000000000E+00 -0.00000000000E+00 -0.32088318284E+03  0.32088318284E+03  0.00000000000E+00 0. -1.
         23    2    1    2    0    0 -0.10993935320E+02 -0.18556623950E+02 -0.16902898923E+03  0.21132450819E+03  0.12498813406E+03 0.  0.
          5    1    3    3  502    0  0.48769053558E+02  0.20766775512E+02 -0.54234833783E+02  0.75981489493E+02  0.47000000000E+01 0.  1.
         -5    1    3    3    0  502 -0.59762988878E+02 -0.39323399463E+02 -0.11479415545E+03  0.13534301870E+03  0.47000000000E+01 0.  1.
        -11    1    1    2    0    0 -0.18279233548E+02 -0.30684097100E+02 -0.33434633230E+02  0.48923602619E+02  0.00000000000E+00 0.  1.
         11    1    1    2    0    0  0.29273168868E+02  0.49240721051E+02 -0.80363724675E+02  0.98690907731E+02  0.00000000000E+00 0. -1.
<mgrwt>
<rscale>  0 0.11768932E+03</rscale>
<asrwt>0</asrwt>
<pdfrwt beam="1">  1        2 0.58547438E-02 0.12683552E+03</pdfrwt>
<pdfrwt beam="2">  1       -2 0.49366645E-01 0.12683552E+03</pdfrwt>
<totfact> 0.47492157E+03</totfact>
</mgrwt>
</event>
<event>
 7    1  0.5928109E-006  0.2818541E+03  0.7546771E-02  0.1094681E+00
          2   -1    0    0  501    0  0.00000000000E+00  0.00000000000E+00  0.16480185447E+03  0.16480185447E+03  0.00000000000E+00 0. -1.
         -2   -1    0    0    0  501 -0.00000000000E+00 -0.00000000000E+00 -0.12051095878E+03  0.12051095878E+03  0.00000000000E+00 0.  1.
         23    2    1    2    0    0 -0.11537343367E+02 -0.25427879898E+02  0.55375465670E+02  0.13452887255E+03  0.11938127150E+03 0.  0.
          5    1    3    3  502    0 -0.15030368101E+02 -0.15294541584E+02  0.92777047494E+02  0.95338898196E+02  0.47000000000E+01 0. -1.
         -5    1    3    3    0  502  0.34930247333E+01 -0.10133338314E+02 -0.37401581824E+02  0.39189974357E+02  0.47000000000E+01 0.  1.
        -11    1    1    2    0    0 -0.65457308456E+02 -0.44917233550E+01  0.77290832851E+01  0.66064919114E+02  0.00000000000E+00 0.  1.
         11    1    1    2    0    0  0.76994651824E+02  0.29919603254E+02 -0.18813653268E+02  0.84719021581E+02  0.00000000000E+00 0. -1.
<mgrwt>
<rscale>  0 0.28185407E+03</rscale>
<asrwt>0</asrwt>
<pdfrwt beam="1">  1        2 0.25354131E-01 0.28185407E+03</pdfrwt>
<pdfrwt beam="2">  1       -2 0.18540148E-01 0.28185407E+03</pdfrwt>
<totfact> 0.50407091E+03</totfact>
</mgrwt>
</event>
<event>
 7    1  0.5928109E-006  0.1650521E+03  0.7546771E-02  0.1190175E+00
         -1   -1    0    0    0  501 -0.00000000000E+00  0.00000000000E+00  0.64882772819E+02  0.64882772819E+02  0.00000000000E+00 0.  1.
          1   -1    0    0  501    0  0.00000000000E+00 -0.00000000000E+00 -0.43252480236E+03  0.43252480236E+03  0.00000000000E+00 0. -1.
         23    2    1    2    0    0 -0.10314340327E+03 -0.31262845812E+02 -0.29667916619E+03  0.33950071533E+03  0.12500512346E+03 0.  0.
          5    1    3    3  502    0 -0.52211020924E+02 -0.31674024152E+02 -0.30445214629E+02  0.68397628656E+02  0.47000000000E+01 0. -1.
         -5    1    3    3    0  502 -0.50932382342E+02  0.41117834045E+00 -0.26623395156E+03  0.27110308667E+03  0.47000000000E+01 0. -1.
        -11    1    1    2    0    0  0.36647545567E+02  0.53898871379E+02 -0.12165622385E+02  0.66303343053E+02  0.00000000000E+00 0.  1.
         11    1    1    2    0    0  0.66495857699E+02 -0.22636025567E+02 -0.58797240963E+02  0.91603516796E+02  0.00000000000E+00 0. -1.
<mgrwt>
<rscale>  0 0.15869723E+03</rscale>
<asrwt>0</asrwt>
<pdfrwt beam="2">  1        1 0.66542278E-01 0.16505214E+03</pdfrwt>
<pdfrwt beam="1">  1       -1 0.99819650E-02 0.16505214E+03</pdfrwt>
<totfact> 0.32734728E+03</totfact>
</mgrwt>
</event>
<event>
 7    1  0.5928109E-006  0.1459870E+03  0.7546771E-02  0.1215097E+00
         -1   -1    0    0    0  501 -0.00000000000E+00  0.00000000000E+00  0.62857494416E+02  0.62857494416E+02  0.00000000000E+00 0.  1.
          1   -1    0    0  501    0  0.00000000000E+00 -0.00000000000E+00 -0.28836003775E+03  0.28836003775E+03  0.00000000000E+00 0. -1.
         23    2    1    2    0    0 -0.74885181550E+02 -0.89202769778E+01 -0.15516567332E+03  0.21304599655E+03  0.12499939485E+03 0.  0.
          5    1    3    3  502    0 -0.64769087027E+02  0.17538251386E+02 -0.16846799293E+03  0.18140060512E+03  0.47000000000E+01 0.  1.
         -5    1    3    3    0  502 -0.10116094524E+02 -0.26458528363E+02  0.13302319616E+02  0.31645391430E+02  0.47000000000E+01 0.  1.
        -11    1    1    2    0    0 -0.10626585332E+02  0.15981934489E+02  0.91020616232E+01  0.21241329328E+02  0.00000000000E+00 0.  1.
         11    1    1    2    0    0  0.85511766883E+02 -0.70616575115E+01 -0.79438931645E+02  0.11693020629E+03  0.00000000000E+00 0. -1.
<mgrwt>
<rscale>  0 0.13869397E+03</rscale>
<asrwt>0</asrwt>
<pdfrwt beam="2">  1        1 0.44363083E-01 0.14598702E+03</pdfrwt>
<pdfrwt beam="1">  1       -1 0.96703837E-02 0.14598702E+03</pdfrwt>
<totfact> 0.56822720E+03</totfact>
</mgrwt>
</event>
<event>
 7    1  0.5928109E-006  0.2182463E+03  0.7546771E-02  0.1138642E+00
          1   -1    0    0  501    0  0.00000000000E+00  0.00000000000E+00  0.20365914878E+03  0.20365914878E+03  0.00000000000E+00 0. -1.
         -1   -1    0    0    0  501 -0.00000000000E+00 -0.00000000000E+00 -0.21611410455E+03  0.21611410455E+03  0.00000000000E+00 0.  1.
         23    2    1    2    0    0  0.10582785296E+03  0.14424920814E+03  0.46211410072E+01  0.21829519292E+03  0.12499627113E+03 0.  0.
          5    1    3    3  502    0  0.16435722382E+02  0.47614143739E+02  0.57291501894E+02  0.76430660363E+02  0.47000000000E+01 0.  1.
         -5    1    3    3    0  502  0.89392130575E+02  0.96635064402E+02 -0.52670360887E+02  0.14186453255E+03  0.47000000000E+01 0.  1.
        -11    1    1    2    0    0 -0.64174995161E+02 -0.48893927354E+02 -0.46787451536E+02  0.93263667938E+02  0.00000000000E+00 0.  1.
         11    1    1    2    0    0 -0.41652857796E+02 -0.95355280787E+02  0.29711354764E+02  0.10821439247E+03  0.00000000000E+00 0. -1.
<mgrwt>
<rscale>  0 0.21373503E+03</rscale>
<asrwt>0</asrwt>
<pdfrwt beam="1">  1        1 0.31332177E-01 0.21824627E+03</pdfrwt>
<pdfrwt beam="2">  1       -1 0.33248324E-01 0.21824627E+03</pdfrwt>
<totfact> 0.12216879E+03</totfact>
</mgrwt>
</event>
<event>
 7    1  0.5928109E-006  0.1250905E+03  0.7546771E-02  0.1249999E+00
         -1   -1    0    0    0  501 -0.00000000000E+00  0.00000000000E+00  0.96922713042E+02  0.96922713042E+02  0.00000000000E+00 0.  1.
          1   -1    0    0  501    0  0.00000000000E+00 -0.00000000000E+00 -0.12984574883E+03  0.12984574883E+03  0.00000000000E+00 0. -1.
         23    2    1    2    0    0 -0.47161461180E+01  0.97447926306E+00 -0.46703790920E+02  0.13352479875E+03  0.12499774458E+03 0.  0.
          5    1    3    3  502    0  0.55862268318E+02  0.13477552708E+02 -0.41962271750E+02  0.71310305700E+02  0.47000000000E+01 0.  1.
         -5    1    3    3    0  502 -0.60578414436E+02 -0.12503073445E+02 -0.47415191696E+01  0.62214493047E+02  0.47000000000E+01 0.  1.
        -11    1    1    2    0    0 -0.25625671337E+02 -0.30996749026E+02  0.27138705323E+02  0.48517860714E+02  0.00000000000E+00 0.  1.
         11    1    1    2    0    0  0.30341817455E+02  0.30022269763E+02 -0.13357950195E+02  0.44725802415E+02  0.00000000000E+00 0. -1.
<mgrwt>
<rscale>  0 0.11591085E+03</rscale>
<asrwt>0</asrwt>
<pdfrwt beam="2">  1        1 0.19976269E-01 0.12509048E+03</pdfrwt>
<pdfrwt beam="1">  1       -1 0.14911187E-01 0.12509048E+03</pdfrwt>
<totfact> 0.77977086E+03</totfact>
</mgrwt>
</event>
<event>
 7    1  0.5928109E-006  0.1315848E+03  0.7546771E-02  0.1237388E+00
          4   -1    0    0  501    0  0.00000000000E+00  0.00000000000E+00  0.23331160492E+02  0.23331160492E+02  0.00000000000E+00 0. -1.
         -4   -1    0    0    0  501 -0.00000000000E+00 -0.00000000000E+00 -0.60046155876E+03  0.60046155876E+03  0.00000000000E+00 0.  1.
         23    2    1    2    0    0 -0.31202373936E+02 -0.26753366366E+02 -0.27531137061E+03  0.30514080055E+03  0.12500090649E+03 0.  0.
          5    1    3    3  502    0  0.21836432543E+02  0.17963022220E+02 -0.20228705479E+03  0.20430771519E+03  0.47000000000E+01 0.  1.
         -5    1    3    3    0  502 -0.53038806479E+02 -0.44716388587E+02 -0.73024315818E+02  0.10083308535E+03  0.47000000000E+01 0.  1.
        -11    1    1    2    0    0 -0.30773489037E+01  0.47700570809E+02 -0.24146198886E+03  0.24614773327E+03  0.00000000000E+00 0.  1.
         11    1    1    2    0    0  0.34279722840E+02 -0.20947204443E+02 -0.60357038802E+02  0.72504185430E+02  0.00000000000E+00 0. -1.
<mgrwt>
<rscale>  0 0.12352768E+03</rscale>
<asrwt>0</asrwt>
<pdfrwt beam="1">  1        4 0.35894095E-02 0.13158479E+03</pdfrwt>
<pdfrwt beam="2">  1       -4 0.92378697E-01 0.13158479E+03</pdfrwt>
<totfact> 0.68786615E+02</totfact>
</mgrwt>
</event>
<event>
 7    1  0.5928109E-006  0.1269539E+03  0.7546771E-02  0.1247563E+00
          1   -1    0    0  501    0  0.00000000000E+00  0.00000000000E+00  0.13183652287E+03  0.13183652287E+03  0.00000000000E+00 0. -1.
         -1   -1    0    0    0  501 -0.00000000000E+00 -0.00000000000E+00 -0.12198858380E+03  0.12198858380E+03  0.00000000000E+00 0.  1.
         23    2    1    2    0    0  0.86307191440E+00  0.22205965697E+02  0.68435297547E+02  0.14422442251E+03  0.12499377701E+03 0.  0.
          5    1    3    3  502    0  0.53808491824E+02 -0.52845260223E+01  0.64440736378E+02  0.84249501557E+02  0.47000000000E+01 0.  1.
         -5    1    3    3    0  502 -0.52945419909E+02  0.27490491719E+02  0.39945611683E+01  0.59974920952E+02  0.47000000000E+01 0.  1.
        -11    1    1    2    0    0 -0.14887975137E+02 -0.31597172989E+02  0.12069734978E+02  0.36955536081E+02  0.00000000000E+00 0. -1.
         11    1    1    2    0    0  0.14024903223E+02  0.93912072921E+01 -0.70657093450E+02  0.72645148080E+02  0.00000000000E+00 0.  1.
<mgrwt>
<rscale>  0 0.11733279E+03</rscale>
<asrwt>0</asrwt>
<pdfrwt beam="1">  1        1 0.20282542E-01 0.12695391E+03</pdfrwt>
<pdfrwt beam="2">  1       -1 0.18767474E-01 0.12695391E+03</pdfrwt>
<totfact> 0.53267001E+03</totfact>
</mgrwt>
</event>
<event>
 7    1  0.5928109E-006  0.1278548E+03  0.7546771E-02  0.1249299E+00
          2   -1    0    0  501    0  0.00000000000E+00  0.00000000000E+00  0.33643682467E+03  0.33643682467E+03  0.00000000000E+00 0. -1.
         -2   -1    0    0    0  501 -0.00000000000E+00 -0.00000000000E+00 -0.35837865779E+02  0.35837865779E+02  0.00000000000E+00 0.  1.
         23    2    1    2    0    0 -0.26388138176E+02 -0.51224221879E+01  0.21283007592E+03  0.24828108330E+03  0.12499712823E+03 0.  0.
          5    1    3    3  502    0 -0.21697486568E+02 -0.51395121871E+02  0.38885640146E+02  0.68164671825E+02  0.47000000000E+01 0.  1.
         -5    1    3    3    0  502 -0.46906516085E+01  0.46272699683E+02  0.17394443577E+03  0.18011641148E+03  0.47000000000E+01 0.  1.
        -11    1    1    2    0    0  0.20425812318E+02  0.36395501358E+02  0.14628707381E+02  0.44224941013E+02  0.00000000000E+00 0.  1.
         11    1    1    2    0    0  0.59623258580E+01 -0.31273079170E+02  0.73140175593E+02  0.79768666130E+02  0.00000000000E+00 0. -1.
<mgrwt>
<rscale>  0 0.11631738E+03</rscale>
<asrwt>0</asrwt>
<pdfrwt beam="1">  1        2 0.51759509E-01 0.12785482E+03</pdfrwt>
<pdfrwt beam="2">  1       -2 0.55135180E-02 0.12785482E+03</pdfrwt>
<totfact> 0.15215903E+04</totfact>
</mgrwt>
</event>
<event>
 7    1  0.5928109E-006  0.1578332E+03  0.7546771E-02  0.1196445E+00
         -2   -1    0    0    0  501 -0.00000000000E+00  0.00000000000E+00  0.95077853197E+03  0.95077853197E+03  0.00000000000E+00 0.  1.
          2   -1    0    0  501    0  0.00000000000E+00 -0.00000000000E+00 -0.23550418297E+02  0.23550418297E+02  0.00000000000E+00 0. -1.
         23    2    1    2    0    0  0.96073756906E+02 -0.74585952544E+01  0.45305037627E+03  0.47975614454E+03  0.12500206949E+03 0.  0.
          5    1    3    3  502    0  0.64240961442E+02  0.91586754644E+01  0.43397400526E+03  0.43882377979E+03  0.47000000000E+01 0. -1.
         -5    1    3    3    0  502  0.31832795464E+02 -0.16617270719E+02  0.19076371003E+02  0.40932364748E+02  0.47000000000E+01 0. -1.
        -11    1    1    2    0    0 -0.10145817509E+03  0.17342674584E+02  0.47202013157E+03  0.48311234125E+03  0.00000000000E+00 0.  1.
         11    1    1    2    0    0  0.53844181832E+01 -0.98840793293E+01  0.21576058376E+01  0.11460464489E+02  0.00000000000E+00 0. -1.
<mgrwt>
<rscale>  0 0.15332603E+03</rscale>
<asrwt>0</asrwt>
<pdfrwt beam="2">  1        2 0.36231420E-02 0.15783319E+03</pdfrwt>
<pdfrwt beam="1">  1       -2 0.14627359E+00 0.15783319E+03</pdfrwt>
<totfact> 0.80245082E+02</totfact>
</mgrwt>
</event>
<event>
 7    1  0.5928109E-006  0.1413087E+03  0.7546771E-02  0.1222114E+00
          2   -1    0    0  501    0  0.00000000000E+00  0.00000000000E+00  0.30141329028E+03  0.30141329028E+03  0.00000000000E+00 0. -1.
         -2   -1    0    0    0  501 -0.00000000000E+00 -0.00000000000E+00 -0.80402167917E+02  0.80402167917E+02  0.00000000000E+00 0.  1.
         23    2    1    2    0    0  0.22345608544E+02 -0.61955897459E+02  0.22824943715E+03  0.26845101814E+03  0.12502113472E+03 0.  0.
          5    1    3    3  502    0  0.30685308915E+02 -0.56180471050E+02  0.24220707416E+03  0.25056773592E+03  0.47000000000E+01 0. -1.
         -5    1    3    3    0  502 -0.83397003714E+01 -0.57754264087E+01 -0.13957637001E+02  0.17883282225E+02  0.47000000000E+01 0. -1.
        -11    1    1    2    0    0 -0.27973240348E+00  0.42727057204E+02 -0.47305550326E+02  0.63745546975E+02  0.00000000000E+00 0.  1.
         11    1    1    2    0    0 -0.22065876141E+02  0.19228840255E+02  0.40067235538E+02  0.49618893086E+02  0.00000000000E+00 0. -1.
<mgrwt>
<rscale>  0 0.13366696E+03</rscale>
<asrwt>0</asrwt>
<pdfrwt beam="1">  1        2 0.46371275E-01 0.14130868E+03</pdfrwt>
<pdfrwt beam="2">  1       -2 0.12369564E-01 0.14130868E+03</pdfrwt>
<totfact> 0.49207658E+03</totfact>
</mgrwt>
</event>
<event>
 7    1  0.5928109E-006  0.1380818E+03  0.7546771E-02  0.1224431E+00
         -2   -1    0    0    0  501 -0.00000000000E+00  0.00000000000E+00  0.72398912426E+02  0.72398912426E+02  0.00000000000E+00 0.  1.
          2   -1    0    0  501    0  0.00000000000E+00 -0.00000000000E+00 -0.24840265453E+03  0.24840265453E+03  0.00000000000E+00 0. -1.
         23    2    1    2    0    0 -0.57793954292E+02  0.10333172036E+02 -0.14702152279E+03  0.20169757081E+03  0.12497866342E+03 0.  0.
          5    1    3    3  502    0 -0.74412004569E+02  0.51515312059E+02 -0.78436637688E+02  0.11985562120E+03  0.47000000000E+01 0.  1.
         -5    1    3    3    0  502  0.16618050277E+02 -0.41182140023E+02 -0.68584885103E+02  0.81841949613E+02  0.47000000000E+01 0.  1.
        -11    1    1    2    0    0  0.55910126596E+02 -0.42630942778E+02  0.70703462177E+01  0.70663493643E+02  0.00000000000E+00 0.  1.
         11    1    1    2    0    0  0.18838276953E+01  0.32297770742E+02 -0.36052565535E+02  0.48440502509E+02  0.00000000000E+00 0. -1.
<mgrwt>
<rscale>  0 0.13205972E+03</rscale>
<asrwt>0</asrwt>
<pdfrwt beam="2">  1        2 0.38215794E-01 0.13808179E+03</pdfrwt>
<pdfrwt beam="1">  1       -2 0.11138294E-01 0.13808179E+03</pdfrwt>
<totfact> 0.71329022E+03</totfact>
</mgrwt>
</event>
<event>
 7    1  0.5928109E-006  0.1275356E+03  0.7546771E-02  0.1245653E+00
         -2   -1    0    0    0  501 -0.00000000000E+00  0.00000000000E+00  0.35457901772E+02  0.35457901772E+02  0.00000000000E+00 0. -1.
          2   -1    0    0  501    0  0.00000000000E+00 -0.00000000000E+00 -0.42443223370E+03  0.42443223370E+03  0.00000000000E+00 0.  1.
         23    2    1    2    0    0  0.24104841855E+02 -0.77474339141E+01 -0.31401139885E+03  0.33892252593E+03  0.12499701533E+03 0.  0.
          5    1    3    3  502    0 -0.13041591986E+01  0.43468251162E+02 -0.24640875280E+03  0.25026097008E+03  0.47000000000E+01 0. -1.
         -5    1    3    3    0  502  0.25409001053E+02 -0.51215685076E+02 -0.67602646056E+02  0.88661555852E+02  0.47000000000E+01 0. -1.
        -11    1    1    2    0    0 -0.60232838364E+01 -0.40038781843E+02 -0.49288967681E+02  0.63787038924E+02  0.00000000000E+00 0.  1.
         11    1    1    2    0    0 -0.18081558018E+02  0.47786215757E+02 -0.25673965391E+02  0.57180570613E+02  0.00000000000E+00 0. -1.
<mgrwt>
<rscale>  0 0.11846403E+03</rscale>
<asrwt>0</asrwt>
<pdfrwt beam="2">  1        2 0.65297266E-01 0.12753556E+03</pdfrwt>
<pdfrwt beam="1">  1       -2 0.54550619E-02 0.12753556E+03</pdfrwt>
<totfact> 0.12073580E+04</totfact>
</mgrwt>
</event>
<event>
 7    1  0.5928109E-006  0.1265688E+03  0.7546771E-02  0.1255399E+00
         -1   -1    0    0    0  501 -0.00000000000E+00  0.00000000000E+00  0.27087920670E+02  0.27087920670E+02  0.00000000000E+00 0.  1.
          1   -1    0    0  501    0  0.00000000000E+00 -0.00000000000E+00 -0.46201590234E+03  0.46201590234E+03  0.00000000000E+00 0. -1.
         23    2    1    2    0    0  0.18629678202E+02  0.68755000833E+01 -0.35127968374E+03  0.37338597951E+03  0.12500134428E+03 0.  0.
          5    1    3    3  502    0  0.64437342688E+02  0.22305108587E+02 -0.27163714278E+03  0.28010447397E+03  0.47000000000E+01 0. -1.
         -5    1    3    3    0  502 -0.45807664485E+02 -0.15429608504E+02 -0.79642540961E+02  0.93281505535E+02  0.47000000000E+01 0. -1.
        -11    1    1    2    0    0 -0.43355359140E+02  0.92460598210E+01 -0.27177459770E+02  0.51997991384E+02  0.00000000000E+00 0.  1.
         11    1    1    2    0    0  0.24725680938E+02 -0.16121559904E+02 -0.56470838163E+02  0.63719852121E+02  0.00000000000E+00 0. -1.
<mgrwt>
<rscale>  0 0.11284002E+03</rscale>
<asrwt>0</asrwt>
<pdfrwt beam="2">  1        1 0.71079365E-01 0.12656885E+03</pdfrwt>
<pdfrwt beam="1">  1       -1 0.41673727E-02 0.12656885E+03</pdfrwt>
<totfact> 0.10962248E+04</totfact>
</mgrwt>
</event>
<event>
 7    1  0.5928109E-006  0.1322017E+03  0.7546771E-02  0.1237340E+00
          2   -1    0    0  501    0  0.00000000000E+00  0.00000000000E+00  0.14650962435E+04  0.14650962435E+04  0.00000000000E+00 0. -1.
         -2   -1    0    0    0  501 -0.00000000000E+00 -0.00000000000E+00 -0.12881693526E+02  0.12881693526E+02  0.00000000000E+00 0.  1.
         23    2    1    2    0    0  0.42390767212E+02 -0.74997702363E+01  0.11851041898E+04  0.11924551320E+04  0.12499630983E+03 0.  0.
          5    1    3    3  502    0 -0.42813750328E+02 -0.17073517751E+02  0.41729457468E+03  0.41985875516E+03  0.47000000000E+01 0.  1.
         -5    1    3    3    0  502  0.85204517539E+02  0.95737475148E+01  0.76780961510E+03  0.77259637683E+03  0.47000000000E+01 0.  1.
        -11    1    1    2    0    0  0.15855581571E+02  0.24647767571E+02  0.15763993672E+03  0.16034107883E+03  0.00000000000E+00 0.  1.
         11    1    1    2    0    0 -0.58246348783E+02 -0.17147997335E+02  0.10947042347E+03  0.12518172619E+03  0.00000000000E+00 0. -1.
<mgrwt>
<rscale>  0 0.12355816E+03</rscale>
<asrwt>0</asrwt>
<pdfrwt beam="1">  1        2 0.22539929E+00 0.13220174E+03</pdfrwt>
<pdfrwt beam="2">  1       -2 0.19818002E-02 0.13220174E+03</pdfrwt>
<totfact> 0.10850647E+04</totfact>
</mgrwt>
</event>
<event>
 6    1  0.5928109E-006  0.2081441E+03  0.7546771E-02  0.1151375E+00
         -2   -1    0    0    0  501 -0.00000000000E+00  0.00000000000E+00  0.46862040450E+02  0.46862040450E+02  0.00000000000E+00 0.  1.
          2   -1    0    0  501    0  0.00000000000E+00 -0.00000000000E+00 -0.11233371643E+04  0.11233371643E+04  0.00000000000E+00 0. -1.
          5    1    1    2  502    0 -0.16624427612E+01  0.53490695108E+02 -0.47624284615E+03  0.47926334795E+03  0.47000000000E+01 0. -1.
         -5    1    1    2    0  502  0.13430028294E+03  0.32628485433E+01 -0.42733684753E+03  0.44798000339E+03  0.47000000000E+01 0.  1.
        -11    1    1    2    0    0 -0.13357752111E+03 -0.21368496601E+02 -0.13569883621E+03  0.19160830082E+03  0.00000000000E+00 0. -1.
         11    1    1    2    0    0  0.93968093343E+00 -0.35385047050E+02 -0.37196593934E+02  0.51347552573E+02  0.00000000000E+00 0.  1.
<mgrwt>
<rscale>  0 0.19807262E+03</rscale>
<asrwt>0</asrwt>
<pdfrwt beam="2">  1        2 0.17282111E+00 0.20814411E+03</pdfrwt>
<pdfrwt beam="1">  1       -2 0.72095445E-02 0.20814411E+03</pdfrwt>
<totfact> 0.24557850E+03</totfact>
</mgrwt>
</event>
<event>
 7    1  0.5928109E-006  0.1443693E+03  0.7546771E-02  0.1217196E+00
         -3   -1    0    0    0  501 -0.00000000000E+00  0.00000000000E+00  0.38015275595E+02  0.38015275595E+02  0.00000000000E+00 0.  1.
          3   -1    0    0  501    0  0.00000000000E+00 -0.00000000000E+00 -0.56737108378E+03  0.56737108378E+03  0.00000000000E+00 0. -1.
         23    2    1    2    0    0 -0.54287507934E+02 -0.47627581489E+02 -0.42242059615E+03  0.44640973361E+03  0.12500788043E+03 0.  0.
          5    1    3    3  502    0 -0.17824713192E+02 -0.32690303074E+02 -0.20946746770E+02  0.42979442943E+02  0.47000000000E+01 0.  1.
         -5    1    3    3    0  502 -0.36462794743E+02 -0.14937278415E+02 -0.40147384938E+03  0.40343029066E+03  0.47000000000E+01 0.  1.
        -11    1    1    2    0    0  0.16466722801E+01  0.62746976791E+02 -0.60356136345E+02  0.87079032036E+02  0.00000000000E+00 0. -1.
         11    1    1    2    0    0  0.52640835654E+02 -0.15119395302E+02 -0.46579075690E+02  0.71897593734E+02  0.00000000000E+00 0.  1.
<mgrwt>
<rscale>  0 0.13716457E+03</rscale>
<asrwt>0</asrwt>
<pdfrwt beam="2">  1        3 0.87287852E-01 0.14436928E+03</pdfrwt>
<pdfrwt beam="1">  1       -3 0.58485044E-02 0.14436928E+03</pdfrwt>
<totfact> 0.51134832E+02</totfact>
</mgrwt>
</event>
<event>
 7    1  0.5928109E-006  0.1405308E+03  0.7546771E-02  0.1224882E+00
         -1   -1    0    0    0  501 -0.00000000000E+00  0.00000000000E+00  0.24400249754E+02  0.24400249754E+02  0.00000000000E+00 0. -1.
          1   -1    0    0  501    0  0.00000000000E+00 -0.00000000000E+00 -0.64876962186E+03  0.64876962186E+03  0.00000000000E+00 0.  1.
         23    2    1    2    0    0 -0.40295299270E+02 -0.50007620592E+02 -0.39876880739E+03  0.42280666518E+03  0.12499776442E+03 0.  0.
          5    1    3    3  502    0 -0.14579006956E+02 -0.87868526150E+02 -0.31319899114E+03  0.32565184382E+03  0.47000000000E+01 0.  1.
         -5    1    3    3    0  502 -0.25716292314E+02  0.37860905558E+02 -0.85569816247E+02  0.97154821355E+02  0.47000000000E+01 0.  1.
        -11    1    1    2    0    0  0.84222870113E+01  0.67523741303E+02 -0.17723747117E+03  0.18985128849E+03  0.00000000000E+00 0. -1.
         11    1    1    2    0    0  0.31873012258E+02 -0.17516120711E+02 -0.48363093549E+02  0.60511917940E+02  0.00000000000E+00 0.  1.
<mgrwt>
<rscale>  0 0.13174983E+03</rscale>
<asrwt>0</asrwt>
<pdfrwt beam="2">  1        1 0.99810687E-01 0.14053083E+03</pdfrwt>
<pdfrwt beam="1">  1       -1 0.37538855E-02 0.14053083E+03</pdfrwt>
<totfact> 0.81875501E+03</totfact>
</mgrwt>
</event>
<event>
 7    1  0.5928109E-006  0.1296914E+03  0.7546771E-02  0.1242444E+00
          2   -1    0    0  501    0  0.00000000000E+00  0.00000000000E+00  0.34452459464E+03  0.34452459464E+03  0.00000000000E+00 0. -1.
         -2   -1    0    0    0  501 -0.00000000000E+00 -0.00000000000E+00 -0.38388746559E+02  0.38388746559E+02  0.00000000000E+00 0.  1.
         23    2    1    2    0    0  0.11700670244E+02 -0.32531775752E+02  0.21003774840E+03  0.24685160450E+03  0.12499854709E+03 0.  0.
          5    1    3    3  502    0  0.60419423126E+02 -0.16887321284E+02  0.55146470655E+02  0.83659497588E+02  0.47000000000E+01 0. -1.
         -5    1    3    3    0  502 -0.48718752882E+02 -0.15644454467E+02  0.15489127775E+03  0.16319210692E+03  0.47000000000E+01 0. -1.
        -11    1    1    2    0    0 -0.16641606948E+02 -0.21966154427E+02  0.25392493860E+01  0.27674949134E+02  0.00000000000E+00 0.  1.
         11    1    1    2    0    0  0.49409367039E+01  0.54497930179E+02  0.93558850298E+02  0.10838678756E+03  0.00000000000E+00 0. -1.
<mgrwt>
<rscale>  0 0.12039679E+03</rscale>
<asrwt>0</asrwt>
<pdfrwt beam="1">  1        2 0.53003782E-01 0.12969140E+03</pdfrwt>
<pdfrwt beam="2">  1       -2 0.59059612E-02 0.12969140E+03</pdfrwt>
<totfact> 0.13390847E+04</totfact>
</mgrwt>
</event>
<event>
 7    1  0.5928109E-006  0.1697037E+03  0.7546771E-02  0.1185359E+00
          2   -1    0    0  501    0  0.00000000000E+00  0.00000000000E+00  0.48384097221E+03  0.48384097221E+03  0.00000000000E+00 0. -1.
         -2   -1    0    0    0  501 -0.00000000000E+00 -0.00000000000E+00 -0.51294219352E+02  0.51294219352E+02  0.00000000000E+00 0.  1.
         23    2    1    2    0    0 -0.54267274122E+02  0.10113309526E+03  0.21275668946E+03  0.27214842110E+03  0.12500605666E+03 0.  0.
          5    1    3    3  502    0 -0.16424831380E+02 -0.24285799752E+02  0.11244994365E+02  0.31750827607E+02  0.47000000000E+01 0.  1.
         -5    1    3    3    0  502 -0.37842442742E+02  0.12541889501E+03  0.20151169509E+03  0.24039759349E+03  0.47000000000E+01 0.  1.
        -11    1    1    2    0    0 -0.10363606032E+02 -0.54209669246E+02  0.46469478344E+02  0.72149185632E+02  0.00000000000E+00 0.  1.
         11    1    1    2    0    0  0.64630880155E+02 -0.46923426015E+02  0.17332058506E+03  0.19083758483E+03  0.00000000000E+00 0. -1.
<mgrwt>
<rscale>  0 0.16299270E+03</rscale>
<asrwt>0</asrwt>
<pdfrwt beam="1">  1        2 0.74437069E-01 0.16970372E+03</pdfrwt>
<pdfrwt beam="2">  1       -2 0.78914187E-02 0.16970372E+03</pdfrwt>
<totfact> 0.60679713E+03</totfact>
</mgrwt>
</event>
<event>
 7    1  0.5928109E-006  0.1963739E+03  0.7546771E-02  0.1157438E+00
          2   -1    0    0  501    0  0.00000000000E+00  0.00000000000E+00  0.79604629530E+03  0.79604629530E+03  0.00000000000E+00 0.  1.
         -2   -1    0    0    0  501 -0.00000000000E+00 -0.00000000000E+00 -0.43838726998E+02  0.43838726998E+02  0.00000000000E+00 0. -1.
         23    2    1    2    0    0 -0.14660701121E+03 -0.37987220291E+02  0.42678278674E+03  0.46979383728E+03  0.12500423130E+03 0.  0.
          5    1    3    3  502    0  0.17288585622E+02  0.10371471732E+02  0.87043288469E+02  0.89471150022E+02  0.47000000000E+01 0. -1.
         -5    1    3    3    0  502 -0.16389559683E+03 -0.48358692023E+02  0.33973949827E+03  0.38032268725E+03  0.47000000000E+01 0. -1.
        -11    1    1    2    0    0  0.26709967881E+02  0.17909158301E+02  0.16873939478E+03  0.17177643519E+03  0.00000000000E+00 0.  1.
         11    1    1    2    0    0  0.11989704332E+03  0.20078061990E+02  0.15668538678E+03  0.19831474983E+03  0.00000000000E+00 0. -1.
<mgrwt>
<rscale>  0 0.19113878E+03</rscale>
<asrwt>0</asrwt>
<pdfrwt beam="1">  1        2 0.12246865E+00 0.19637388E+03</pdfrwt>
<pdfrwt beam="2">  1       -2 0.67444201E-02 0.19637388E+03</pdfrwt>
<totfact> 0.43524532E+03</totfact>
</mgrwt>
</event>
<event>
 7    1  0.5928109E-006  0.1309772E+03  0.7546771E-02  0.1239357E+00
         -2   -1    0    0    0  501 -0.00000000000E+00  0.00000000000E+00  0.57239141036E+02  0.57239141036E+02  0.00000000000E+00 0.  1.
          2   -1    0    0  501    0  0.00000000000E+00 -0.00000000000E+00 -0.33680257450E+03  0.33680257450E+03  0.00000000000E+00 0. -1.
         23    2    1    2    0    0 -0.37711846897E+01 -0.38930467276E+02 -0.26205043341E+03  0.29295983952E+03  0.12500093922E+03 0.  0.
          5    1    3    3  502    0  0.26202813107E+02 -0.62005816058E+02 -0.23915859070E+03  0.24849593587E+03  0.47000000000E+01 0. -1.
         -5    1    3    3    0  502 -0.29973997797E+02  0.23075348782E+02 -0.22891842714E+02  0.44463903654E+02  0.47000000000E+01 0. -1.
        -11    1    1    2    0    0  0.10476265673E+01  0.57302463850E+02  0.18781775409E+02  0.60311068405E+02  0.00000000000E+00 0.  1.
         11    1    1    2    0    0  0.27235581224E+01 -0.18371996574E+02 -0.36294775461E+02  0.40770807605E+02  0.00000000000E+00 0. -1.
<mgrwt>
<rscale>  0 0.12229556E+03</rscale>
<asrwt>0</asrwt>
<pdfrwt beam="2">  1        2 0.51815782E-01 0.13097724E+03</pdfrwt>
<pdfrwt beam="1">  1       -2 0.88060215E-02 0.13097724E+03</pdfrwt>
<totfact> 0.74423698E+03</totfact>
</mgrwt>
</event>
<event>
 7    1  0.5928109E-006  0.1363920E+03  0.7546771E-02  0.1229028E+00
         -2   -1    0    0    0  501 -0.00000000000E+00  0.00000000000E+00  0.54777567854E+02  0.54777567854E+02  0.00000000000E+00 0.  1.
          2   -1    0    0  501    0  0.00000000000E+00 -0.00000000000E+00 -0.33436226069E+03  0.33436226069E+03  0.00000000000E+00 0. -1.
         23    2    1    2    0    0  0.50375851193E+01 -0.54335355406E+02 -0.23437506614E+03  0.27117235696E+03  0.12500026976E+03 0.  0.
          5    1    3    3  502    0  0.27287437841E+02  0.26508969908E+02 -0.25482830194E+02  0.46030363720E+02  0.47000000000E+01 0. -1.
         -5    1    3    3    0  502 -0.22249852722E+02 -0.80844325315E+02 -0.20889223595E+03  0.22514199324E+03  0.47000000000E+01 0. -1.
        -11    1    1    2    0    0 -0.20512558723E+02  0.53609145991E+02  0.12048623555E+02  0.58650446962E+02  0.00000000000E+00 0.  1.
         11    1    1    2    0    0  0.15474973604E+02  0.72620941498E+00 -0.57258250244E+02  0.59317024615E+02  0.00000000000E+00 0. -1.
<mgrwt>
<rscale>  0 0.12894634E+03</rscale>
<asrwt>0</asrwt>
<pdfrwt beam="2">  1        2 0.51440347E-01 0.13639199E+03</pdfrwt>
<pdfrwt beam="1">  1       -2 0.84273182E-02 0.13639199E+03</pdfrwt>
<totfact> 0.80512852E+03</totfact>
</mgrwt>
</event>
<event>
 7    1  0.5928109E-006  0.1332986E+03  0.7546771E-02  0.1234634E+00
          3   -1    0    0  501    0  0.00000000000E+00  0.00000000000E+00  0.12940937681E+03  0.12940937681E+03  0.00000000000E+00 0. -1.
         -3   -1    0    0    0  501 -0.00000000000E+00 -0.00000000000E+00 -0.11036920040E+03  0.11036920040E+03  0.00000000000E+00 0.  1.
         23    2    1    2    0    0  0.36159329312E+02  0.28923644621E+02  0.24934199287E+02  0.13561055899E+03  0.12499774039E+03 0.  0.
          5    1    3    3  502    0 -0.14129385253E+02 -0.42512051481E+02  0.16377824886E+01  0.45074231888E+02  0.47000000000E+01 0. -1.
         -5    1    3    3    0  502  0.50288714565E+02  0.71435696102E+02  0.23296416798E+02  0.90536327106E+02  0.47000000000E+01 0. -1.
        -11    1    1    2    0    0 -0.19875001222E+02 -0.10079714051E+02 -0.49312245047E+02  0.54113896741E+02  0.00000000000E+00 0.  1.
         11    1    1    2    0    0 -0.16284328091E+02 -0.18843930569E+02  0.43418222166E+02  0.50054121476E+02  0.00000000000E+00 0. -1.
<mgrwt>
<rscale>  0 0.12527911E+03</rscale>
<asrwt>0</asrwt>
<pdfrwt beam="1">  1        3 0.19909135E-01 0.13329857E+03</pdfrwt>
<pdfrwt beam="2">  1       -3 0.16979877E-01 0.13329857E+03</pdfrwt>
<totfact> 0.15512656E+03</totfact>
</mgrwt>
</event>
<event>
 7    1  0.5928109E-006  0.1437865E+03  0.7546771E-02  0.1231650E+00
          1   -1    0    0  501    0  0.00000000000E+00  0.00000000000E+00  0.96427817278E+02  0.96427817278E+02  0.00000000000E+00 0. -1.
         -1   -1    0    0    0  501 -0.00000000000E+00 -0.00000000000E+00 -0.14061954041E+03  0.14061954041E+03  0.00000000000E+00 0.  1.
         23    2    1    2    0    0  0.26482791799E+01 -0.71020072903E+02 -0.16679528691E+02  0.14475068705E+03  0.12499476224E+03 0.  0.
          5    1    3    3  502    0  0.25281311370E+02 -0.10064699771E+03 -0.23634213975E+02  0.10653463719E+03  0.47000000000E+01 0. -1.
         -5    1    3    3    0  502 -0.22633032190E+02  0.29626924803E+02  0.69546852849E+01  0.38216049859E+02  0.47000000000E+01 0. -1.
        -11    1    1    2    0    0  0.16368018869E+02  0.61240153619E+01 -0.16009319372E+02  0.23700504480E+02  0.00000000000E+00 0.  1.
         11    1    1    2    0    0 -0.19016298049E+02  0.64896057541E+02 -0.11502875065E+02  0.68596166151E+02  0.00000000000E+00 0. -1.
<mgrwt>
<rscale>  0 0.12721360E+03</rscale>
<asrwt>0</asrwt>
<pdfrwt beam="1">  1        1 0.14835049E-01 0.14378649E+03</pdfrwt>
<pdfrwt beam="2">  1       -1 0.21633775E-01 0.14378649E+03</pdfrwt>
<totfact> 0.63842127E+03</totfact>
</mgrwt>
</event>
<event>
 7    1  0.5928109E-006  0.1480548E+03  0.7546771E-02  0.1211939E+00
         -2   -1    0    0    0  501 -0.00000000000E+00  0.00000000000E+00  0.42686417309E+03  0.42686417309E+03  0.00000000000E+00 0. -1.
          2   -1    0    0  501    0  0.00000000000E+00 -0.00000000000E+00 -0.49922338246E+02  0.49922338246E+02  0.00000000000E+00 0.  1.
         23    2    1    2    0    0 -0.24204364822E+02  0.75583610430E+02  0.11368146570E+03  0.18666469086E+03  0.12498599012E+03 0.  0.
          5    1    3    3  502    0 -0.52172381186E+01  0.59539826920E+02 -0.96861369525E+01  0.60729908714E+02  0.47000000000E+01 0. -1.
         -5    1    3    3    0  502 -0.18987126703E+02  0.16043783510E+02  0.12336760265E+03  0.12593478214E+03  0.47000000000E+01 0. -1.
        -11    1    1    2    0    0  0.37434217300E+02  0.47832430210E+01  0.56982523929E+02  0.68346236707E+02  0.00000000000E+00 0. -1.
         11    1    1    2    0    0 -0.13229852478E+02 -0.80366853451E+02  0.20627784522E+03  0.22177558377E+03  0.00000000000E+00 0.  1.
<mgrwt>
<rscale>  0 0.14103804E+03</rscale>
<asrwt>0</asrwt>
<pdfrwt beam="2">  1        2 0.76803600E-02 0.14805482E+03</pdfrwt>
<pdfrwt beam="1">  1       -2 0.65671409E-01 0.14805482E+03</pdfrwt>
<totfact> 0.18996686E+03</totfact>
</mgrwt>
</event>
<event>
 7    1  0.5928109E-006  0.1299082E+03  0.7546771E-02  0.1242705E+00
         -2   -1    0    0    0  501 -0.00000000000E+00  0.00000000000E+00  0.28893671312E+02  0.28893671312E+02  0.00000000000E+00 0.  1.
          2   -1    0    0  501    0  0.00000000000E+00 -0.00000000000E+00 -0.43953440932E+03  0.43953440932E+03  0.00000000000E+00 0. -1.
         23    2    1    2    0    0 -0.33325643016E+02 -0.11869328621E+02 -0.22856952075E+03  0.26290716319E+03  0.12499868480E+03 0.  0.
          5    1    3    3  502    0  0.43565014389E+02 -0.40612090357E+01 -0.41672277584E+02  0.60605879390E+02  0.47000000000E+01 0.  1.
         -5    1    3    3    0  502 -0.76890657405E+02 -0.78081195851E+01 -0.18689724316E+03  0.20230128380E+03  0.47000000000E+01 0.  1.
        -11    1    1    2    0    0 -0.22000715712E+02  0.14409147121E+02 -0.11770108167E+03  0.12060348104E+03  0.00000000000E+00 0. -1.
         11    1    1    2    0    0  0.55326358728E+02 -0.25398185004E+01 -0.64370135588E+02  0.84917436394E+02  0.00000000000E+00 0.  1.
<mgrwt>
<rscale>  0 0.12023795E+03</rscale>
<asrwt>0</asrwt>
<pdfrwt beam="2">  1        2 0.67620676E-01 0.12990824E+03</pdfrwt>
<pdfrwt beam="1">  1       -2 0.44451803E-02 0.12990824E+03</pdfrwt>
<totfact> 0.15826981E+04</totfact>
</mgrwt>
</event>
<event>
 7    1  0.5928109E-006  0.1178455E+03  0.7546771E-02  0.1254497E+00
          1   -1    0    0  501    0  0.00000000000E+00  0.00000000000E+00  0.23208431304E+03  0.23208431304E+03  0.00000000000E+00 0. -1.
         -1   -1    0    0    0  501 -0.00000000000E+00 -0.00000000000E+00 -0.54442986335E+02  0.54442986335E+02  0.00000000000E+00 0.  1.
         23    2    1    2    0    0  0.39814964855E+02 -0.53411463504E+01  0.12845050744E+03  0.17431895396E+03  0.11078720855E+03 0.  0.
          5    1    3    3  502    0  0.61816252162E+02  0.34632495983E+02  0.88681789392E+02  0.11360989648E+03  0.47000000000E+01 0. -1.
         -5    1    3    3    0  502 -0.22001287307E+02 -0.39973642334E+02  0.39768718047E+02  0.60709057476E+02  0.47000000000E+01 0.  1.
        -11    1    1    2    0    0 -0.58638107290E+02  0.26973153598E+02  0.52690929381E+02  0.83320541768E+02  0.00000000000E+00 0.  1.
         11    1    1    2    0    0  0.18823142435E+02 -0.21632007248E+02 -0.35001101147E+01  0.28887803646E+02  0.00000000000E+00 0. -1.
<mgrwt>
<rscale>  0 0.11334572E+03</rscale>
<asrwt>0</asrwt>
<pdfrwt beam="1">  1        1 0.35705278E-01 0.11784551E+03</pdfrwt>
<pdfrwt beam="2">  1       -1 0.83758442E-02 0.11784551E+03</pdfrwt>
<totfact> 0.91031887E+03</totfact>
</mgrwt>
</event>
<event>
 7    1  0.5928109E-006  0.1455080E+03  0.7546771E-02  0.1216018E+00
         -3   -1    0    0    0  501 -0.00000000000E+00  0.00000000000E+00  0.36001970233E+03  0.36001970233E+03  0.00000000000E+00 0.  1.
          3   -1    0    0  501    0  0.00000000000E+00 -0.00000000000E+00 -0.48224058692E+02  0.48224058692E+02  0.00000000000E+00 0. -1.
         23    2    1    2    0    0  0.64176438523E+02 -0.37896734203E+02  0.16381377100E+03  0.21910623090E+03  0.12497124118E+03 0.  0.
          5    1    3    3  502    0  0.62635586097E+02 -0.43173378766E+02  0.18319589132E+03  0.19841870344E+03  0.47000000000E+01 0.  1.
         -5    1    3    3    0  502  0.15408524262E+01  0.52766445629E+01 -0.19382120317E+02  0.20687527451E+02  0.47000000000E+01 0.  1.
        -11    1    1    2    0    0 -0.81615418532E+02  0.34996547676E+02  0.14660869275E+03  0.17140578660E+03  0.00000000000E+00 0. -1.
         11    1    1    2    0    0  0.17438980009E+02  0.29001865276E+01  0.13731798931E+01  0.17731743531E+02  0.00000000000E+00 0.  1.
<mgrwt>
<rscale>  0 0.13801996E+03</rscale>
<asrwt>0</asrwt>
<pdfrwt beam="2">  1        3 0.74190862E-02 0.14550804E+03</pdfrwt>
<pdfrwt beam="1">  1       -3 0.55387645E-01 0.14550804E+03</pdfrwt>
<totfact> 0.91384721E+02</totfact>
</mgrwt>
</event>
<event>
 7    1  0.5928109E-006  0.1592239E+03  0.7546771E-02  0.1197626E+00
         -2   -1    0    0    0  501 -0.00000000000E+00  0.00000000000E+00  0.27157707494E+02  0.27157707494E+02  0.00000000000E+00 0. -1.
          2   -1    0    0  501    0  0.00000000000E+00 -0.00000000000E+00 -0.10415905723E+04  0.10415905723E+04  0.00000000000E+00 0.  1.
         23    2    1    2    0    0 -0.97525770465E+02  0.14577155280E+02 -0.80375597785E+03  0.81937532971E+03  0.12501395777E+03 0.  0.
          5    1    3    3  502    0  0.31253462801E+00 -0.38751685645E+02 -0.34751834882E+03  0.34970399424E+03  0.47000000000E+01 0.  1.
         -5    1    3    3    0  502 -0.97838305093E+02  0.53328840925E+02 -0.45623762903E+03  0.46967133547E+03  0.47000000000E+01 0.  1.
        -11    1    1    2    0    0  0.51805902099E+02 -0.16389050188E+02 -0.19269694663E+03  0.20021130262E+03  0.00000000000E+00 0. -1.
         11    1    1    2    0    0  0.45719868365E+02  0.18118949073E+01 -0.17979940316E+02  0.49161647453E+02  0.00000000000E+00 0.  1.
<mgrwt>
<rscale>  0 0.15234044E+03</rscale>
<asrwt>0</asrwt>
<pdfrwt beam="2">  1        2 0.16024474E+00 0.15922393E+03</pdfrwt>
<pdfrwt beam="1">  1       -2 0.41781078E-02 0.15922393E+03</pdfrwt>
<totfact> 0.62424136E+03</totfact>
</mgrwt>
</event>
<event>
 7    1  0.5928109E-006  0.1333124E+03  0.7546771E-02  0.1242498E+00
         -2   -1    0    0    0  501 -0.00000000000E+00  0.00000000000E+00  0.18754573223E+02  0.18754573223E+02  0.00000000000E+00 0. -1.
          2   -1    0    0  501    0  0.00000000000E+00 -0.00000000000E+00 -0.77680168117E+03  0.77680168117E+03  0.00000000000E+00 0.  1.
         23    2    1    2    0    0  0.13030293338E+01  0.46318538281E+02 -0.59748197564E+03  0.61217391690E+03  0.12500035376E+03 0.  0.
          5    1    3    3  502    0  0.59892515456E+02  0.38390939621E+01 -0.29994239580E+03  0.30592381870E+03  0.47000000000E+01 0. -1.
         -5    1    3    3    0  502 -0.58589486122E+02  0.42479444319E+02 -0.29753957984E+03  0.30625009820E+03  0.47000000000E+01 0. -1.
        -11    1    1    2    0    0  0.29597875102E+02  0.30910735162E+01 -0.44915856914E+02  0.53879709988E+02  0.00000000000E+00 0. -1.
         11    1    1    2    0    0 -0.30900904436E+02 -0.49409611797E+02 -0.11564927540E+03  0.12950262751E+03  0.00000000000E+00 0.  1.
<mgrwt>
<rscale>  0 0.12036416E+03</rscale>
<asrwt>0</asrwt>
<pdfrwt beam="2">  1        2 0.11950796E+00 0.13331239E+03</pdfrwt>
<pdfrwt beam="1">  1       -2 0.28853188E-02 0.13331239E+03</pdfrwt>
<totfact> 0.15721603E+04</totfact>
</mgrwt>
</event>
<event>
 7    1  0.5928109E-006  0.1257877E+03  0.7546771E-02  0.1247881E+00
          2   -1    0    0  501    0  0.00000000000E+00  0.00000000000E+00  0.13513846089E+03  0.13513846089E+03  0.00000000000E+00 0.  1.
         -2   -1    0    0    0  501 -0.00000000000E+00 -0.00000000000E+00 -0.10684702895E+03  0.10684702895E+03  0.00000000000E+00 0. -1.
         23    2    1    2    0    0  0.14876494620E+01 -0.27393170140E+02  0.63647711586E+02  0.14097364125E+03  0.12275967362E+03 0.  0.
          5    1    3    3  502    0 -0.25163198728E+02 -0.70084796218E+02  0.30977943226E+02  0.80788540015E+02  0.47000000000E+01 0.  1.
         -5    1    3    3    0  502  0.26650848190E+02  0.42691626078E+02  0.32669768360E+02  0.60185101239E+02  0.47000000000E+01 0. -1.
        -11    1    1    2    0    0 -0.20114740547E+02  0.58202120300E+01  0.25985088982E+02  0.33372181601E+02  0.00000000000E+00 0.  1.
         11    1    1    2    0    0  0.18627091085E+02  0.21572958110E+02 -0.61341368629E+02  0.67639666980E+02  0.00000000000E+00 0. -1.
<mgrwt>
<rscale>  0 0.11714577E+03</rscale>
<asrwt>0</asrwt>
<pdfrwt beam="1">  1        2 0.20790532E-01 0.12578766E+03</pdfrwt>
<pdfrwt beam="2">  1       -2 0.16438004E-01 0.12578766E+03</pdfrwt>
<totfact> 0.73389934E+03</totfact>
</mgrwt>
</event>
<event>
 7    1  0.5928109E-006  0.1703292E+03  0.7546771E-02  0.1184586E+00
         -1   -1    0    0    0  501 -0.00000000000E+00  0.00000000000E+00  0.20503585297E+02  0.20503585297E+02  0.00000000000E+00 0.  1.
          1   -1    0    0  501    0  0.00000000000E+00 -0.00000000000E+00 -0.13763387819E+04  0.13763387819E+04  0.00000000000E+00 0. -1.
         23    2    1    2    0    0  0.47322701299E+02 -0.10559103634E+03 -0.96400086249E+03  0.97893293510E+03  0.12499249391E+03 0.  0.
          5    1    3    3  502    0 -0.36831993221E+02 -0.25660396569E+02 -0.43464458037E+03  0.43698175353E+03  0.47000000000E+01 0. -1.
         -5    1    3    3    0  502  0.84154694520E+02 -0.79930639775E+02 -0.52935628212E+03  0.54195118157E+03  0.47000000000E+01 0. -1.
        -11    1    1    2    0    0 -0.41962608222E+02  0.64541726979E+02 -0.35248646751E+03  0.36079523941E+03  0.00000000000E+00 0. -1.
         11    1    1    2    0    0 -0.53600930774E+01  0.41049309365E+02 -0.39347866561E+02  0.57114192632E+02  0.00000000000E+00 0.  1.
<mgrwt>
<rscale>  0 0.16369616E+03</rscale>
<asrwt>0</asrwt>
<pdfrwt beam="2">  1        1 0.21174447E+00 0.17032918E+03</pdfrwt>
<pdfrwt beam="1">  1       -1 0.31543971E-02 0.17032918E+03</pdfrwt>
<totfact> 0.30151349E+03</totfact>
</mgrwt>
</event>
<event>
 7    1  0.5928109E-006  0.1597291E+03  0.7546771E-02  0.1196827E+00
          2   -1    0    0  501    0  0.00000000000E+00  0.00000000000E+00  0.42880801555E+03  0.42880801555E+03  0.00000000000E+00 0. -1.
         -2   -1    0    0    0  501 -0.00000000000E+00 -0.00000000000E+00 -0.50617290322E+02  0.50617290322E+02  0.00000000000E+00 0.  1.
         23    2    1    2    0    0 -0.23906082392E+02 -0.96529240316E+02  0.21824169178E+03  0.27044928260E+03  0.12499593361E+03 0.  0.
          5    1    3    3  502    0  0.16594787347E+02 -0.23721650593E+02  0.17311551670E+03  0.17558239034E+03  0.47000000000E+01 0.  1.
         -5    1    3    3    0  502 -0.40500869739E+02 -0.72807589723E+02  0.45126175073E+02  0.94866892263E+02  0.47000000000E+01 0.  1.
        -11    1    1    2    0    0  0.94910247607E+01  0.56381521609E+02  0.16778555209E+02  0.59585866150E+02  0.00000000000E+00 0.  1.
         11    1    1    2    0    0  0.14415057632E+02  0.40147718707E+02  0.14317047825E+03  0.14939015712E+03  0.00000000000E+00 0. -1.
<mgrwt>
<rscale>  0 0.15300642E+03</rscale>
<asrwt>0</asrwt>
<pdfrwt beam="1">  1        2 0.65970462E-01 0.15972908E+03</pdfrwt>
<pdfrwt beam="2">  1       -2 0.77872757E-02 0.15972908E+03</pdfrwt>
<totfact> 0.70434340E+03</totfact>
</mgrwt>
</event>
<event>
 7    1  0.5928109E-006  0.1339886E+03  0.7546771E-02  0.1234583E+00
         -3   -1    0    0    0  501 -0.00000000000E+00  0.00000000000E+00  0.26274895836E+02  0.26274895836E+02  0.00000000000E+00 0.  1.
          3   -1    0    0  501    0  0.00000000000E+00 -0.00000000000E+00 -0.54498466300E+03  0.54498466300E+03  0.00000000000E+00 0. -1.
         23    2    1    2    0    0 -0.72661058223E+00  0.48279383371E+02 -0.24964984072E+03  0.28333372133E+03  0.12498611063E+03 0.  0.
          5    1    3    3  502    0 -0.60893300606E+02  0.10953895375E+02 -0.13364683726E+03  0.14734839324E+03  0.47000000000E+01 0. -1.
         -5    1    3    3    0  502  0.60166690024E+02  0.37325487997E+02 -0.11600300346E+03  0.13598532809E+03  0.47000000000E+01 0. -1.
        -11    1    1    2    0    0 -0.30605204252E+02 -0.38443529568E+02 -0.23696901474E+03  0.24201011847E+03  0.00000000000E+00 0. -1.
         11    1    1    2    0    0  0.31331814835E+02 -0.98358538039E+01 -0.32090911705E+02  0.45915719040E+02  0.00000000000E+00 0.  1.
<mgrwt>
<rscale>  0 0.12531158E+03</rscale>
<asrwt>0</asrwt>
<pdfrwt beam="2">  1        3 0.83843785E-01 0.13398864E+03</pdfrwt>
<pdfrwt beam="1">  1       -3 0.40422921E-02 0.13398864E+03</pdfrwt>
<totfact> 0.99057855E+02</totfact>
</mgrwt>
</event>
<event>
 7    1  0.5928109E-006  0.1514053E+03  0.7546771E-02  0.1207536E+00
         -1   -1    0    0    0  501 -0.00000000000E+00  0.00000000000E+00  0.95176978768E+03  0.95176978768E+03  0.00000000000E+00 0.  1.
          1   -1    0    0  501    0  0.00000000000E+00 -0.00000000000E+00 -0.21542605827E+02  0.21542605827E+02  0.00000000000E+00 0. -1.
         23    2    1    2    0    0 -0.34591039533E+02 -0.78116064258E+02  0.38091872773E+03  0.40990566156E+03  0.12499965894E+03 0.  0.
          5    1    3    3  502    0 -0.25600788388E+02  0.23968264449E+02  0.18905583553E+03  0.19233844393E+03  0.47000000000E+01 0.  1.
         -5    1    3    3    0  502 -0.89902511451E+01 -0.10208432871E+03  0.19186289220E+03  0.21756721762E+03  0.47000000000E+01 0.  1.
        -11    1    1    2    0    0  0.44950280852E+02  0.93905483590E+02  0.49717488613E+03  0.50795830045E+03  0.00000000000E+00 0.  1.
         11    1    1    2    0    0 -0.10359241320E+02 -0.15789419332E+02  0.52133567993E+02  0.55448431495E+02  0.00000000000E+00 0. -1.
<mgrwt>
<rscale>  0 0.14439416E+03</rscale>
<asrwt>0</asrwt>
<pdfrwt beam="2">  1        1 0.33142478E-02 0.15140533E+03</pdfrwt>
<pdfrwt beam="1">  1       -1 0.14642609E+00 0.15140533E+03</pdfrwt>
<totfact> 0.11723490E+03</totfact>
</mgrwt>
</event>
<event>
 7    1  0.5928109E-006  0.1396287E+03  0.7546771E-02  0.1225912E+00
         -1   -1    0    0    0  501 -0.00000000000E+00  0.00000000000E+00  0.67185077325E+02  0.67185077325E+02  0.00000000000E+00 0.  1.
          1   -1    0    0  501    0  0.00000000000E+00 -0.00000000000E+00 -0.23612017303E+03  0.23612017303E+03  0.00000000000E+00 0. -1.
         23    2    1    2    0    0 -0.60716992159E+02 -0.13771027465E+02 -0.12130212696E+03  0.18496047819E+03  0.12497991099E+03 0.  0.
          5    1    3    3  502    0 -0.23466461689E+00 -0.33133261850E+02  0.13333963277E+02  0.36024334622E+02  0.47000000000E+01 0.  1.
         -5    1    3    3    0  502 -0.60482327542E+02  0.19362234384E+02 -0.13463609024E+03  0.14893614357E+03  0.47000000000E+01 0.  1.
        -11    1    1    2    0    0  0.71556490517E+02  0.26441034518E+02 -0.60434637791E+02  0.97323199118E+02  0.00000000000E+00 0. -1.
         11    1    1    2    0    0 -0.10839498358E+02 -0.12670007053E+02  0.12801669044E+02  0.21021573055E+02  0.00000000000E+00 0.  1.
<mgrwt>
<rscale>  0 0.13104599E+03</rscale>
<asrwt>0</asrwt>
<pdfrwt beam="2">  1        1 0.36326180E-01 0.13962870E+03</pdfrwt>
<pdfrwt beam="1">  1       -1 0.10336166E-01 0.13962870E+03</pdfrwt>
<totfact> 0.65555041E+03</totfact>
</mgrwt>
</event>
<event>
 7    1  0.5928109E-006  0.2272705E+03  0.7546771E-02  0.1131681E+00
         -2   -1    0    0    0  501 -0.00000000000E+00  0.00000000000E+00  0.26461203528E+02  0.26461203528E+02  0.00000000000E+00 0.  1.
          2   -1    0    0  501    0  0.00000000000E+00 -0.00000000000E+00 -0.20872333453E+04  0.20872333453E+04  0.00000000000E+00 0. -1.
         23    2    1    2    0    0 -0.55585965849E+02 -0.18149339842E+03 -0.14484731605E+04  0.14661945148E+04  0.12498882105E+03 0.  0.
          5    1    3    3  502    0 -0.78955000166E+02 -0.16864644106E+03 -0.13807550799E+04  0.13932631463E+04  0.47000000000E+01 0. -1.
         -5    1    3    3    0  502  0.23369034316E+02 -0.12846957365E+02 -0.67718080547E+02  0.72931368501E+02  0.47000000000E+01 0. -1.
        -11    1    1    2    0    0  0.31990981022E+02  0.58595597220E+01 -0.75528785754E+02  0.82233538075E+02  0.00000000000E+00 0.  1.
         11    1    1    2    0    0  0.23594984828E+02  0.17563383870E+03 -0.53677019555E+03  0.56526649594E+03  0.00000000000E+00 0. -1.
<mgrwt>
<rscale>  0 0.22297920E+03</rscale>
<asrwt>0</asrwt>
<pdfrwt beam="2">  1        2 0.32111301E+00 0.22727045E+03</pdfrwt>
<pdfrwt beam="1">  1       -2 0.40709520E-02 0.22727045E+03</pdfrwt>
<totfact> 0.17941484E+03</totfact>
</mgrwt>
</event>
<event>
 7    1  0.5928109E-006  0.1273394E+03  0.7546771E-02  0.1245717E+00
          1   -1    0    0  501    0  0.00000000000E+00  0.00000000000E+00  0.44260697918E+03  0.44260697918E+03  0.00000000000E+00 0. -1.
         -1   -1    0    0    0  501 -0.00000000000E+00 -0.00000000000E+00 -0.37760890717E+02  0.37760890717E+02  0.00000000000E+00 0.  1.
         23    2    1    2    0    0  0.24252581351E+02 -0.11692224921E+01  0.34529876282E+03  0.36803066432E+03  0.12500311792E+03 0.  0.
          5    1    3    3  502    0 -0.29370318396E+02  0.46628623431E+02  0.15487820520E+03  0.16445726671E+03  0.47000000000E+01 0. -1.
         -5    1    3    3    0  502  0.53622899747E+02 -0.47797845923E+02  0.19042055761E+03  0.20357339761E+03  0.47000000000E+01 0. -1.
        -11    1    1    2    0    0 -0.18111501783E+02 -0.32578816311E+02 -0.65719106013E+01  0.37849647000E+02  0.00000000000E+00 0.  1.
         11    1    1    2    0    0 -0.61410795675E+01  0.33748038803E+02  0.66119236246E+02  0.74487558579E+02  0.00000000000E+00 0. -1.
<mgrwt>
<rscale>  0 0.11842561E+03</rscale>
<asrwt>0</asrwt>
<pdfrwt beam="1">  1        1 0.68093378E-01 0.12733945E+03</pdfrwt>
<pdfrwt beam="2">  1       -1 0.58093681E-02 0.12733945E+03</pdfrwt>
<totfact> 0.70952729E+03</totfact>
</mgrwt>
</event>
<event>
 7    1  0.5928109E-006  0.3561339E+03  0.7546771E-02  0.1061171E+00
         -2   -1    0    0    0  501 -0.00000000000E+00  0.00000000000E+00  0.23494521711E+03  0.23494521711E+03  0.00000000000E+00 0.  1.
          2   -1    0    0  501    0  0.00000000000E+00 -0.00000000000E+00 -0.68745125349E+03  0.68745125349E+03  0.00000000000E+00 0. -1.
         23    2    1    2    0    0 -0.26417905006E+03  0.20350886137E+03 -0.45336737234E+03  0.57651829863E+03  0.12499978883E+03 0.  0.
          5    1    3    3  502    0 -0.89064973168E+02  0.14035301066E+03 -0.25509876995E+03  0.30451438304E+03  0.47000000000E+01 0. -1.
         -5    1    3    3    0  502 -0.17511407689E+03  0.63155850712E+02 -0.19826860239E+03  0.27200391559E+03  0.47000000000E+01 0. -1.
        -11    1    1    2    0    0  0.15356986258E+03 -0.76971154196E+02 -0.31718397532E+02  0.17468347951E+03  0.00000000000E+00 0. -1.
         11    1    1    2    0    0  0.11060918748E+03 -0.12653770718E+03  0.32579733485E+02  0.17119469246E+03  0.00000000000E+00 0.  1.
<mgrwt>
<rscale>  0 0.35354155E+03</rscale>
<asrwt>0</asrwt>
<pdfrwt beam="2">  1        2 0.10576173E+00 0.35613393E+03</pdfrwt>
<pdfrwt beam="1">  1       -2 0.36145418E-01 0.35613393E+03</pdfrwt>
<totfact> 0.31035644E+02</totfact>
</mgrwt>
</event>
<event>
 7    1  0.5928109E-006  0.1470264E+03  0.7546771E-02  0.1213958E+00
         -1   -1    0    0    0  501 -0.00000000000E+00  0.00000000000E+00  0.62407497004E+02  0.62407497004E+02  0.00000000000E+00 0.  1.
          1   -1    0    0  501    0  0.00000000000E+00 -0.00000000000E+00 -0.37230928626E+03  0.37230928626E+03  0.00000000000E+00 0. -1.
         23    2    1    2    0    0 -0.76300006734E+02  0.13184594138E+02 -0.27264967133E+03  0.30976540250E+03  0.12498494613E+03 0.  0.
          5    1    3    3  502    0  0.11068884845E+02  0.70156713618E+01 -0.18583056852E+03  0.18635136182E+03  0.47000000000E+01 0. -1.
         -5    1    3    3    0  502 -0.87368891579E+02  0.61689227761E+01 -0.86819102815E+02  0.12341404068E+03  0.47000000000E+01 0. -1.
        -11    1    1    2    0    0  0.16162100283E+02 -0.45831432630E+02 -0.36945565120E+01  0.48737905682E+02  0.00000000000E+00 0.  1.
         11    1    1    2    0    0  0.60137906451E+02  0.32646838492E+02 -0.33557561409E+02  0.76213475079E+02  0.00000000000E+00 0. -1.
<mgrwt>
<rscale>  0 0.13953351E+03</rscale>
<asrwt>0</asrwt>
<pdfrwt beam="2">  1        1 0.57278350E-01 0.14702640E+03</pdfrwt>
<pdfrwt beam="1">  1       -1 0.96011536E-02 0.14702640E+03</pdfrwt>
<totfact> 0.41797133E+03</totfact>
</mgrwt>
</event>
<event>
 7    1  0.5928109E-006  0.1253423E+03  0.7546771E-02  0.1241482E+00
          2   -1    0    0  501    0  0.00000000000E+00  0.00000000000E+00  0.62121507580E+02  0.62121507580E+02  0.00000000000E+00 0. -1.
         -2   -1    0    0    0  501 -0.00000000000E+00 -0.00000000000E+00 -0.28664042018E+03  0.28664042018E+03  0.00000000000E+00 0.  1.
         23    2    1    2    0    0 -0.34692796912E+02 -0.44489779554E+02 -0.34837910242E+02  0.13009368002E+03  0.11192745395E+03 0.  0.
          5    1    3    3  502    0 -0.24370679582E+02  0.35406032928E+02 -0.29986854183E+01  0.43342811460E+02  0.47000000000E+01 0. -1.
         -5    1    3    3    0  502 -0.10322117330E+02 -0.79895812483E+02 -0.31839224824E+02  0.86750868559E+02  0.47000000000E+01 0.  1.
        -11    1    1    2    0    0 -0.28672461562E+00 -0.27798894931E+02 -0.38590843834E+02  0.47561686242E+02  0.00000000000E+00 0.  1.
         11    1    1    2    0    0  0.34979521528E+02  0.72288674485E+02 -0.15109015853E+03  0.17110656150E+03  0.00000000000E+00 0. -1.
<mgrwt>
<rscale>  0 0.12098402E+03</rscale>
<asrwt>0</asrwt>
<pdfrwt beam="1">  1        2 0.95571553E-02 0.12534227E+03</pdfrwt>
<pdfrwt beam="2">  1       -2 0.44098525E-01 0.12534227E+03</pdfrwt>
<totfact> 0.31882935E+03</totfact>
</mgrwt>
</event>
<event>
 7    1  0.5928109E-006  0.1276599E+03  0.7546771E-02  0.1244943E+00
          2   -1    0    0  501    0  0.00000000000E+00  0.00000000000E+00  0.37870266146E+03  0.37870266146E+03  0.00000000000E+00 0. -1.
         -2   -1    0    0    0  501 -0.00000000000E+00 -0.00000000000E+00 -0.37144492728E+02  0.37144492728E+02  0.00000000000E+00 0.  1.
         23    2    1    2    0    0 -0.10660137117E+02  0.23642770976E+02  0.26083645122E+03  0.29040095712E+03  0.12499776984E+03 0.  0.
          5    1    3    3  502    0 -0.51807606762E+02  0.12360733629E+02  0.43678618383E+02  0.69041491569E+02  0.47000000000E+01 0. -1.
         -5    1    3    3    0  502  0.41147469645E+02  0.11282037347E+02  0.21715783284E+03  0.22135946555E+03  0.47000000000E+01 0. -1.
        -11    1    1    2    0    0 -0.97166635956E+00  0.16867341980E+02  0.81559312648E+02  0.83290892904E+02  0.00000000000E+00 0. -1.
         11    1    1    2    0    0  0.11631803476E+02 -0.40510112956E+02 -0.83759513820E+00  0.42155304167E+02  0.00000000000E+00 0.  1.
<mgrwt>
<rscale>  0 0.11888766E+03</rscale>
<asrwt>0</asrwt>
<pdfrwt beam="1">  1        2 0.58261945E-01 0.12765995E+03</pdfrwt>
<pdfrwt beam="2">  1       -2 0.57145376E-02 0.12765995E+03</pdfrwt>
<totfact> 0.12713330E+04</totfact>
</mgrwt>
</event>
<event>
 7    1  0.5928109E-006  0.1964048E+03  0.7546771E-02  0.1157609E+00
          1   -1    0    0  501    0  0.00000000000E+00  0.00000000000E+00  0.21543437518E+03  0.21543437518E+03  0.00000000000E+00 0. -1.
         -1   -1    0    0    0  501 -0.00000000000E+00 -0.00000000000E+00 -0.20267579815E+03  0.20267579815E+03  0.00000000000E+00 0.  1.
         23    2    1    2    0    0 -0.73157075657E+02  0.13266368260E+03  0.10193255063E+03  0.22128057087E+03  0.12499294286E+03 0.  0.
          5    1    3    3  502    0 -0.80109833018E+02  0.77700009171E+02  0.11890983624E+03  0.16314568926E+03  0.47000000000E+01 0. -1.
         -5    1    3    3    0  502  0.69527573618E+01  0.54963673434E+02 -0.16977285608E+02  0.58134881602E+02  0.47000000000E+01 0. -1.
        -11    1    1    2    0    0  0.93243308893E+02 -0.11892157891E+03 -0.75903171076E+02  0.16910927817E+03  0.00000000000E+00 0.  1.
         11    1    1    2    0    0 -0.20086233236E+02 -0.13742103694E+02 -0.13270802526E+02  0.27720324299E+02  0.00000000000E+00 0. -1.
<mgrwt>
<rscale>  0 0.19094799E+03</rscale>
<asrwt>0</asrwt>
<pdfrwt beam="1">  1        1 0.33143750E-01 0.19640480E+03</pdfrwt>
<pdfrwt beam="2">  1       -1 0.31180892E-01 0.19640480E+03</pdfrwt>
<totfact> 0.12683933E+03</totfact>
</mgrwt>
</event>
<event>
 7    1  0.5928109E-006  0.1250742E+03  0.7546771E-02  0.1257062E+00
          3   -1    0    0  501    0  0.00000000000E+00  0.00000000000E+00  0.63078707272E+03  0.63078707272E+03  0.00000000000E+00 0. -1.
         -3   -1    0    0    0  501 -0.00000000000E+00 -0.00000000000E+00 -0.16697378984E+02  0.16697378984E+02  0.00000000000E+00 0.  1.
         23    2    1    2    0    0  0.23103661461E+00  0.43817050524E+01  0.37537511503E+03  0.39566404898E+03  0.12499723979E+03 0.  0.
          5    1    3    3  502    0 -0.14254217615E+02 -0.22918573233E+01 -0.41776192305E+01  0.15747311905E+02  0.47000000000E+01 0. -1.
         -5    1    3    3    0  502  0.14485254230E+02  0.66735623757E+01  0.37955273426E+03  0.37991673707E+03  0.47000000000E+01 0. -1.
        -11    1    1    2    0    0 -0.28127086262E+02  0.26314813081E+02  0.12348244668E+03  0.12935036531E+03  0.00000000000E+00 0.  1.
         11    1    1    2    0    0  0.27896049647E+02 -0.30696518134E+02  0.11523213203E+03  0.12247003741E+03  0.00000000000E+00 0. -1.
<mgrwt>
<rscale>  0 0.11191612E+03</rscale>
<asrwt>0</asrwt>
<pdfrwt beam="1">  1        3 0.97044146E-01 0.12507423E+03</pdfrwt>
<pdfrwt beam="2">  1       -3 0.25688280E-02 0.12507423E+03</pdfrwt>
<totfact> 0.14292969E+03</totfact>
</mgrwt>
</event>
<event>
 7    1  0.5928109E-006  0.1610593E+03  0.7546771E-02  0.1193923E+00
         -2   -1    0    0    0  501 -0.00000000000E+00  0.00000000000E+00  0.12592008338E+03  0.12592008338E+03  0.00000000000E+00 0.  1.
          2   -1    0    0  501    0  0.00000000000E+00 -0.00000000000E+00 -0.22862557268E+03  0.22862557268E+03  0.00000000000E+00 0. -1.
         23    2    1    2    0    0 -0.23144202170E+02 -0.98897997987E+02 -0.13604973484E+03  0.21083079525E+03  0.12499450299E+03 0.  0.
          5    1    3    3  502    0 -0.69579079089E+02 -0.79661011757E+02 -0.11448642424E+03  0.15593702696E+03  0.47000000000E+01 0. -1.
         -5    1    3    3    0  502  0.46434876919E+02 -0.19236986230E+02 -0.21563310598E+02  0.54893768295E+02  0.47000000000E+01 0. -1.
        -11    1    1    2    0    0 -0.34930412449E+02  0.61471853596E+02  0.16681829967E+02  0.72644380026E+02  0.00000000000E+00 0.  1.
         11    1    1    2    0    0  0.58074614619E+02  0.37426144392E+02  0.16662415571E+02  0.71070480791E+02  0.00000000000E+00 0. -1.
<mgrwt>
<rscale>  0 0.15545718E+03</rscale>
<asrwt>0</asrwt>
<pdfrwt beam="2">  1        2 0.35173164E-01 0.16105929E+03</pdfrwt>
<pdfrwt beam="1">  1       -2 0.19372321E-01 0.16105929E+03</pdfrwt>
<totfact> 0.31811765E+03</totfact>
</mgrwt>
</event>
<event>
 7    1  0.5928109E-006  0.1592964E+03  0.7546771E-02  0.1197259E+00
          1   -1    0    0  501    0  0.00000000000E+00  0.00000000000E+00  0.32876543108E+03  0.32876543108E+03  0.00000000000E+00 0. -1.
         -1   -1    0    0    0  501 -0.00000000000E+00 -0.00000000000E+00 -0.67280120703E+02  0.67280120703E+02  0.00000000000E+00 0.  1.
         23    2    1    2    0    0 -0.94602526010E+02  0.28264443597E+02  0.10997156097E+03  0.19356930791E+03  0.12500726396E+03 0.  0.
          5    1    3    3  502    0 -0.48883149958E+02 -0.48995870394E+02  0.46076743460E+02  0.83278532368E+02  0.47000000000E+01 0.  1.
         -5    1    3    3    0  502 -0.45719376052E+02  0.77260313990E+02  0.63894817512E+02  0.11029077554E+03  0.47000000000E+01 0.  1.
        -11    1    1    2    0    0  0.83505707253E+01 -0.40068705929E+02  0.22124810284E+02  0.46526771394E+02  0.00000000000E+00 0.  1.
         11    1    1    2    0    0  0.86251955285E+02  0.11804262332E+02  0.12938893912E+03  0.15594947248E+03  0.00000000000E+00 0. -1.
<mgrwt>
<rscale>  0 0.15264571E+03</rscale>
<asrwt>0</asrwt>
<pdfrwt beam="1">  1        1 0.50579296E-01 0.15929637E+03</pdfrwt>
<pdfrwt beam="2">  1       -1 0.10350788E-01 0.15929637E+03</pdfrwt>
<totfact> 0.43709633E+03</totfact>
</mgrwt>
</event>
<event>
 7    1  0.5928109E-006  0.1978507E+03  0.7546771E-02  0.1154900E+00
         -2   -1    0    0    0  501 -0.00000000000E+00  0.00000000000E+00  0.13235994253E+03  0.13235994253E+03  0.00000000000E+00 0.  1.
          2   -1    0    0  501    0  0.00000000000E+00 -0.00000000000E+00 -0.62554161894E+03  0.62554161894E+03  0.00000000000E+00 0. -1.
         23    2    1    2    0    0  0.14699349898E+03 -0.43691994448E+02 -0.53488503950E+03  0.57030423786E+03  0.12501535556E+03 0.  0.
          5    1    3    3  502    0  0.56296410984E+02 -0.45049605886E+02 -0.86012397062E+02  0.11233421264E+03  0.47000000000E+01 0.  1.
         -5    1    3    3    0  502  0.90697087996E+02  0.13576114383E+01 -0.44887264244E+03  0.45797002523E+03  0.47000000000E+01 0.  1.
        -11    1    1    2    0    0 -0.37682103258E+02  0.53993506038E+02  0.41446369351E+02  0.77801292615E+02  0.00000000000E+00 0.  1.
         11    1    1    2    0    0 -0.10931139572E+03 -0.10301511590E+02  0.25699373369E+00  0.10979603099E+03  0.00000000000E+00 0. -1.
<mgrwt>
<rscale>  0 0.19400307E+03</rscale>
<asrwt>0</asrwt>
<pdfrwt beam="2">  1        2 0.96237172E-01 0.19785075E+03</pdfrwt>
<pdfrwt beam="1">  1       -2 0.20363068E-01 0.19785075E+03</pdfrwt>
<totfact> 0.98007714E+02</totfact>
</mgrwt>
</event>
<event>
 7    1  0.5928109E-006  0.1282960E+03  0.7546771E-02  0.1245365E+00
          2   -1    0    0  501    0  0.00000000000E+00  0.00000000000E+00  0.16295192799E+03  0.16295192799E+03  0.00000000000E+00 0. -1.
         -2   -1    0    0    0  501 -0.00000000000E+00 -0.00000000000E+00 -0.20739715285E+03  0.20739715285E+03  0.00000000000E+00 0.  1.
         23    2    1    2    0    0  0.14531688211E+02  0.24911167246E+02  0.12343871224E+03  0.17803647566E+03  0.12501253845E+03 0.  0.
          5    1    3    3  502    0  0.60830689137E+02  0.42259124773E+02  0.95843047944E+02  0.12121957848E+03  0.47000000000E+01 0.  1.
         -5    1    3    3    0  502 -0.46299000926E+02 -0.17347957528E+02  0.27595664300E+02  0.56816897181E+02  0.47000000000E+01 0.  1.
        -11    1    1    2    0    0 -0.35052846753E+02 -0.19026585384E+02 -0.16617707531E+03  0.17089626495E+03  0.00000000000E+00 0.  1.
         11    1    1    2    0    0  0.20521158542E+02 -0.58845818618E+01 -0.17068617928E+01  0.21416340228E+02  0.00000000000E+00 0. -1.
<mgrwt>
<rscale>  0 0.11863554E+03</rscale>
<asrwt>0</asrwt>
<pdfrwt beam="1">  1        2 0.25069528E-01 0.12829603E+03</pdfrwt>
<pdfrwt beam="2">  1       -2 0.31907254E-01 0.12829603E+03</pdfrwt>
<totfact> 0.19010723E+03</totfact>
</mgrwt>
</event>
<event>
 7    1  0.5928109E-006  0.1306479E+03  0.7546771E-02  0.1231702E+00
          2   -1    0    0  501    0  0.00000000000E+00  0.00000000000E+00  0.29995727814E+03  0.29995727814E+03  0.00000000000E+00 0. -1.
         -2   -1    0    0    0  501 -0.00000000000E+00 -0.00000000000E+00 -0.59548341074E+02  0.59548341074E+02  0.00000000000E+00 0.  1.
         23    2    1    2    0    0  0.28194406320E+02  0.25475218662E+02  0.19280280000E+03  0.23289866593E+03  0.12499983035E+03 0.  0.
          5    1    3    3  502    0 -0.20433369562E+02  0.39045697772E+02  0.17279787100E+03  0.17839081626E+03  0.47000000000E+01 0. -1.
         -5    1    3    3    0  502  0.48627775882E+02 -0.13570479110E+02  0.20004929007E+02  0.54507849664E+02  0.47000000000E+01 0. -1.
        -11    1    1    2    0    0 -0.59152083568E+02 -0.49232737012E+02  0.40416523377E+02  0.86927134693E+02  0.00000000000E+00 0. -1.
         11    1    1    2    0    0  0.30957677249E+02  0.23757518350E+02  0.71896136883E+01  0.39679818595E+02  0.00000000000E+00 0.  1.
<mgrwt>
<rscale>  0 0.12717912E+03</rscale>
<asrwt>0</asrwt>
<pdfrwt beam="1">  1        2 0.46147273E-01 0.13064788E+03</pdfrwt>
<pdfrwt beam="2">  1       -2 0.91612834E-02 0.13064788E+03</pdfrwt>
<totfact> 0.79097998E+03</totfact>
</mgrwt>
</event>
<event>
 7    1  0.5928109E-006  0.1460712E+03  0.7546771E-02  0.1215319E+00
          2   -1    0    0  501    0  0.00000000000E+00  0.00000000000E+00  0.19947223294E+03  0.19947223294E+03  0.00000000000E+00 0. -1.
         -2   -1    0    0    0  501 -0.00000000000E+00 -0.00000000000E+00 -0.88904893374E+02  0.88904893374E+02  0.00000000000E+00 0.  1.
         23    2    1    2    0    0 -0.69109949449E+02  0.30582281083E+02  0.79002053523E+02  0.16606664438E+03  0.12500137954E+03 0.  0.
          5    1    3    3  502    0 -0.44387499342E+02 -0.23352150766E+00  0.10798289856E+03  0.11684477315E+03  0.47000000000E+01 0. -1.
         -5    1    3    3    0  502 -0.24722450107E+02  0.30815802591E+02 -0.28980845038E+02  0.49221871233E+02  0.47000000000E+01 0. -1.
        -11    1    1    2    0    0  0.39759160552E+02 -0.41132298470E+02 -0.21206249708E+02  0.61011161699E+02  0.00000000000E+00 0.  1.
         11    1    1    2    0    0  0.29350788897E+02  0.10550017386E+02  0.52771535753E+02  0.61299320236E+02  0.00000000000E+00 0. -1.
<mgrwt>
<rscale>  0 0.13853125E+03</rscale>
<asrwt>0</asrwt>
<pdfrwt beam="1">  1        2 0.30688036E-01 0.14607124E+03</pdfrwt>
<pdfrwt beam="2">  1       -2 0.13677676E-01 0.14607124E+03</pdfrwt>
<totfact> 0.65201862E+03</totfact>
</mgrwt>
</event>
<event>
 7    1  0.5928109E-006  0.1447104E+03  0.7546771E-02  0.1216372E+00
          1   -1    0    0  501    0  0.00000000000E+00  0.00000000000E+00  0.31389132052E+03  0.31389132052E+03  0.00000000000E+00 0. -1.
         -1   -1    0    0    0  501 -0.00000000000E+00 -0.00000000000E+00 -0.63709580556E+02  0.63709580556E+02  0.00000000000E+00 0.  1.
         23    2    1    2    0    0  0.27075061145E+02 -0.67710330253E+02  0.20394071570E+03  0.25006584053E+03  0.12499344511E+03 0.  0.
          5    1    3    3  502    0 -0.41553092525E+02  0.26529526635E+00  0.31489843280E+02  0.52349117564E+02  0.47000000000E+01 0.  1.
         -5    1    3    3    0  502  0.68628153670E+02 -0.67975625520E+02  0.17245087242E+03  0.19771672297E+03  0.47000000000E+01 0.  1.
        -11    1    1    2    0    0 -0.22516962378E+02 -0.20415394354E+02  0.85062277859E+01  0.31561968134E+02  0.00000000000E+00 0. -1.
         11    1    1    2    0    0 -0.45580987674E+01  0.88125724608E+02  0.37734796474E+02  0.95973092411E+02  0.00000000000E+00 0.  1.
<mgrwt>
<rscale>  0 0.13776248E+03</rscale>
<asrwt>0</asrwt>
<pdfrwt beam="1">  1        1 0.48290972E-01 0.14471043E+03</pdfrwt>
<pdfrwt beam="2">  1       -1 0.98014741E-02 0.14471043E+03</pdfrwt>
<totfact> 0.50079682E+03</totfact>
</mgrwt>
</event>
<event>
 7    1  0.5928109E-006  0.1269367E+03  0.7546771E-02  0.1246866E+00
         -2   -1    0    0    0  501 -0.00000000000E+00  0.00000000000E+00  0.19813252682E+03  0.19813252682E+03  0.00000000000E+00 0.  1.
          2   -1    0    0  501    0  0.00000000000E+00 -0.00000000000E+00 -0.63053460107E+02  0.63053460107E+02  0.00000000000E+00 0. -1.
         23    2    1    2    0    0 -0.21855281823E+02 -0.26579655200E+01  0.57601825819E+02  0.13939471826E+03  0.12501279541E+03 0.  0.
          5    1    3    3  502    0 -0.67982291523E+01 -0.63500331967E+02  0.30964765938E+02  0.71129563538E+02  0.47000000000E+01 0. -1.
         -5    1    3    3    0  502 -0.15057052671E+02  0.60842366447E+02  0.26637059881E+02  0.68265154721E+02  0.47000000000E+01 0. -1.
        -11    1    1    2    0    0  0.34597726234E+02  0.37291146430E+02  0.65624917992E+02  0.83031693491E+02  0.00000000000E+00 0.  1.
         11    1    1    2    0    0 -0.12742444411E+02 -0.34633180910E+02  0.11852322897E+02  0.38759575173E+02  0.00000000000E+00 0. -1.
<mgrwt>
<rscale>  0 0.11774373E+03</rscale>
<asrwt>0</asrwt>
<pdfrwt beam="2">  1        2 0.97005324E-02 0.12693667E+03</pdfrwt>
<pdfrwt beam="1">  1       -2 0.30481927E-01 0.12693667E+03</pdfrwt>
<totfact> 0.62282157E+03</totfact>
</mgrwt>
</event>
<event>
 7    1  0.5928109E-006  0.1473245E+03  0.7546771E-02  0.1212946E+00
         -2   -1    0    0    0  501 -0.00000000000E+00  0.00000000000E+00  0.15633681052E+03  0.15633681052E+03  0.00000000000E+00 0.  1.
          2   -1    0    0  501    0  0.00000000000E+00 -0.00000000000E+00 -0.12693809753E+03  0.12693809753E+03  0.00000000000E+00 0. -1.
         23    2    1    2    0    0 -0.54627288734E+02 -0.55634503299E+02 -0.26812909674E+02  0.14974459594E+03  0.12500069302E+03 0.  0.
          5    1    3    3  502    0  0.35058191268E+02  0.89098694864E+01 -0.28943777568E+01  0.36591392046E+02  0.47000000000E+01 0.  1.
         -5    1    3    3    0  502 -0.89685480002E+02 -0.64544372786E+02 -0.23918531917E+02  0.11315320389E+03  0.47000000000E+01 0.  1.
        -11    1    1    2    0    0  0.29408810458E+02 -0.12121787049E+02  0.52192106981E+02  0.61121451921E+02  0.00000000000E+00 0.  1.
         11    1    1    2    0    0  0.25218478276E+02  0.67756290348E+02  0.40195156820E+01  0.72408860194E+02  0.00000000000E+00 0. -1.
<mgrwt>
<rscale>  0 0.14028532E+03</rscale>
<asrwt>0</asrwt>
<pdfrwt beam="2">  1        2 0.19528938E-01 0.14732451E+03</pdfrwt>
<pdfrwt beam="1">  1       -2 0.24051817E-01 0.14732451E+03</pdfrwt>
<totfact> 0.41808974E+03</totfact>
</mgrwt>
</event>
<event>
 7    1  0.5928109E-006  0.1579606E+03  0.7546771E-02  0.1199662E+00
          2   -1    0    0  501    0  0.00000000000E+00  0.00000000000E+00  0.11828685619E+04  0.11828685619E+04  0.00000000000E+00 0.  1.
         -2   -1    0    0    0  501 -0.00000000000E+00 -0.00000000000E+00 -0.20385358787E+02  0.20385358787E+02  0.00000000000E+00 0. -1.
         23    2    1    2    0    0  0.39811681187E+01  0.96496290119E+02  0.84958404486E+03  0.86414386011E+03  0.12499671185E+03 0.  0.
          5    1    3    3  502    0  0.27829905128E+02  0.20486910729E+02  0.62195049541E+03  0.62292754464E+03  0.47000000000E+01 0. -1.
         -5    1    3    3    0  502 -0.23848737009E+02  0.76009379390E+02  0.22763354945E+03  0.24121631547E+03  0.47000000000E+01 0. -1.
        -11    1    1    2    0    0  0.31189338432E+02 -0.70046941061E+02  0.25565483474E+03  0.26690586976E+03  0.00000000000E+00 0.  1.
         11    1    1    2    0    0 -0.35170506551E+02 -0.26449349058E+02  0.57244323458E+02  0.72204190770E+02  0.00000000000E+00 0. -1.
<mgrwt>
<rscale>  0 0.15066196E+03</rscale>
<asrwt>0</asrwt>
<pdfrwt beam="1">  1        2 0.18197973E+00 0.15796063E+03</pdfrwt>
<pdfrwt beam="2">  1       -2 0.31362100E-02 0.15796063E+03</pdfrwt>
<totfact> 0.79285488E+03</totfact>
</mgrwt>
</event>
<event>
 6    1  0.5928109E-006  0.2564345E+03  0.7546771E-02  0.1117146E+00
          1   -1    0    0  501    0  0.00000000000E+00  0.00000000000E+00  0.13141880498E+04  0.13141880498E+04  0.00000000000E+00 0. -1.
         -1   -1    0    0    0  501 -0.00000000000E+00 -0.00000000000E+00 -0.75009824031E+02  0.75009824031E+02  0.00000000000E+00 0.  1.
          5    1    1    2  502    0 -0.16117569294E+03 -0.25040940773E+02  0.66006287706E+03  0.67993363234E+03  0.47000000000E+01 0. -1.
         -5    1    1    2    0  502  0.10724405212E+02 -0.91340980978E+02  0.45686105415E+03  0.46604967597E+03  0.47000000000E+01 0.  1.
        -11    1    1    2    0    0  0.11589944964E+03  0.34042946890E+02  0.75036869989E+02  0.14220455871E+03  0.00000000000E+00 0.  1.
         11    1    1    2    0    0  0.34551838084E+02  0.82338974862E+02  0.47217424590E+02  0.10101000684E+03  0.00000000000E+00 0. -1.
<mgrwt>
<rscale>  0 0.24401641E+03</rscale>
<asrwt>0</asrwt>
<pdfrwt beam="1">  1        1 0.20218276E+00 0.25643454E+03</pdfrwt>
<pdfrwt beam="2">  1       -1 0.11539974E-01 0.25643454E+03</pdfrwt>
<totfact> 0.46740206E+02</totfact>
</mgrwt>
</event>
<event>
 7    1  0.5928109E-006  0.1343041E+03  0.7546771E-02  0.1234774E+00
          2   -1    0    0  501    0  0.00000000000E+00  0.00000000000E+00  0.32890971149E+03  0.32890971149E+03  0.00000000000E+00 0.  1.
         -2   -1    0    0    0  501 -0.00000000000E+00 -0.00000000000E+00 -0.56652637198E+02  0.56652637198E+02  0.00000000000E+00 0. -1.
         23    2    1    2    0    0 -0.17724447880E+02  0.45825515852E+02  0.24687431977E+03  0.28104185554E+03  0.12499384323E+03 0.  0.
          5    1    3    3  502    0 -0.61159944101E+02  0.51913354851E+02  0.20513434507E+03  0.22031278833E+03  0.47000000000E+01 0.  1.
         -5    1    3    3    0  502  0.43435496221E+02 -0.60878389993E+01  0.41739974699E+02  0.60729067204E+02  0.47000000000E+01 0.  1.
        -11    1    1    2    0    0 -0.92675929188E-01 -0.28173192940E+02 -0.31555890998E+02  0.42302619847E+02  0.00000000000E+00 0. -1.
         11    1    1    2    0    0  0.17817123809E+02 -0.17652322911E+02  0.56938645522E+02  0.62217873308E+02  0.00000000000E+00 0.  1.
<mgrwt>
<rscale>  0 0.12518937E+03</rscale>
<asrwt>0</asrwt>
<pdfrwt beam="1">  1        2 0.50601493E-01 0.13430411E+03</pdfrwt>
<pdfrwt beam="2">  1       -2 0.87157906E-02 0.13430411E+03</pdfrwt>
<totfact> 0.77679981E+03</totfact>
</mgrwt>
</event>
<event>
 7    1  0.5928109E-006  0.1401745E+03  0.7546771E-02  0.1224678E+00
         -1   -1    0    0    0  501 -0.00000000000E+00  0.00000000000E+00  0.18607976627E+03  0.18607976627E+03  0.00000000000E+00 0.  1.
          1   -1    0    0  501    0  0.00000000000E+00 -0.00000000000E+00 -0.93766113857E+02  0.93766113857E+02  0.00000000000E+00 0. -1.
         23    2    1    2    0    0  0.26556314370E+02 -0.57609818057E+02  0.62932387879E+01  0.14031567259E+03  0.12499901660E+03 0.  0.
          5    1    3    3  502    0 -0.24460890181E+02  0.28716363702E+02 -0.82058044144E+01  0.38889457682E+02  0.47000000000E+01 0.  1.
         -5    1    3    3    0  502  0.51017204551E+02 -0.86326181759E+02  0.14499043202E+02  0.10142621491E+03  0.47000000000E+01 0.  1.
        -11    1    1    2    0    0  0.21606765466E+02 -0.10148982385E+02  0.71049145643E+01  0.24906504538E+02  0.00000000000E+00 0.  1.
         11    1    1    2    0    0 -0.48163079836E+02  0.67758800442E+02  0.78915499061E+02  0.11462370300E+03  0.00000000000E+00 0. -1.
<mgrwt>
<rscale>  0 0.13188985E+03</rscale>
<asrwt>0</asrwt>
<pdfrwt beam="2">  1        1 0.14425556E-01 0.14017447E+03</pdfrwt>
<pdfrwt beam="1">  1       -1 0.28627656E-01 0.14017447E+03</pdfrwt>
<totfact> 0.41700987E+03</totfact>
</mgrwt>
</event>
<event>
 7    1  0.5928109E-006  0.1518902E+03  0.7546771E-02  0.1201691E+00
          4   -1    0    0  501    0  0.00000000000E+00  0.00000000000E+00  0.34330997032E+03  0.34330997032E+03  0.00000000000E+00 0. -1.
         -4   -1    0    0    0  501 -0.00000000000E+00 -0.00000000000E+00 -0.65922748400E+02  0.65922748400E+02  0.00000000000E+00 0.  1.
         23    2    1    2    0    0 -0.77383691322E+02  0.61583880507E+02  0.19136197118E+03  0.24431547558E+03  0.11528155783E+03 0.  0.
          5    1    3    3  502    0 -0.92953363412E+02  0.14905740228E+02  0.84559832142E+02  0.12662923862E+03  0.47000000000E+01 0. -1.
         -5    1    3    3    0  502  0.15569672090E+02  0.46678140279E+02  0.10680213903E+03  0.11768623697E+03  0.47000000000E+01 0.  1.
        -11    1    1    2    0    0  0.86209141826E+02 -0.82632195151E+01  0.50766280023E+02  0.10038681247E+03  0.00000000000E+00 0.  1.
         11    1    1    2    0    0 -0.88254505043E+01 -0.53320660992E+02  0.35258970722E+02  0.64530430663E+02  0.00000000000E+00 0. -1.
<mgrwt>
<rscale>  0 0.14901271E+03</rscale>
<asrwt>0</asrwt>
<pdfrwt beam="1">  1        4 0.52816918E-01 0.15189025E+03</pdfrwt>
<pdfrwt beam="2">  1       -4 0.10141961E-01 0.15189025E+03</pdfrwt>
<totfact> 0.43546883E+02</totfact>
</mgrwt>
</event>
<event>
 7    1  0.5928109E-006  0.1335415E+03  0.7546771E-02  0.1235420E+00
         -2   -1    0    0    0  501 -0.00000000000E+00  0.00000000000E+00  0.27183152368E+02  0.27183152368E+02  0.00000000000E+00 0.  1.
          2   -1    0    0  501    0  0.00000000000E+00 -0.00000000000E+00 -0.64312950946E+03  0.64312950946E+03  0.00000000000E+00 0. -1.
         23    2    1    2    0    0  0.44470725283E+02  0.15196673082E+02 -0.49267241258E+03  0.51045022133E+03  0.12499895224E+03 0.  0.
          5    1    3    3  502    0 -0.38642578002E+02 -0.18571399078E+02 -0.18275512967E+03  0.18777559244E+03  0.47000000000E+01 0. -1.
         -5    1    3    3    0  502  0.83113303285E+02  0.33768072160E+02 -0.30991728291E+03  0.32267462889E+03  0.47000000000E+01 0. -1.
        -11    1    1    2    0    0 -0.59329584081E+02 -0.19135530794E+00 -0.34542896105E+02  0.68653097784E+02  0.00000000000E+00 0.  1.
         11    1    1    2    0    0  0.14858858798E+02 -0.15005317774E+02 -0.88731048407E+02  0.91209342710E+02  0.00000000000E+00 0. -1.
<mgrwt>
<rscale>  0 0.12477559E+03</rscale>
<asrwt>0</asrwt>
<pdfrwt beam="2">  1        2 0.98943005E-01 0.13354146E+03</pdfrwt>
<pdfrwt beam="1">  1       -2 0.41820233E-02 0.13354146E+03</pdfrwt>
<totfact> 0.11379361E+04</totfact>
</mgrwt>
</event>
<event>
 7    1  0.5928109E-006  0.1375349E+03  0.7546771E-02  0.1229390E+00
         -2   -1    0    0    0  501 -0.00000000000E+00  0.00000000000E+00  0.27905435105E+02  0.27905435105E+02  0.00000000000E+00 0.  1.
          2   -1    0    0  501    0  0.00000000000E+00 -0.00000000000E+00 -0.52927739514E+03  0.52927739514E+03  0.00000000000E+00 0. -1.
         23    2    1    2    0    0  0.50498775501E+02 -0.10694561348E+02 -0.27796515187E+03  0.31012978539E+03  0.12748081488E+03 0.  0.
          5    1    3    3  502    0  0.25115487620E+02 -0.26448980783E+02 -0.27745652926E+03  0.27988310404E+03  0.47000000000E+01 0. -1.
         -5    1    3    3    0  502  0.25383287881E+02  0.15754419435E+02 -0.50862261376E+00  0.30246681345E+02  0.47000000000E+01 0.  1.
        -11    1    1    2    0    0 -0.54069141619E+01 -0.37259075424E+02 -0.10549962619E+03  0.11201626912E+03  0.00000000000E+00 0.  1.
         11    1    1    2    0    0 -0.45091861339E+02  0.47953636772E+02 -0.11790718197E+03  0.13503677573E+03  0.00000000000E+00 0. -1.
<mgrwt>
<rscale>  0 0.12870498E+03</rscale>
<asrwt>0</asrwt>
<pdfrwt beam="2">  1        2 0.81427286E-01 0.13753493E+03</pdfrwt>
<pdfrwt beam="1">  1       -2 0.42931442E-02 0.13753493E+03</pdfrwt>
<totfact> 0.13670660E+04</totfact>
</mgrwt>
</event>
<event>
 7    1  0.5928109E-006  0.1420854E+03  0.7546771E-02  0.1220330E+00
         -2   -1    0    0    0  501 -0.00000000000E+00  0.00000000000E+00  0.48346060890E+02  0.48346060890E+02  0.00000000000E+00 0.  1.
          2   -1    0    0  501    0  0.00000000000E+00 -0.00000000000E+00 -0.65642016810E+03  0.65642016810E+03  0.00000000000E+00 0. -1.
         23    2    1    2    0    0  0.47280186581E+02 -0.48362855447E+02 -0.56317297391E+03  0.58082017263E+03  0.12495556234E+03 0.  0.
          5    1    3    3  502    0  0.29866461101E+02  0.31355413568E+02 -0.34680052519E+03  0.34952519470E+03  0.47000000000E+01 0.  1.
         -5    1    3    3    0  502  0.17413725480E+02 -0.79718269015E+02 -0.21637244872E+03  0.23129497793E+03  0.47000000000E+01 0.  1.
        -11    1    1    2    0    0 -0.36814633337E+02 -0.94721213802E+01  0.14215076800E+02  0.40584562578E+02  0.00000000000E+00 0.  1.
         11    1    1    2    0    0 -0.10465553243E+02  0.57834976827E+02 -0.59116210107E+02  0.83361493789E+02  0.00000000000E+00 0. -1.
<mgrwt>
<rscale>  0 0.13492213E+03</rscale>
<asrwt>0</asrwt>
<pdfrwt beam="2">  1        2 0.10098772E+00 0.14208545E+03</pdfrwt>
<pdfrwt beam="1">  1       -2 0.74378554E-02 0.14208545E+03</pdfrwt>
<totfact> 0.46699599E+03</totfact>
</mgrwt>
</event>
<event>
 7    1  0.5928109E-006  0.1308150E+03  0.7546771E-02  0.1238448E+00
         -1   -1    0    0    0  501 -0.00000000000E+00  0.00000000000E+00  0.83195247046E+02  0.83195247046E+02  0.00000000000E+00 0.  1.
          1   -1    0    0  501    0  0.00000000000E+00 -0.00000000000E+00 -0.21032998728E+03  0.21032998728E+03  0.00000000000E+00 0. -1.
         23    2    1    2    0    0 -0.16851437141E+02 -0.34680853203E+02 -0.13920221735E+03  0.19102311629E+03  0.12500336447E+03 0.  0.
          5    1    3    3  502    0  0.46685619340E+02 -0.45452665663E+02 -0.58958689620E+02  0.87998346296E+02  0.47000000000E+01 0. -1.
         -5    1    3    3    0  502 -0.63537056481E+02  0.10771812460E+02 -0.80243527730E+02  0.10302476999E+03  0.47000000000E+01 0. -1.
        -11    1    1    2    0    0 -0.35259554252E+02  0.67782495072E+01  0.22648501621E+02  0.42451566027E+02  0.00000000000E+00 0.  1.
         11    1    1    2    0    0  0.52110991393E+02  0.27902603696E+02 -0.10581024506E+02  0.60050552009E+02  0.00000000000E+00 0. -1.
<mgrwt>
<rscale>  0 0.12286234E+03</rscale>
<asrwt>0</asrwt>
<pdfrwt beam="2">  1        1 0.32358459E-01 0.13081504E+03</pdfrwt>
<pdfrwt beam="1">  1       -1 0.12799269E-01 0.13081504E+03</pdfrwt>
<totfact> 0.54225382E+03</totfact>
</mgrwt>
</event>
<event>
 7    1  0.5928109E-006  0.1441858E+03  0.7546771E-02  0.1218246E+00
          4   -1    0    0  501    0  0.00000000000E+00  0.00000000000E+00  0.49120872245E+02  0.49120872245E+02  0.00000000000E+00 0.  1.
         -4   -1    0    0    0  501 -0.00000000000E+00 -0.00000000000E+00 -0.64841786123E+03  0.64841786123E+03  0.00000000000E+00 0. -1.
         23    2    1    2    0    0 -0.71642930096E+02  0.58967840951E+01 -0.78665981732E+02  0.16424944257E+03  0.12498824427E+03 0.  0.
          5    1    3    3  502    0 -0.98673604456E+01 -0.55636170570E+02 -0.27126156334E+02  0.62854328692E+02  0.47000000000E+01 0.  1.
         -5    1    3    3    0  502 -0.61775569650E+02  0.61532954665E+02 -0.51539825398E+02  0.10139511387E+03  0.47000000000E+01 0.  1.
        -11    1    1    2    0    0 -0.18231982735E+02  0.94370910059E+01 -0.52676415209E+02  0.56535551650E+02  0.00000000000E+00 0.  1.
         11    1    1    2    0    0  0.89874912831E+02 -0.15333875101E+02 -0.46795459205E+03  0.47675373926E+03  0.00000000000E+00 0. -1.
<mgrwt>
<rscale>  0 0.13640795E+03</rscale>
<asrwt>0</asrwt>
<pdfrwt beam="1">  1        4 0.75570575E-02 0.14418579E+03</pdfrwt>
<pdfrwt beam="2">  1       -4 0.99756591E-01 0.14418579E+03</pdfrwt>
<totfact> 0.17650643E+02</totfact>
</mgrwt>
</event>
<event>
 6    1  0.5928109E-006  0.1825821E+03  0.7546771E-02  0.1185641E+00
          2   -1    0    0  501    0  0.00000000000E+00  0.00000000000E+00  0.20659140091E+04  0.20659140091E+04  0.00000000000E+00 0. -1.
         -2   -1    0    0    0  501 -0.00000000000E+00 -0.00000000000E+00 -0.20114543935E+02  0.20114543935E+02  0.00000000000E+00 0.  1.
          5    1    1    2  502    0  0.56888142415E+02  0.38350191082E+02  0.18171485890E+04  0.18184493620E+04  0.47000000000E+01 0. -1.
         -5    1    1    2    0  502 -0.94535653323E+01  0.20874528956E+02  0.31720432166E+02  0.39413090127E+02  0.47000000000E+01 0.  1.
        -11    1    1    2    0    0 -0.68782670984E+02 -0.32062882899E+02  0.10192208531E+03  0.12707161666E+03  0.00000000000E+00 0.  1.
         11    1    1    2    0    0  0.21348093901E+02 -0.27161837139E+02  0.95008358703E+02  0.10109448419E+03  0.00000000000E+00 0. -1.
<mgrwt>
<rscale>  0 0.16273688E+03</rscale>
<asrwt>0</asrwt>
<pdfrwt beam="1">  1        2 0.31783276E+00 0.18258213E+03</pdfrwt>
<pdfrwt beam="2">  1       -2 0.30945469E-02 0.18258213E+03</pdfrwt>
<totfact> 0.27807138E+03</totfact>
</mgrwt>
</event>
<event>
 6    1  0.5928109E-006  0.1624096E+03  0.7546771E-02  0.1200517E+00
          1   -1    0    0  501    0  0.00000000000E+00  0.00000000000E+00  0.52657625223E+02  0.52657625223E+02  0.00000000000E+00 0. -1.
         -1   -1    0    0    0  501 -0.00000000000E+00 -0.00000000000E+00 -0.39709047590E+03  0.39709047590E+03  0.00000000000E+00 0.  1.
          5    1    1    2  502    0  0.16889437705E+02 -0.98420481272E+02 -0.51615935268E+02  0.11250839530E+03  0.47000000000E+01 0. -1.
         -5    1    1    2    0  502  0.29893721757E+02  0.38682144479E+02 -0.92017306354E+02  0.10430348782E+03  0.47000000000E+01 0.  1.
        -11    1    1    2    0    0 -0.32220287697E+02 -0.82276235269E+01 -0.18994364499E+02  0.38296561346E+02  0.00000000000E+00 0. -1.
         11    1    1    2    0    0 -0.14562871766E+02  0.67965960320E+02 -0.18180524455E+03  0.19463965665E+03  0.00000000000E+00 0.  1.
<mgrwt>
<rscale>  0 0.14996399E+03</rscale>
<asrwt>0</asrwt>
<pdfrwt beam="1">  1        1 0.81011732E-02 0.16240962E+03</pdfrwt>
<pdfrwt beam="2">  1       -1 0.61090842E-01 0.16240962E+03</pdfrwt>
<totfact> 0.23433093E+03</totfact>
</mgrwt>
</event>
<event>
 7    1  0.5928109E-006  0.1375069E+03  0.7546771E-02  0.1229293E+00
          2   -1    0    0  501    0  0.00000000000E+00  0.00000000000E+00  0.30940789861E+03  0.30940789861E+03  0.00000000000E+00 0.  1.
         -2   -1    0    0    0  501 -0.00000000000E+00 -0.00000000000E+00 -0.48022809363E+02  0.48022809363E+02  0.00000000000E+00 0. -1.
         23    2    1    2    0    0 -0.34436928989E+02 -0.45785877536E+02  0.13594240300E+03  0.19336100331E+03  0.12500356799E+03 0.  0.
          5    1    3    3  502    0 -0.32542147410E+02  0.39084766177E+02  0.37982563748E+02  0.63650415977E+02  0.47000000000E+01 0.  1.
         -5    1    3    3    0  502 -0.18947815789E+01 -0.84870643712E+02  0.97959839249E+02  0.12971058734E+03  0.47000000000E+01 0.  1.
        -11    1    1    2    0    0  0.36021413702E+02 -0.53420468252E+01  0.10102577073E+03  0.10738848198E+03  0.00000000000E+00 0.  1.
         11    1    1    2    0    0 -0.15844847130E+01  0.51127924361E+02  0.24416915515E+02  0.56681222680E+02  0.00000000000E+00 0. -1.
<mgrwt>
<rscale>  0 0.12876953E+03</rscale>
<asrwt>0</asrwt>
<pdfrwt beam="1">  1        2 0.47601214E-01 0.13750687E+03</pdfrwt>
<pdfrwt beam="2">  1       -2 0.73881247E-02 0.13750687E+03</pdfrwt>
<totfact> 0.10716011E+04</totfact>
</mgrwt>
</event>
<event>
 7    1  0.5928109E-006  0.1304664E+03  0.7546771E-02  0.1240174E+00
         -1   -1    0    0    0  501 -0.00000000000E+00  0.00000000000E+00  0.12814363892E+03  0.12814363892E+03  0.00000000000E+00 0.  1.
          1   -1    0    0  501    0  0.00000000000E+00 -0.00000000000E+00 -0.12010914463E+03  0.12010914463E+03  0.00000000000E+00 0. -1.
         23    2    1    2    0    0  0.21968094139E+02 -0.30224459907E+02 -0.42269376374E+02  0.13714289935E+03  0.12500143810E+03 0.  0.
          5    1    3    3  502    0 -0.52577391929E+01  0.45015430815E+02 -0.33413443985E+02  0.56502929763E+02  0.47000000000E+01 0. -1.
         -5    1    3    3    0  502  0.27225833332E+02 -0.75239890722E+02 -0.88559323895E+01  0.80639969587E+02  0.47000000000E+01 0. -1.
        -11    1    1    2    0    0 -0.51018716609E+01  0.37721721881E+02 -0.16731387603E+02  0.41580003935E+02  0.00000000000E+00 0. -1.
         11    1    1    2    0    0 -0.16866222478E+02 -0.74972619734E+01  0.67035258273E+02  0.69529880264E+02  0.00000000000E+00 0.  1.
<mgrwt>
<rscale>  0 0.12178949E+03</rscale>
<asrwt>0</asrwt>
<pdfrwt beam="2">  1        1 0.18478330E-01 0.13046637E+03</pdfrwt>
<pdfrwt beam="1">  1       -1 0.19714406E-01 0.13046637E+03</pdfrwt>
<totfact> 0.55533146E+03</totfact>
</mgrwt>
</event>
<event>
 7    1  0.5928109E-006  0.1406468E+03  0.7546771E-02  0.1223449E+00
         -1   -1    0    0    0  501 -0.00000000000E+00  0.00000000000E+00  0.90825662563E+03  0.90825662563E+03  0.00000000000E+00 0.  1.
          1   -1    0    0  501    0  0.00000000000E+00 -0.00000000000E+00 -0.17739686491E+02  0.17739686491E+02  0.00000000000E+00 0. -1.
         23    2    1    2    0    0  0.51856378731E+02  0.38294894808E+02  0.44369757737E+03  0.46545577101E+03  0.12500380641E+03 0.  0.
          5    1    3    3  502    0  0.80668310278E+02  0.40855898804E+02  0.41380181680E+03  0.42359250978E+03  0.47000000000E+01 0. -1.
         -5    1    3    3    0  502 -0.28811931548E+02 -0.25610039967E+01  0.29895760573E+02  0.41863261235E+02  0.47000000000E+01 0. -1.
        -11    1    1    2    0    0 -0.44492139014E+02  0.21793487159E+02  0.16425771877E+03  0.17156661882E+03  0.00000000000E+00 0. -1.
         11    1    1    2    0    0 -0.73642397161E+01 -0.60088381967E+02  0.28256164299E+03  0.28897392229E+03  0.00000000000E+00 0.  1.
<mgrwt>
<rscale>  0 0.13273757E+03</rscale>
<asrwt>0</asrwt>
<pdfrwt beam="2">  1        1 0.27291832E-02 0.14064684E+03</pdfrwt>
<pdfrwt beam="1">  1       -1 0.13973175E+00 0.14064684E+03</pdfrwt>
<totfact> 0.17236685E+03</totfact>
</mgrwt>
</event>
<event>
 7    1  0.5928109E-006  0.1318201E+03  0.7546771E-02  0.1238128E+00
          2   -1    0    0  501    0  0.00000000000E+00  0.00000000000E+00  0.19635082930E+03  0.19635082930E+03  0.00000000000E+00 0. -1.
         -2   -1    0    0    0  501 -0.00000000000E+00 -0.00000000000E+00 -0.68501060359E+02  0.68501060359E+02  0.00000000000E+00 0.  1.
         23    2    1    2    0    0  0.40872698371E+02  0.90896418369E+01  0.73060191964E+02  0.15071273507E+03  0.12499335103E+03 0.  0.
          5    1    3    3  502    0 -0.79596997317E+01 -0.14478569275E+02  0.91614715474E+02  0.93211221853E+02  0.47000000000E+01 0.  1.
         -5    1    3    3    0  502  0.48832398103E+02  0.23568211112E+02 -0.18554523510E+02  0.57501513217E+02  0.47000000000E+01 0.  1.
        -11    1    1    2    0    0 -0.31528446111E+02 -0.13792835118E+02  0.79867875008E+02  0.86966445674E+02  0.00000000000E+00 0. -1.
         11    1    1    2    0    0 -0.93442522598E+01  0.47031932811E+01 -0.25078298034E+02  0.27172708912E+02  0.00000000000E+00 0.  1.
<mgrwt>
<rscale>  0 0.12306268E+03</rscale>
<asrwt>0</asrwt>
<pdfrwt beam="1">  1        2 0.30207820E-01 0.13182009E+03</pdfrwt>
<pdfrwt beam="2">  1       -2 0.10538625E-01 0.13182009E+03</pdfrwt>
<totfact> 0.99871814E+03</totfact>
</mgrwt>
</event>
<event>
 7    1  0.5928109E-006  0.2210490E+03  0.7546771E-02  0.1136177E+00
         -2   -1    0    0    0  501 -0.00000000000E+00  0.00000000000E+00  0.20960190509E+03  0.20960190509E+03  0.00000000000E+00 0. -1.
          2   -1    0    0  501    0  0.00000000000E+00 -0.00000000000E+00 -0.21683908452E+03  0.21683908452E+03  0.00000000000E+00 0.  1.
         23    2    1    2    0    0 -0.10475067059E+03 -0.14921025337E+03  0.31734881468E+01  0.22107181178E+03  0.12500508884E+03 0.  0.
          5    1    3    3  502    0 -0.10092589638E+03 -0.11327429415E+03  0.51730967557E+02  0.16035986180E+03  0.47000000000E+01 0. -1.
         -5    1    3    3    0  502 -0.38247742129E+01 -0.35935959228E+02 -0.48557479410E+02  0.60711949978E+02  0.47000000000E+01 0. -1.
        -11    1    1    2    0    0  0.80501589242E+02  0.63670059238E+02 -0.42161204143E+02  0.11095922426E+03  0.00000000000E+00 0.  1.
         11    1    1    2    0    0  0.24249081348E+02  0.85540194136E+02  0.31750536563E+02  0.94409953560E+02  0.00000000000E+00 0. -1.
<mgrwt>
<rscale>  0 0.21695047E+03</rscale>
<asrwt>0</asrwt>
<pdfrwt beam="2">  1        2 0.33359859E-01 0.22104903E+03</pdfrwt>
<pdfrwt beam="1">  1       -2 0.32246447E-01 0.22104903E+03</pdfrwt>
<totfact> 0.13884952E+03</totfact>
</mgrwt>
</event>
<event>
 7    1  0.5928109E-006  0.1388661E+03  0.7546771E-02  0.1224581E+00
          1   -1    0    0  501    0  0.00000000000E+00  0.00000000000E+00  0.27668346420E+03  0.27668346420E+03  0.00000000000E+00 0. -1.
         -1   -1    0    0    0  501 -0.00000000000E+00 -0.00000000000E+00 -0.57929110756E+02  0.57929110756E+02  0.00000000000E+00 0.  1.
         23    2    1    2    0    0 -0.34639200324E+02 -0.49578005777E+02  0.13599926503E+03  0.19436975188E+03  0.12500378994E+03 0.  0.
          5    1    3    3  502    0  0.35107273994E+02  0.64892934093E+01  0.60442214266E+01  0.36513753968E+02  0.47000000000E+01 0.  1.
         -5    1    3    3    0  502 -0.69746474317E+02 -0.56067299186E+02  0.12995504360E+03  0.15785599791E+03  0.47000000000E+01 0.  1.
        -11    1    1    2    0    0 -0.14325882251E+02  0.84281498116E+01 -0.15681941803E+02  0.22851431251E+02  0.00000000000E+00 0.  1.
         11    1    1    2    0    0  0.48965082574E+02  0.41149855965E+02  0.98437030221E+02  0.11739139183E+03  0.00000000000E+00 0. -1.
<mgrwt>
<rscale>  0 0.13195679E+03</rscale>
<asrwt>0</asrwt>
<pdfrwt beam="1">  1        1 0.42566686E-01 0.13886612E+03</pdfrwt>
<pdfrwt beam="2">  1       -1 0.89121710E-02 0.13886612E+03</pdfrwt>
<totfact> 0.67510329E+03</totfact>
</mgrwt>
</event>
<event>
 7    1  0.5928109E-006  0.1627084E+03  0.7546771E-02  0.1193005E+00
          2   -1    0    0  501    0  0.00000000000E+00  0.00000000000E+00  0.11816654569E+04  0.11816654569E+04  0.00000000000E+00 0. -1.
         -2   -1    0    0    0  501 -0.00000000000E+00 -0.00000000000E+00 -0.22879832039E+02  0.22879832039E+02  0.00000000000E+00 0.  1.
         23    2    1    2    0    0 -0.12999256017E+02  0.10334267471E+03  0.86036228765E+03  0.87561252675E+03  0.12500136764E+03 0.  0.
          5    1    3    3  502    0 -0.12148148281E+02  0.12883472300E+03  0.59182988757E+03  0.60583056144E+03  0.47000000000E+01 0. -1.
         -5    1    3    3    0  502 -0.85110773581E+00 -0.25492048289E+02  0.26853240008E+03  0.26978196531E+03  0.47000000000E+01 0. -1.
        -11    1    1    2    0    0  0.38506386396E+02 -0.11790605710E+02  0.12291932471E+03  0.12934805976E+03  0.00000000000E+00 0.  1.
         11    1    1    2    0    0 -0.25507130379E+02 -0.91552069005E+02  0.17550401247E+03  0.19958470240E+03  0.00000000000E+00 0. -1.
<mgrwt>
<rscale>  0 0.15624317E+03</rscale>
<asrwt>0</asrwt>
<pdfrwt beam="1">  1        2 0.18179464E+00 0.16270842E+03</pdfrwt>
<pdfrwt beam="2">  1       -2 0.35199751E-02 0.16270842E+03</pdfrwt>
<totfact> 0.67004045E+03</totfact>
</mgrwt>
</event>
<event>
 6    1  0.5928109E-006  0.1550188E+03  0.7546771E-02  0.1203751E+00
         -2   -1    0    0    0  501 -0.00000000000E+00  0.00000000000E+00  0.13168156420E+03  0.13168156420E+03  0.00000000000E+00 0.  1.
          2   -1    0    0  501    0  0.00000000000E+00 -0.00000000000E+00 -0.27747807853E+03  0.27747807853E+03  0.00000000000E+00 0. -1.
          5    1    1    2  502    0 -0.80000035965E+01  0.32299605579E+02 -0.20211320182E+03  0.20488802046E+03  0.47000000000E+01 0. -1.
         -5    1    1    2    0  502  0.22381966507E+02  0.54054141978E+02 -0.12754841639E+02  0.60063122421E+02  0.47000000000E+01 0.  1.
        -11    1    1    2    0    0  0.88261712875E+01 -0.90297985858E+02  0.77379744417E+02  0.11924450677E+03  0.00000000000E+00 0.  1.
         11    1    1    2    0    0 -0.23208134198E+02  0.39442383015E+01 -0.83082152885E+01  0.24963993070E+02  0.00000000000E+00 0. -1.
<mgrwt>
<rscale>  0 0.14736311E+03</rscale>
<asrwt>0</asrwt>
<pdfrwt beam="2">  1        2 0.42688934E-01 0.15501881E+03</pdfrwt>
<pdfrwt beam="1">  1       -2 0.20258703E-01 0.15501881E+03</pdfrwt>
<totfact> 0.23928496E+03</totfact>
</mgrwt>
</event>
<event>
 7    1  0.5928109E-006  0.1398930E+03  0.7546771E-02  0.1224257E+00
          3   -1    0    0  501    0  0.00000000000E+00  0.00000000000E+00  0.59894128439E+02  0.59894128439E+02  0.00000000000E+00 0. -1.
         -3   -1    0    0    0  501 -0.00000000000E+00 -0.00000000000E+00 -0.29209892261E+03  0.29209892261E+03  0.00000000000E+00 0.  1.
         23    2    1    2    0    0 -0.54224929184E+02  0.31696295259E+02 -0.73470495398E+02  0.15801257065E+03  0.12500024285E+03 0.  0.
          5    1    3    3  502    0 -0.77829513494E+02 -0.27376500697E+01 -0.56364004951E+01  0.78222675159E+02  0.47000000000E+01 0. -1.
         -5    1    3    3    0  502  0.23604584310E+02  0.34433945329E+02 -0.67834094902E+02  0.79789895492E+02  0.47000000000E+01 0. -1.
        -11    1    1    2    0    0  0.54474946663E+02 -0.60577514099E+02 -0.10417749550E+03  0.13225016294E+03  0.00000000000E+00 0.  1.
         11    1    1    2    0    0 -0.25001747911E+00  0.28881218840E+02 -0.54556803279E+02  0.61730317466E+02  0.00000000000E+00 0. -1.
<mgrwt>
<rscale>  0 0.13217947E+03</rscale>
<asrwt>0</asrwt>
<pdfrwt beam="1">  1        3 0.92144815E-02 0.13989303E+03</pdfrwt>
<pdfrwt beam="2">  1       -3 0.44938295E-01 0.13989303E+03</pdfrwt>
<totfact> 0.96831886E+02</totfact>
</mgrwt>
</event>
<event>
 7    1  0.5928109E-006  0.3447076E+03  0.7546771E-02  0.1066075E+00
          2   -1    0    0  501    0  0.00000000000E+00  0.00000000000E+00  0.17066441233E+04  0.17066441233E+04  0.00000000000E+00 0. -1.
         -2   -1    0    0    0  501 -0.00000000000E+00 -0.00000000000E+00 -0.72403677700E+02  0.72403677700E+02  0.00000000000E+00 0.  1.
         23    2    1    2    0    0 -0.17619175500E+03 -0.26861793945E+03  0.10678556990E+04  0.11221136798E+04  0.12499673812E+03 0.  0.
          5    1    3    3  502    0 -0.51034380947E+02 -0.18417173659E+03  0.52885220237E+03  0.56234373700E+03  0.47000000000E+01 0. -1.
         -5    1    3    3    0  502 -0.12515737406E+03 -0.84446202868E+02  0.53900349664E+03  0.55976994279E+03  0.47000000000E+01 0. -1.
        -11    1    1    2    0    0  0.97257769485E+02  0.17286134146E+03  0.42374871044E+03  0.46787080129E+03  0.00000000000E+00 0. -1.
         11    1    1    2    0    0  0.78933985518E+02  0.95756597998E+02  0.14263603613E+03  0.18906331990E+03  0.00000000000E+00 0.  1.
<mgrwt>
<rscale>  0 0.34169708E+03</rscale>
<asrwt>0</asrwt>
<pdfrwt beam="1">  1        2 0.26256060E+00 0.34470758E+03</pdfrwt>
<pdfrwt beam="2">  1       -2 0.11139029E-01 0.34470758E+03</pdfrwt>
<totfact> 0.58722997E+02</totfact>
</mgrwt>
</event>
<event>
 7    1  0.5928109E-006  0.1289289E+03  0.7546771E-02  0.1241530E+00
         -1   -1    0    0    0  501 -0.00000000000E+00  0.00000000000E+00  0.21175829850E+02  0.21175829850E+02  0.00000000000E+00 0.  1.
          1   -1    0    0  501    0  0.00000000000E+00 -0.00000000000E+00 -0.61812364540E+03  0.61812364540E+03  0.00000000000E+00 0. -1.
         23    2    1    2    0    0  0.22550706746E+02  0.22115580959E+02 -0.33271247707E+03  0.35681964125E+03  0.12500012273E+03 0.  0.
          5    1    3    3  502    0 -0.25668978935E+02  0.48806994455E+02 -0.74839776310E+02  0.93081154405E+02  0.47000000000E+01 0.  1.
         -5    1    3    3    0  502  0.48219685681E+02 -0.26691413496E+02 -0.25787270076E+03  0.26373848684E+03  0.47000000000E+01 0.  1.
        -11    1    1    2    0    0 -0.50151584334E+02 -0.31634845194E+02 -0.22983143649E+03  0.23735718662E+03  0.00000000000E+00 0.  1.
         11    1    1    2    0    0  0.27600877588E+02  0.95192642346E+01 -0.34403901994E+02  0.45122647392E+02  0.00000000000E+00 0. -1.
<mgrwt>
<rscale>  0 0.12095515E+03</rscale>
<asrwt>0</asrwt>
<pdfrwt beam="2">  1        1 0.95095945E-01 0.12892891E+03</pdfrwt>
<pdfrwt beam="1">  1       -1 0.32578200E-02 0.12892891E+03</pdfrwt>
<totfact> 0.10709529E+04</totfact>
</mgrwt>
</event>
<event>
 7    1  0.5928109E-006  0.1252718E+03  0.7546771E-02  0.1284178E+00
         -2   -1    0    0    0  501 -0.00000000000E+00  0.00000000000E+00  0.15853823751E+02  0.15853823751E+02  0.00000000000E+00 0.  1.
          2   -1    0    0  501    0  0.00000000000E+00 -0.00000000000E+00 -0.13656171463E+04  0.13656171463E+04  0.00000000000E+00 0. -1.
         23    2    1    2    0    0  0.38769244483E+02  0.21814050343E+02 -0.13193255360E+04  0.13252595529E+04  0.11710723966E+03 0.  0.
          5    1    3    3  502    0  0.50650151236E+02 -0.37571839698E+02 -0.57790603346E+03  0.58135578991E+03  0.47000000000E+01 0. -1.
         -5    1    3    3    0  502 -0.11880906753E+02  0.59385890041E+02 -0.74141950256E+03  0.74390376303E+03  0.47000000000E+01 0.  1.
        -11    1    1    2    0    0 -0.27635818397E+02 -0.72926082255E+01 -0.15044365398E+02  0.32299435342E+02  0.00000000000E+00 0.  1.
         11    1    1    2    0    0 -0.11133426086E+02 -0.14521442117E+02 -0.15393421136E+02  0.23911981763E+02  0.00000000000E+00 0. -1.
<mgrwt>
<rscale>  0 0.98176466E+02</rscale>
<asrwt>0</asrwt>
<pdfrwt beam="2">  1        2 0.21009500E+00 0.12527176E+03</pdfrwt>
<pdfrwt beam="1">  1       -2 0.24390492E-02 0.12527176E+03</pdfrwt>
<totfact> 0.90291821E+03</totfact>
</mgrwt>
</event>
<event>
 7    1  0.5928109E-006  0.1664087E+03  0.7546771E-02  0.1188452E+00
         -1   -1    0    0    0  501 -0.00000000000E+00  0.00000000000E+00  0.28248195490E+02  0.28248195490E+02  0.00000000000E+00 0.  1.
          1   -1    0    0  501    0  0.00000000000E+00 -0.00000000000E+00 -0.85335033832E+03  0.85335033832E+03  0.00000000000E+00 0. -1.
         23    2    1    2    0    0 -0.86456357705E+02  0.67768614914E+02 -0.40626489291E+03  0.43902508190E+03  0.12499828947E+03 0.  0.
          5    1    3    3  502    0 -0.93148327761E+02  0.39554187530E+02 -0.14954086881E+03  0.18062587345E+03  0.47000000000E+01 0.  1.
         -5    1    3    3    0  502  0.66919700558E+01  0.28214427384E+02 -0.25672402410E+03  0.25839920844E+03  0.47000000000E+01 0.  1.
        -11    1    1    2    0    0  0.46006445379E+02 -0.86582878754E+02 -0.30150471138E+03  0.31704617785E+03  0.00000000000E+00 0. -1.
         11    1    1    2    0    0  0.40449912326E+02  0.18814263840E+02 -0.11733253855E+03  0.12552727406E+03  0.00000000000E+00 0.  1.
<mgrwt>
<rscale>  0 0.16021742E+03</rscale>
<asrwt>0</asrwt>
<pdfrwt beam="2">  1        1 0.13128465E+00 0.16640871E+03</pdfrwt>
<pdfrwt beam="1">  1       -1 0.43458769E-02 0.16640871E+03</pdfrwt>
<totfact> 0.44436115E+03</totfact>
</mgrwt>
</event>
<event>
 6    1  0.5928109E-006  0.1665770E+03  0.7546771E-02  0.1203633E+00
          1   -1    0    0  501    0  0.00000000000E+00  0.00000000000E+00  0.61470113631E+02  0.61470113631E+02  0.00000000000E+00 0. -1.
         -1   -1    0    0    0  501 -0.00000000000E+00 -0.00000000000E+00 -0.38804391133E+03  0.38804391133E+03  0.00000000000E+00 0.  1.
          5    1    1    2  502    0 -0.10370206971E+01  0.70816530003E+02 -0.25554567242E+02  0.75439924712E+02  0.47000000000E+01 0. -1.
         -5    1    1    2    0  502 -0.44710150004E+02 -0.83062298685E+02 -0.59087012428E+02  0.11140784539E+03  0.47000000000E+01 0.  1.
        -11    1    1    2    0    0  0.17522848661E+02  0.40439772496E+02 -0.50086080217E+02  0.66716121412E+02  0.00000000000E+00 0. -1.
         11    1    1    2    0    0  0.28224322039E+02 -0.28194003814E+02 -0.19184613781E+03  0.19595013345E+03  0.00000000000E+00 0.  1.
<mgrwt>
<rscale>  0 0.14745686E+03</rscale>
<asrwt>0</asrwt>
<pdfrwt beam="1">  1        1 0.94569406E-02 0.16657699E+03</pdfrwt>
<pdfrwt beam="2">  1       -1 0.59699063E-01 0.16657699E+03</pdfrwt>
<totfact> 0.19915886E+03</totfact>
</mgrwt>
</event>
<event>
 7    1  0.5928109E-006  0.1276796E+03  0.7546771E-02  0.1245227E+00
          1   -1    0    0  501    0  0.00000000000E+00  0.00000000000E+00  0.69641191295E+03  0.69641191295E+03  0.00000000000E+00 0. -1.
         -1   -1    0    0    0  501 -0.00000000000E+00 -0.00000000000E+00 -0.36849589859E+02  0.36849589859E+02  0.00000000000E+00 0.  1.
         23    2    1    2    0    0  0.95271720351E+01  0.24221102059E+02  0.61468095662E+03  0.62780151976E+03  0.12499856394E+03 0.  0.
          5    1    3    3  502    0 -0.21571234587E+02  0.29825159625E+02  0.50244294432E+02  0.62461487584E+02  0.47000000000E+01 0.  1.
         -5    1    3    3    0  502  0.31098406622E+02 -0.56040575664E+01  0.56443666219E+03  0.56534003217E+03  0.47000000000E+01 0.  1.
        -11    1    1    2    0    0  0.30169585072E+02 -0.60590676721E+01 -0.12624949665E+02  0.33261171334E+02  0.00000000000E+00 0.  1.
         11    1    1    2    0    0 -0.39696757107E+02 -0.18162034387E+02  0.57506316134E+02  0.72198811716E+02  0.00000000000E+00 0. -1.
<mgrwt>
<rscale>  0 0.11871778E+03</rscale>
<asrwt>0</asrwt>
<pdfrwt beam="1">  1        1 0.10714028E+00 0.12767956E+03</pdfrwt>
<pdfrwt beam="2">  1       -1 0.56691682E-02 0.12767956E+03</pdfrwt>
<totfact> 0.40142331E+03</totfact>
</mgrwt>
</event>
<event>
 7    1  0.5928109E-006  0.1339523E+03  0.7546771E-02  0.1232374E+00
         -2   -1    0    0    0  501 -0.00000000000E+00  0.00000000000E+00  0.26252589856E+02  0.26252589856E+02  0.00000000000E+00 0.  1.
          2   -1    0    0  501    0  0.00000000000E+00 -0.00000000000E+00 -0.87878087323E+03  0.87878087323E+03  0.00000000000E+00 0. -1.
         23    2    1    2    0    0 -0.22375092519E+02 -0.42652601884E+02 -0.72974913517E+03  0.74194138500E+03  0.12499331694E+03 0.  0.
          5    1    3    3  502    0  0.17974547535E+01  0.42979705649E+02 -0.18818861686E+03  0.19309979663E+03  0.47000000000E+01 0. -1.
         -5    1    3    3    0  502 -0.24172547272E+02 -0.85632307534E+02 -0.54156051831E+03  0.54884158837E+03  0.47000000000E+01 0. -1.
        -11    1    1    2    0    0  0.46381015583E+02 -0.40760180085E+01 -0.89550158279E+02  0.10093088416E+03  0.00000000000E+00 0. -1.
         11    1    1    2    0    0 -0.24005923065E+02  0.46728619893E+02 -0.33228989926E+02  0.62161193930E+02  0.00000000000E+00 0.  1.
<mgrwt>
<rscale>  0 0.12674023E+03</rscale>
<asrwt>0</asrwt>
<pdfrwt beam="2">  1        2 0.13519707E+00 0.13395230E+03</pdfrwt>
<pdfrwt beam="1">  1       -2 0.40388595E-02 0.13395230E+03</pdfrwt>
<totfact> 0.81947761E+03</totfact>
</mgrwt>
</event>
<event>
 7    1  0.5928109E-006  0.1621321E+03  0.7546771E-02  0.1193728E+00
          2   -1    0    0  501    0  0.00000000000E+00  0.00000000000E+00  0.16535308659E+04  0.16535308659E+04  0.00000000000E+00 0. -1.
         -2   -1    0    0    0  501 -0.00000000000E+00 -0.00000000000E+00 -0.18211713860E+02  0.18211713860E+02  0.00000000000E+00 0.  1.
         23    2    1    2    0    0  0.74566028770E+02 -0.71409376896E+02  0.12877705564E+04  0.12979367503E+04  0.12500963969E+03 0.  0.
          5    1    3    3  502    0  0.20061757343E+01 -0.55500292735E+01  0.12094803324E+01  0.76407073421E+01  0.47000000000E+01 0.  1.
         -5    1    3    3    0  502  0.72559853035E+02 -0.65859347622E+02  0.12865610761E+04  0.12902960430E+04  0.47000000000E+01 0.  1.
        -11    1    1    2    0    0 -0.42849899369E+02 -0.84707716704E+01  0.18326788394E+03  0.18840112826E+03  0.00000000000E+00 0.  1.
         11    1    1    2    0    0 -0.31716129400E+02  0.79880148566E+02  0.16428071170E+03  0.18540470122E+03  0.00000000000E+00 0. -1.
<mgrwt>
<rscale>  0 0.15562393E+03</rscale>
<asrwt>0</asrwt>
<pdfrwt beam="1">  1        2 0.25438925E+00 0.16213205E+03</pdfrwt>
<pdfrwt beam="2">  1       -2 0.28018034E-02 0.16213205E+03</pdfrwt>
<totfact> 0.52564349E+03</totfact>
</mgrwt>
</event>
<event>
 7    1  0.5928109E-006  0.1328201E+03  0.7546771E-02  0.1235753E+00
          2   -1    0    0  501    0  0.00000000000E+00  0.00000000000E+00  0.45050803342E+03  0.45050803342E+03  0.00000000000E+00 0. -1.
         -2   -1    0    0    0  501 -0.00000000000E+00 -0.00000000000E+00 -0.34602467944E+02  0.34602467944E+02  0.00000000000E+00 0.  1.
         23    2    1    2    0    0  0.10718487245E+02 -0.43642606886E+02  0.31145619630E+03  0.33859435399E+03  0.12498644421E+03 0.  0.
          5    1    3    3  502    0 -0.41505584655E+02  0.22521413882E+02  0.13202886104E+03  0.14029838840E+03  0.47000000000E+01 0.  1.
         -5    1    3    3    0  502  0.52224071900E+02 -0.66164020768E+02  0.17942733526E+03  0.19829596559E+03  0.47000000000E+01 0.  1.
        -11    1    1    2    0    0  0.12153057740E+02  0.53187080998E+02  0.19359953633E+02  0.57891020048E+02  0.00000000000E+00 0.  1.
         11    1    1    2    0    0 -0.22871544986E+02 -0.95444741120E+01  0.85089415548E+02  0.88625127330E+02  0.00000000000E+00 0. -1.
<mgrwt>
<rscale>  0 0.12456384E+03</rscale>
<asrwt>0</asrwt>
<pdfrwt beam="1">  1        2 0.69308924E-01 0.13282008E+03</pdfrwt>
<pdfrwt beam="2">  1       -2 0.53234569E-02 0.13282008E+03</pdfrwt>
<totfact> 0.11784047E+04</totfact>
</mgrwt>
</event>
<event>
 7    1  0.5928109E-006  0.3184805E+03  0.7546771E-02  0.1077295E+00
          1   -1    0    0  501    0  0.00000000000E+00  0.00000000000E+00  0.48997087851E+03  0.48997087851E+03  0.00000000000E+00 0. -1.
         -1   -1    0    0    0  501 -0.00000000000E+00 -0.00000000000E+00 -0.20960788977E+03  0.20960788977E+03  0.00000000000E+00 0.  1.
         23    2    1    2    0    0 -0.28520857112E+03 -0.66793031802E+02  0.20934529358E+03  0.38112372319E+03  0.12499840917E+03 0.  0.
          5    1    3    3  502    0 -0.14804235888E+03  0.82827662982E+01  0.46868322563E+02  0.15557594255E+03  0.47000000000E+01 0. -1.
         -5    1    3    3    0  502 -0.13716621225E+03 -0.75075798100E+02  0.16247697102E+03  0.22554778064E+03  0.47000000000E+01 0. -1.
        -11    1    1    2    0    0  0.20522496629E+03  0.34008004871E+02  0.95085526534E+02  0.22872491893E+03  0.00000000000E+00 0.  1.
         11    1    1    2    0    0  0.79983604833E+02  0.32785026931E+02 -0.24067831379E+02  0.89730126157E+02  0.00000000000E+00 0. -1.
<mgrwt>
<rscale>  0 0.31644989E+03</rscale>
<asrwt>0</asrwt>
<pdfrwt beam="1">  1        1 0.75380135E-01 0.31848052E+03</pdfrwt>
<pdfrwt beam="2">  1       -1 0.32247368E-01 0.31848052E+03</pdfrwt>
<totfact> 0.42003036E+02</totfact>
</mgrwt>
</event>
<event>
 7    1  0.5928109E-006  0.1259664E+03  0.7546771E-02  0.1248125E+00
          2   -1    0    0  501    0  0.00000000000E+00  0.00000000000E+00  0.41626441262E+03  0.41626441262E+03  0.00000000000E+00 0. -1.
         -2   -1    0    0    0  501 -0.00000000000E+00 -0.00000000000E+00 -0.29099593395E+02  0.29099593395E+02  0.00000000000E+00 0.  1.
         23    2    1    2    0    0 -0.99240147196E+01  0.11988804143E+02  0.23500854308E+03  0.26663934146E+03  0.12500122240E+03 0.  0.
          5    1    3    3  502    0 -0.49431987955E+01  0.56527025408E+02  0.48590244845E+02  0.74852132300E+02  0.47000000000E+01 0.  1.
         -5    1    3    3    0  502 -0.49808159241E+01 -0.44538221264E+02  0.18641829824E+03  0.19178720916E+03  0.47000000000E+01 0.  1.
        -11    1    1    2    0    0 -0.33525843765E+02  0.19036025508E+02  0.46983858689E+02  0.60776931846E+02  0.00000000000E+00 0.  1.
         11    1    1    2    0    0  0.43449858485E+02 -0.31024829651E+02  0.10517241745E+03  0.11794773270E+03  0.00000000000E+00 0. -1.
<mgrwt>
<rscale>  0 0.11700261E+03</rscale>
<asrwt>0</asrwt>
<pdfrwt beam="1">  1        2 0.64040674E-01 0.12596636E+03</pdfrwt>
<pdfrwt beam="2">  1       -2 0.44768608E-02 0.12596636E+03</pdfrwt>
<totfact> 0.16557827E+04</totfact>
</mgrwt>
</event>
<event>
 6    1  0.5928109E-006  0.1737782E+03  0.7546771E-02  0.1189757E+00
          4   -1    0    0  501    0  0.00000000000E+00  0.00000000000E+00  0.59833671852E+03  0.59833671852E+03  0.00000000000E+00 0. -1.
         -4   -1    0    0    0  501 -0.00000000000E+00 -0.00000000000E+00 -0.40204406069E+02  0.40204406069E+02  0.00000000000E+00 0.  1.
          5    1    1    2  502    0  0.23550749109E+02 -0.66215547915E+02  0.37492962478E+03  0.38148846654E+03  0.47000000000E+01 0. -1.
         -5    1    1    2    0  502  0.48174926309E+02  0.29818635221E+02  0.43474679451E+02  0.71568933796E+02  0.47000000000E+01 0.  1.
        -11    1    1    2    0    0 -0.85491573442E+02  0.39025229107E+02  0.14297740870E+03  0.17109739050E+03  0.00000000000E+00 0.  1.
         11    1    1    2    0    0  0.13765898024E+02 -0.26283164138E+01 -0.32494004722E+01  0.14386333758E+02  0.00000000000E+00 0. -1.
<mgrwt>
<rscale>  0 0.15906434E+03</rscale>
<asrwt>0</asrwt>
<pdfrwt beam="1">  1        4 0.92051797E-01 0.17377815E+03</pdfrwt>
<pdfrwt beam="2">  1       -4 0.61852936E-02 0.17377815E+03</pdfrwt>
<totfact> 0.30438974E+02</totfact>
</mgrwt>
</event>
<event>
 7    1  0.7475199E-006  0.2422968E+03  0.7546771E-02  0.1121047E+00
          1   -1    0    0  501    0  0.00000000000E+00  0.00000000000E+00  0.78524358755E+03  0.78524358755E+03  0.00000000000E+00 0. -1.
         -1   -1    0    0    0  501 -0.00000000000E+00 -0.00000000000E+00 -0.71873482821E+02  0.71873482821E+02  0.00000000000E+00 0.  1.
         23    2    1    2    0    0  0.76719926641E+02  0.19286461960E+03  0.44089318688E+03  0.50308501568E+03  0.12500008851E+03 0.  0.
          5    1    3    3  502    0  0.95870619517E+02  0.10811890924E+03  0.19867212775E+03  0.24571035503E+03  0.47000000000E+01 0. -1.
         -5    1    3    3    0  502 -0.19150692875E+02  0.84745710357E+02  0.24222105913E+03  0.25737466065E+03  0.47000000000E+01 0. -1.
        -11    1    1    2    0    0 -0.24073954156E+02 -0.37151659594E+02  0.11725666461E+02  0.45796204354E+02  0.00000000000E+00 0.  1.
         11    1    1    2    0    0 -0.52645972485E+02 -0.15571296001E+03  0.26075125139E+03  0.30823585034E+03  0.00000000000E+00 0. -1.
<mgrwt>
<rscale>  0 0.23812668E+03</rscale>
<asrwt>0</asrwt>
<pdfrwt beam="1">  1        1 0.12080670E+00 0.24229678E+03</pdfrwt>
<pdfrwt beam="2">  1       -1 0.11057459E-01 0.24229678E+03</pdfrwt>
<totfact> 0.12362655E+03</totfact>
</mgrwt>
</event>
<event>
 7    1  0.5928109E-006  0.1577398E+03  0.7546771E-02  0.1198240E+00
         -2   -1    0    0    0  501 -0.00000000000E+00  0.00000000000E+00  0.95868859646E+02  0.95868859646E+02  0.00000000000E+00 0.  1.
          2   -1    0    0  501    0  0.00000000000E+00 -0.00000000000E+00 -0.27491178726E+03  0.27491178726E+03  0.00000000000E+00 0. -1.
         23    2    1    2    0    0 -0.44484442648E+02 -0.85402995309E+02 -0.17460557684E+03  0.23530609931E+03  0.12493724690E+03 0.  0.
          5    1    3    3  502    0 -0.16096233018E+02  0.14359627600E+02  0.94261604952E+01  0.24004793768E+02  0.47000000000E+01 0. -1.
         -5    1    3    3    0  502 -0.28388209629E+02 -0.99762622909E+02 -0.18403173733E+03  0.21130130554E+03  0.47000000000E+01 0. -1.
        -11    1    1    2    0    0  0.20711459317E+02 -0.18660922005E+02 -0.68309844425E+01  0.28702907615E+02  0.00000000000E+00 0.  1.
         11    1    1    2    0    0  0.23772983330E+02  0.10406391731E+03  0.23936336671E+01  0.10677163999E+03  0.00000000000E+00 0. -1.
<mgrwt>
<rscale>  0 0.15183160E+03</rscale>
<asrwt>0</asrwt>
<pdfrwt beam="2">  1        2 0.42294120E-01 0.15773983E+03</pdfrwt>
<pdfrwt beam="1">  1       -2 0.14749056E-01 0.15773983E+03</pdfrwt>
<totfact> 0.41052267E+03</totfact>
</mgrwt>
</event>
<event>
 7    1  0.5928109E-006  0.1840700E+03  0.7546771E-02  0.1168851E+00
          2   -1    0    0  501    0  0.00000000000E+00  0.00000000000E+00  0.20528062579E+03  0.20528062579E+03  0.00000000000E+00 0. -1.
         -2   -1    0    0    0  501 -0.00000000000E+00 -0.00000000000E+00 -0.14999221525E+03  0.14999221525E+03  0.00000000000E+00 0.  1.
         23    2    1    2    0    0  0.36571634407E+02  0.13008202163E+03  0.50535866359E+02  0.19088117440E+03  0.12499172835E+03 0.  0.
          5    1    3    3  502    0  0.15239937953E+02 -0.22898681414E+02 -0.11655782302E+01  0.27929444891E+02  0.47000000000E+01 0. -1.
         -5    1    3    3    0  502  0.21331696454E+02  0.15298070304E+03  0.51701444589E+02  0.16295172950E+03  0.47000000000E+01 0. -1.
        -11    1    1    2    0    0 -0.62005887570E+02 -0.12248257253E+03  0.86797522332E+01  0.13755743806E+03  0.00000000000E+00 0.  1.
         11    1    1    2    0    0  0.25434253163E+02 -0.75994490914E+01 -0.39272080538E+01  0.26834228581E+02  0.00000000000E+00 0. -1.
<mgrwt>
<rscale>  0 0.17892117E+03</rscale>
<asrwt>0</asrwt>
<pdfrwt beam="1">  1        2 0.31581635E-01 0.18406996E+03</pdfrwt>
<pdfrwt beam="2">  1       -2 0.23075725E-01 0.18406996E+03</pdfrwt>
<totfact> 0.26635848E+03</totfact>
</mgrwt>
</event>
<event>
 7    1  0.5928109E-006  0.1374789E+03  0.7546771E-02  0.1225965E+00
          1   -1    0    0  501    0  0.00000000000E+00  0.00000000000E+00  0.32735778636E+03  0.32735778636E+03  0.00000000000E+00 0. -1.
         -1   -1    0    0    0  501 -0.00000000000E+00 -0.00000000000E+00 -0.48189631521E+02  0.48189631521E+02  0.00000000000E+00 0.  1.
         23    2    1    2    0    0 -0.63340840704E+02 -0.35862276925E+02  0.14313164096E+03  0.19846187935E+03  0.11662883823E+03 0.  0.
          5    1    3    3  502    0 -0.50373179938E+02 -0.78075567262E+02  0.98972312976E+02  0.13583394346E+03  0.47000000000E+01 0. -1.
         -5    1    3    3    0  502 -0.12967660766E+02  0.42213290337E+02  0.44159327979E+02  0.62627935894E+02  0.47000000000E+01 0.  1.
        -11    1    1    2    0    0  0.21064494157E+02  0.51337900105E+02  0.32801332801E+02  0.64460998556E+02  0.00000000000E+00 0.  1.
         11    1    1    2    0    0  0.42276346547E+02 -0.15475623180E+02  0.10323518108E+03  0.11262453997E+03  0.00000000000E+00 0. -1.
<mgrwt>
<rscale>  0 0.13100990E+03</rscale>
<asrwt>0</asrwt>
<pdfrwt beam="1">  1        1 0.50362735E-01 0.13747891E+03</pdfrwt>
<pdfrwt beam="2">  1       -1 0.74137897E-02 0.13747891E+03</pdfrwt>
<totfact> 0.72333553E+03</totfact>
</mgrwt>
</event>
<event>
 7    1  0.5928109E-006  0.1456555E+03  0.7546771E-02  0.1215942E+00
         -2   -1    0    0    0  501 -0.00000000000E+00  0.00000000000E+00  0.15001469966E+03  0.15001469966E+03  0.00000000000E+00 0.  1.
          2   -1    0    0  501    0  0.00000000000E+00 -0.00000000000E+00 -0.12837343949E+03  0.12837343949E+03  0.00000000000E+00 0. -1.
         23    2    1    2    0    0 -0.46656965831E+02  0.58405968925E+02 -0.31974222253E+02  0.14912366075E+03  0.12500954219E+03 0.  0.
          5    1    3    3  502    0  0.53250800831E+01  0.31893812823E+02 -0.71415244052E+02  0.78535335088E+02  0.47000000000E+01 0.  1.
         -5    1    3    3    0  502 -0.51982045914E+02  0.26512156102E+02  0.39441021799E+02  0.70588325658E+02  0.47000000000E+01 0.  1.
        -11    1    1    2    0    0  0.55227497159E+02 -0.10879570811E+01  0.86503909940E+01  0.55911442097E+02  0.00000000000E+00 0. -1.
         11    1    1    2    0    0 -0.85705313276E+01 -0.57318011844E+02  0.44965091431E+02  0.73353036314E+02  0.00000000000E+00 0.  1.
<mgrwt>
<rscale>  0 0.13807538E+03</rscale>
<asrwt>0</asrwt>
<pdfrwt beam="2">  1        2 0.19749760E-01 0.14565547E+03</pdfrwt>
<pdfrwt beam="1">  1       -2 0.23079185E-01 0.14565547E+03</pdfrwt>
<totfact> 0.44311511E+03</totfact>
</mgrwt>
</event>
<event>
 7    1  0.5928109E-006  0.1534816E+03  0.7546771E-02  0.1205040E+00
         -2   -1    0    0    0  501 -0.00000000000E+00  0.00000000000E+00  0.21348316116E+02  0.21348316116E+02  0.00000000000E+00 0. -1.
          2   -1    0    0  501    0  0.00000000000E+00 -0.00000000000E+00 -0.10522207895E+04  0.10522207895E+04  0.00000000000E+00 0.  1.
         23    2    1    2    0    0 -0.66239146476E+02  0.59533610278E+02 -0.74753961651E+03  0.76313305897E+03  0.12499884863E+03 0.  0.
          5    1    3    3  502    0 -0.44677132936E+02 -0.11997164552E+02 -0.54874352414E+03  0.55071001757E+03  0.47000000000E+01 0.  1.
         -5    1    3    3    0  502 -0.21562013540E+02  0.71530774830E+02 -0.19879609237E+03  0.21242304140E+03  0.47000000000E+01 0.  1.
        -11    1    1    2    0    0  0.37250311673E+02  0.97729461106E+01 -0.38979465351E+02  0.54795026366E+02  0.00000000000E+00 0. -1.
         11    1    1    2    0    0  0.28988834803E+02 -0.69306556389E+02 -0.24435339148E+03  0.25564102024E+03  0.00000000000E+00 0.  1.
<mgrwt>
<rscale>  0 0.14634297E+03</rscale>
<asrwt>0</asrwt>
<pdfrwt beam="2">  1        2 0.16188013E+00 0.15348155E+03</pdfrwt>
<pdfrwt beam="1">  1       -2 0.32843562E-02 0.15348155E+03</pdfrwt>
<totfact> 0.87861605E+03</totfact>
</mgrwt>
</event>
<event>
 7    1  0.1974424E-005  0.5091119E+03  0.7546771E-02  0.1011917E+00
         -2   -1    0    0    0  501 -0.00000000000E+00  0.00000000000E+00  0.81454540479E+02  0.81454540479E+02  0.00000000000E+00 0.  1.
          2   -1    0    0  501    0  0.00000000000E+00 -0.00000000000E+00 -0.35144441594E+04  0.35144441594E+04  0.00000000000E+00 0. -1.
         23    2    1    2    0    0 -0.39482987277E+03 -0.29550487243E+03 -0.23190325980E+04  0.23742592832E+04  0.12641675327E+03 0.  0.
          5    1    3    3  502    0 -0.27358631947E+03 -0.18399711126E+03 -0.17913127689E+04  0.18214082291E+04  0.47000000000E+01 0. -1.
         -5    1    3    3    0  502 -0.12124355330E+03 -0.11150776118E+03 -0.52771982909E+03  0.55285105412E+03  0.47000000000E+01 0.  1.
        -11    1    1    2    0    0  0.10337606906E+03  0.46544871791E+02 -0.18886361347E+03  0.22027823596E+03  0.00000000000E+00 0. -1.
         11    1    1    2    0    0  0.29145380371E+03  0.24896000064E+03 -0.92509340747E+03  0.10013611807E+04  0.00000000000E+00 0.  1.
<mgrwt>
<rscale>  0 0.50719827E+03</rscale>
<asrwt>0</asrwt>
<pdfrwt beam="2">  1        2 0.54068368E+00 0.50911193E+03</pdfrwt>
<pdfrwt beam="1">  1       -2 0.12531469E-01 0.50911193E+03</pdfrwt>
<totfact> 0.42435195E+01</totfact>
</mgrwt>
</event>
<event>
 7    1  0.5928109E-006  0.2781204E+03  0.7546771E-02  0.1098643E+00
          1   -1    0    0  501    0  0.00000000000E+00  0.00000000000E+00  0.10579436728E+03  0.10579436728E+03  0.00000000000E+00 0. -1.
         -1   -1    0    0    0  501 -0.00000000000E+00 -0.00000000000E+00 -0.78110763181E+03  0.78110763181E+03  0.00000000000E+00 0.  1.
         23    2    1    2    0    0 -0.22894866935E+03  0.96474504372E+02 -0.19872405468E+03  0.34182192880E+03  0.12500463155E+03 0.  0.
          5    1    3    3  502    0 -0.13474512837E+03  0.66851714647E+02 -0.19028076025E+03  0.24259896762E+03  0.47000000000E+01 0.  1.
         -5    1    3    3    0  502 -0.94203540984E+02  0.29622789725E+02 -0.84432944349E+01  0.99222961184E+02  0.47000000000E+01 0.  1.
        -11    1    1    2    0    0  0.15612800410E+03 -0.66103388362E+02 -0.40289983994E+03  0.43711999799E+03  0.00000000000E+00 0.  1.
         11    1    1    2    0    0  0.72820665249E+02 -0.30371116010E+02 -0.73689369904E+02  0.10796007230E+03  0.00000000000E+00 0. -1.
<mgrwt>
<rscale>  0 0.27465819E+03</rscale>
<asrwt>0</asrwt>
<pdfrwt beam="1">  1        1 0.16276056E-01 0.27812044E+03</pdfrwt>
<pdfrwt beam="2">  1       -1 0.12017041E+00 0.27812044E+03</pdfrwt>
<totfact> 0.22113621E+02</totfact>
</mgrwt>
</event>
<event>
 7    1  0.5928109E-006  0.1302326E+03  0.7546771E-02  0.1241012E+00
         -1   -1    0    0    0  501 -0.00000000000E+00  0.00000000000E+00  0.19314078559E+02  0.19314078559E+02  0.00000000000E+00 0.  1.
          1   -1    0    0  501    0  0.00000000000E+00 -0.00000000000E+00 -0.81786114861E+03  0.81786114861E+03  0.00000000000E+00 0. -1.
         23    2    1    2    0    0 -0.36519637723E+02  0.15961232694E+01 -0.62007312681E+03  0.63360177405E+03  0.12499717568E+03 0.  0.
          5    1    3    3  502    0 -0.44761635561E+02  0.49530358745E+02 -0.20465858384E+03  0.21532321378E+03  0.47000000000E+01 0.  1.
         -5    1    3    3    0  502  0.82419978381E+01 -0.47934235476E+02 -0.41541454298E+03  0.41827856026E+03  0.47000000000E+01 0.  1.
        -11    1    1    2    0    0  0.44690495053E+02  0.20344057616E+02 -0.40566258925E+02  0.63692561508E+02  0.00000000000E+00 0.  1.
         11    1    1    2    0    0 -0.81708573300E+01 -0.21940180885E+02 -0.13790768431E+03  0.13988089162E+03  0.00000000000E+00 0. -1.
<mgrwt>
<rscale>  0 0.12127256E+03</rscale>
<asrwt>0</asrwt>
<pdfrwt beam="2">  1        1 0.12582477E+00 0.13023258E+03</pdfrwt>
<pdfrwt beam="1">  1       -1 0.29713973E-02 0.13023258E+03</pdfrwt>
<totfact> 0.81917250E+03</totfact>
</mgrwt>
</event>
<event>
 7    1  0.5928109E-006  0.1266993E+03  0.7546771E-02  0.1279546E+00
          1   -1    0    0  501    0  0.00000000000E+00  0.00000000000E+00  0.17301505950E+03  0.17301505950E+03  0.00000000000E+00 0. -1.
         -1   -1    0    0    0  501 -0.00000000000E+00 -0.00000000000E+00 -0.45086615590E+02  0.45086615590E+02  0.00000000000E+00 0.  1.
         23    2    1    2    0    0 -0.10935701766E+02 -0.17581903544E+02  0.89017977854E+02  0.15484483150E+03  0.12499603416E+03 0.  0.
          5    1    3    3  502    0 -0.17685039164E+02  0.50460948360E+02  0.59748830741E+02  0.80318619850E+02  0.47000000000E+01 0.  1.
         -5    1    3    3    0  502  0.67493373976E+01 -0.68042851904E+02  0.29269147112E+02  0.74526211652E+02  0.47000000000E+01 0.  1.
        -11    1    1    2    0    0  0.14972594154E+02 -0.68355546803E+01  0.34352152576E+02  0.38091649611E+02  0.00000000000E+00 0. -1.
         11    1    1    2    0    0 -0.40368923877E+01  0.24417458225E+02  0.45583134854E+01  0.25165193982E+02  0.00000000000E+00 0.  1.
<mgrwt>
<rscale>  0 0.10035732E+03</rscale>
<asrwt>0</asrwt>
<pdfrwt beam="1">  1        1 0.26617701E-01 0.12669933E+03</pdfrwt>
<pdfrwt beam="2">  1       -1 0.69364025E-02 0.12669933E+03</pdfrwt>
<totfact> 0.17495582E+04</totfact>
</mgrwt>
</event>
<event>
 7    1  0.5928109E-006  0.1494971E+03  0.7546771E-02  0.1210292E+00
         -1   -1    0    0    0  501 -0.00000000000E+00  0.00000000000E+00  0.13894256117E+02  0.13894256117E+02  0.00000000000E+00 0.  1.
          1   -1    0    0  501    0  0.00000000000E+00 -0.00000000000E+00 -0.18997231261E+04  0.18997231261E+04  0.00000000000E+00 0. -1.
         23    2    1    2    0    0 -0.46569441563E+02  0.67498905779E+02 -0.15290944217E+04  0.15363850817E+04  0.12499821559E+03 0.  0.
          5    1    3    3  502    0 -0.84728044971E+02  0.30923587656E+02 -0.11578599023E+04  0.11613770935E+04  0.47000000000E+01 0. -1.
         -5    1    3    3    0  502  0.38158603408E+02  0.36575318124E+02 -0.37123451934E+03  0.37500798826E+03  0.47000000000E+01 0. -1.
        -11    1    1    2    0    0 -0.31674556511E+01  0.18144205004E+02 -0.25148436842E+02  0.31171923683E+02  0.00000000000E+00 0.  1.
         11    1    1    2    0    0  0.49736897214E+02 -0.85643110784E+02 -0.33158601145E+03  0.34606037676E+03  0.00000000000E+00 0. -1.
<mgrwt>
<rscale>  0 0.14228122E+03</rscale>
<asrwt>0</asrwt>
<pdfrwt beam="2">  1        1 0.29226506E+00 0.14949705E+03</pdfrwt>
<pdfrwt beam="1">  1       -1 0.21375781E-02 0.14949705E+03</pdfrwt>
<totfact> 0.24359248E+03</totfact>
</mgrwt>
</event>
<event>
 7    1  0.5928109E-006  0.1232295E+03  0.7546771E-02  0.1241293E+00
          1   -1    0    0  501    0  0.00000000000E+00  0.00000000000E+00  0.25353320546E+03  0.25353320546E+03  0.00000000000E+00 0. -1.
         -1   -1    0    0    0  501 -0.00000000000E+00 -0.00000000000E+00 -0.71405023189E+02  0.71405023189E+02  0.00000000000E+00 0.  1.
         23    2    1    2    0    0  0.35239661452E+02 -0.12388267250E+02  0.16914919390E+03  0.20927723697E+03  0.11743172150E+03 0.  0.
          5    1    3    3  502    0  0.66092909841E+02 -0.11763436168E+02  0.16448014908E+03  0.17771454809E+03  0.47000000000E+01 0. -1.
         -5    1    3    3    0  502 -0.30853248389E+02 -0.62483108206E+00  0.46690448193E+01  0.31562688884E+02  0.47000000000E+01 0.  1.
        -11    1    1    2    0    0 -0.15813307348E+02 -0.41990170138E+02 -0.20042158347E+02  0.49141867981E+02  0.00000000000E+00 0.  1.
         11    1    1    2    0    0 -0.19426354104E+02  0.54378437388E+02  0.33021146722E+02  0.66519123697E+02  0.00000000000E+00 0. -1.
<mgrwt>
<rscale>  0 0.12110019E+03</rscale>
<asrwt>0</asrwt>
<pdfrwt beam="1">  1        1 0.39005108E-01 0.12322951E+03</pdfrwt>
<pdfrwt beam="2">  1       -1 0.10985388E-01 0.12322951E+03</pdfrwt>
<totfact> 0.54254300E+03</totfact>
</mgrwt>
</event>
<event>
 7    1  0.5928109E-006  0.1751842E+03  0.7546771E-02  0.1178694E+00
         -1   -1    0    0    0  501 -0.00000000000E+00  0.00000000000E+00  0.33397498668E+02  0.33397498668E+02  0.00000000000E+00 0.  1.
          1   -1    0    0  501    0  0.00000000000E+00 -0.00000000000E+00 -0.14468655450E+04  0.14468655450E+04  0.00000000000E+00 0. -1.
         23    2    1    2    0    0 -0.56456228070E+02  0.10694499135E+03 -0.12269461983E+04  0.12393895567E+04  0.12674763509E+03 0.  0.
          5    1    3    3  502    0 -0.91806715801E+02  0.10301434102E+03 -0.90902405942E+03  0.91944943206E+03  0.47000000000E+01 0. -1.
         -5    1    3    3    0  502  0.35350487731E+02  0.39306503348E+01 -0.31792213887E+03  0.31994012467E+03  0.47000000000E+01 0.  1.
        -11    1    1    2    0    0  0.79033887459E+02 -0.79287337964E+02 -0.11260186693E+03  0.15878292655E+03  0.00000000000E+00 0.  1.
         11    1    1    2    0    0 -0.22577659389E+02 -0.27657653390E+02 -0.73919981108E+02  0.82090560368E+02  0.00000000000E+00 0. -1.
<mgrwt>
<rscale>  0 0.16919070E+03</rscale>
<asrwt>0</asrwt>
<pdfrwt beam="2">  1        1 0.22259471E+00 0.17518419E+03</pdfrwt>
<pdfrwt beam="1">  1       -1 0.51380766E-02 0.17518419E+03</pdfrwt>
<totfact> 0.13169697E+03</totfact>
</mgrwt>
</event>
<event>
 7    1  0.5928109E-006  0.2345177E+03  0.7546771E-02  0.1126345E+00
          2   -1    0    0  501    0  0.00000000000E+00  0.00000000000E+00  0.22513292167E+04  0.22513292167E+04  0.00000000000E+00 0. -1.
         -2   -1    0    0    0  501 -0.00000000000E+00 -0.00000000000E+00 -0.24655944191E+02  0.24655944191E+02  0.00000000000E+00 0.  1.
         23    2    1    2    0    0  0.78864417228E+02  0.18208857470E+03  0.14621594281E+04  0.14808473092E+04  0.12499085766E+03 0.  0.
          5    1    3    3  502    0  0.31092091603E+02 -0.10199904910E+02  0.13599192042E+03  0.13995230844E+03  0.47000000000E+01 0. -1.
         -5    1    3    3    0  502  0.47772325625E+02  0.19228847961E+03  0.13261675077E+04  0.13408950007E+04  0.47000000000E+01 0. -1.
        -11    1    1    2    0    0  0.15303977989E+02 -0.72276402999E+02  0.25514340121E+03  0.26562425596E+03  0.00000000000E+00 0. -1.
         11    1    1    2    0    0 -0.94168395217E+02 -0.10981217170E+03  0.50937044323E+03  0.52951359581E+03  0.00000000000E+00 0.  1.
<mgrwt>
<rscale>  0 0.23041882E+03</rscale>
<asrwt>0</asrwt>
<pdfrwt beam="1">  1        2 0.34635818E+00 0.23451772E+03</pdfrwt>
<pdfrwt beam="2">  1       -2 0.37932240E-02 0.23451772E+03</pdfrwt>
<totfact> 0.16333062E+03</totfact>
</mgrwt>
</event>
<event>
 7    1  0.5928109E-006  0.1284986E+03  0.7546771E-02  0.1246218E+00
          1   -1    0    0  501    0  0.00000000000E+00  0.00000000000E+00  0.59272664215E+03  0.59272664215E+03  0.00000000000E+00 0. -1.
         -1   -1    0    0    0  501 -0.00000000000E+00 -0.00000000000E+00 -0.25770288878E+02  0.25770288878E+02  0.00000000000E+00 0.  1.
         23    2    1    2    0    0  0.13408657102E+02  0.26490228955E+02  0.45977320149E+03  0.47739217346E+03  0.12502146278E+03 0.  0.
          5    1    3    3  502    0 -0.19335153456E+02 -0.43495600241E+02  0.12633727533E+03  0.13508853592E+03  0.47000000000E+01 0. -1.
         -5    1    3    3    0  502  0.32743810558E+02  0.69985829195E+02  0.33343592615E+03  0.34230363753E+03  0.47000000000E+01 0. -1.
        -11    1    1    2    0    0 -0.15423997796E+02 -0.58076644899E+02  0.71982852649E+02  0.93767411536E+02  0.00000000000E+00 0.  1.
         11    1    1    2    0    0  0.20153406939E+01  0.31586415944E+02  0.35200299133E+02  0.47337346032E+02  0.00000000000E+00 0. -1.
<mgrwt>
<rscale>  0 0.11812799E+03</rscale>
<asrwt>0</asrwt>
<pdfrwt beam="1">  1        1 0.91188704E-01 0.12849860E+03</pdfrwt>
<pdfrwt beam="2">  1       -1 0.39646603E-02 0.12849860E+03</pdfrwt>
<totfact> 0.85084881E+03</totfact>
</mgrwt>
</event>
<event>
 7    1  0.5928109E-006  0.1619342E+03  0.7546771E-02  0.1193317E+00
         -2   -1    0    0    0  501 -0.00000000000E+00  0.00000000000E+00  0.73447022747E+02  0.73447022747E+02  0.00000000000E+00 0. -1.
          2   -1    0    0  501    0  0.00000000000E+00 -0.00000000000E+00 -0.35267598199E+03  0.35267598199E+03  0.00000000000E+00 0.  1.
         23    2    1    2    0    0  0.10147260288E+03 -0.17384375376E+02 -0.22353439798E+03  0.27602594881E+03  0.12499516666E+03 0.  0.
          5    1    3    3  502    0  0.86051683774E+02 -0.36422925181E+02 -0.61230238842E+02  0.11181571405E+03  0.47000000000E+01 0.  1.
         -5    1    3    3    0  502  0.15420919109E+02  0.19038549804E+02 -0.16230415914E+03  0.16421023476E+03  0.47000000000E+01 0.  1.
        -11    1    1    2    0    0 -0.82339807901E+02 -0.10684188243E+02 -0.74252906885E+02  0.11138891338E+03  0.00000000000E+00 0.  1.
         11    1    1    2    0    0 -0.19132794982E+02  0.28068563619E+02  0.18558345624E+02  0.38708142551E+02  0.00000000000E+00 0. -1.
<mgrwt>
<rscale>  0 0.15597515E+03</rscale>
<asrwt>0</asrwt>
<pdfrwt beam="2">  1        2 0.54257842E-01 0.16193424E+03</pdfrwt>
<pdfrwt beam="1">  1       -2 0.11299542E-01 0.16193424E+03</pdfrwt>
<totfact> 0.48466954E+03</totfact>
</mgrwt>
</event>
<event>
 7    1  0.5928109E-006  0.1843669E+03  0.7546771E-02  0.1166944E+00
          1   -1    0    0  501    0  0.00000000000E+00  0.00000000000E+00  0.98203743825E+02  0.98203743825E+02  0.00000000000E+00 0. -1.
         -1   -1    0    0    0  501 -0.00000000000E+00 -0.00000000000E+00 -0.32953864625E+03  0.32953864625E+03  0.00000000000E+00 0.  1.
         23    2    1    2    0    0 -0.11932976775E+03  0.64218834492E+02 -0.85995709077E+02  0.20343649607E+03  0.12500997472E+03 0.  0.
          5    1    3    3  502    0 -0.75666483253E+02  0.40426152481E+02  0.18258044217E+02  0.87835850716E+02  0.47000000000E+01 0. -1.
         -5    1    3    3    0  502 -0.43663284493E+02  0.23792682011E+02 -0.10425375329E+03  0.11560064535E+03  0.47000000000E+01 0. -1.
        -11    1    1    2    0    0  0.58522266624E+02 -0.19124869767E+02 -0.13438071373E+03  0.14781337070E+03  0.00000000000E+00 0.  1.
         11    1    1    2    0    0  0.60807501122E+02 -0.45093964725E+02 -0.10958479624E+02  0.76492523314E+02  0.00000000000E+00 0. -1.
<mgrwt>
<rscale>  0 0.18089051E+03</rscale>
<asrwt>0</asrwt>
<pdfrwt beam="1">  1        1 0.15108268E-01 0.18436688E+03</pdfrwt>
<pdfrwt beam="2">  1       -1 0.50698254E-01 0.18436688E+03</pdfrwt>
<totfact> 0.14613710E+03</totfact>
</mgrwt>
</event>
<event>
 7    1  0.5928109E-006  0.1583910E+03  0.7546771E-02  0.1198580E+00
         -2   -1    0    0    0  501 -0.00000000000E+00  0.00000000000E+00  0.17115343706E+02  0.17115343706E+02  0.00000000000E+00 0.  1.
          2   -1    0    0  501    0  0.00000000000E+00 -0.00000000000E+00 -0.12403536427E+04  0.12403536427E+04  0.00000000000E+00 0. -1.
         23    2    1    2    0    0  0.34917257346E+02 -0.90780760510E+02 -0.69190185563E+03  0.70979989153E+03  0.12500938705E+03 0.  0.
          5    1    3    3  502    0  0.22981891587E+02 -0.20670987683E+01 -0.17178233721E+02  0.29148275283E+02  0.47000000000E+01 0. -1.
         -5    1    3    3    0  502  0.11935365759E+02 -0.88713661741E+02 -0.67472362191E+03  0.68065161624E+03  0.47000000000E+01 0. -1.
        -11    1    1    2    0    0 -0.61144397807E+02  0.44549810939E+02 -0.37467494539E+03  0.38223636371E+03  0.00000000000E+00 0. -1.
         11    1    1    2    0    0  0.26227140462E+02  0.46230949571E+02 -0.15666149800E+03  0.16543273119E+03  0.00000000000E+00 0.  1.
<mgrwt>
<rscale>  0 0.15155069E+03</rscale>
<asrwt>0</asrwt>
<pdfrwt beam="2">  1        2 0.19082362E+00 0.15839100E+03</pdfrwt>
<pdfrwt beam="1">  1       -2 0.26331300E-02 0.15839100E+03</pdfrwt>
<totfact> 0.95319761E+03</totfact>
</mgrwt>
</event>
<event>
 7    1  0.5928109E-006  0.1741716E+03  0.7546771E-02  0.1179839E+00
         -2   -1    0    0    0  501 -0.00000000000E+00  0.00000000000E+00  0.18040409217E+03  0.18040409217E+03  0.00000000000E+00 0.  1.
          2   -1    0    0  501    0  0.00000000000E+00 -0.00000000000E+00 -0.29858886431E+03  0.29858886431E+03  0.00000000000E+00 0. -1.
         23    2    1    2    0    0  0.70423668360E+02 -0.98747922606E+02 -0.23177675927E+03  0.28992447668E+03  0.12500036303E+03 0.  0.
          5    1    3    3  502    0  0.90381773375E+02 -0.11301873738E+03 -0.17009095595E+03  0.22337216311E+03  0.47000000000E+01 0.  1.
         -5    1    3    3    0  502 -0.19958105015E+02  0.14270814772E+02 -0.61685803329E+02  0.66552313576E+02  0.47000000000E+01 0.  1.
        -11    1    1    2    0    0 -0.50316706301E+02  0.77243871073E+02  0.12682629198E+03  0.15679060842E+03  0.00000000000E+00 0.  1.
         11    1    1    2    0    0 -0.20106962059E+02  0.21504051533E+02 -0.13234304849E+02  0.32277871374E+02  0.00000000000E+00 0. -1.
<mgrwt>
<rscale>  0 0.16810432E+03</rscale>
<asrwt>0</asrwt>
<pdfrwt beam="2">  1        2 0.45936748E-01 0.17417157E+03</pdfrwt>
<pdfrwt beam="1">  1       -2 0.27754476E-01 0.17417157E+03</pdfrwt>
<totfact> 0.12837806E+03</totfact>
</mgrwt>
</event>
<event>
 7    1  0.5928109E-006  0.1566386E+03  0.7546771E-02  0.1200891E+00
          4   -1    0    0  501    0  0.00000000000E+00  0.00000000000E+00  0.97684130893E+03  0.97684130893E+03  0.00000000000E+00 0. -1.
         -4   -1    0    0    0  501 -0.00000000000E+00 -0.00000000000E+00 -0.22791614516E+02  0.22791614516E+02  0.00000000000E+00 0.  1.
         23    2    1    2    0    0  0.10575046545E+02  0.93794181222E+02  0.65258326611E+03  0.67111889021E+03  0.12500586207E+03 0.  0.
          5    1    3    3  502    0  0.45382885764E+02  0.10817124390E+02  0.91177419598E+02  0.10252818317E+03  0.47000000000E+01 0.  1.
         -5    1    3    3    0  502 -0.34807839219E+02  0.82977056832E+02  0.56140584651E+03  0.56859070704E+03  0.47000000000E+01 0.  1.
        -11    1    1    2    0    0 -0.14443502400E+01 -0.65752280661E+02  0.28918255941E+03  0.29656702654E+03  0.00000000000E+00 0. -1.
         11    1    1    2    0    0 -0.91306963054E+01 -0.28041900561E+02  0.12283868892E+02  0.31947006700E+02  0.00000000000E+00 0.  1.
<mgrwt>
<rscale>  0 0.14966010E+03</rscale>
<asrwt>0</asrwt>
<pdfrwt beam="1">  1        4 0.15028325E+00 0.15663858E+03</pdfrwt>
<pdfrwt beam="2">  1       -4 0.35064030E-02 0.15663858E+03</pdfrwt>
<totfact> 0.22878601E+02</totfact>
</mgrwt>
</event>
<event>
 7    1  0.5928109E-006  0.1793302E+03  0.7546771E-02  0.1174153E+00
          2   -1    0    0  501    0  0.00000000000E+00  0.00000000000E+00  0.10151817130E+04  0.10151817130E+04  0.00000000000E+00 0. -1.
         -2   -1    0    0    0  501 -0.00000000000E+00 -0.00000000000E+00 -0.39498866015E+02  0.39498866015E+02  0.00000000000E+00 0.  1.
         23    2    1    2    0    0  0.11867277454E+03  0.49516557119E+02  0.79518926286E+03  0.81515966510E+03  0.12499679589E+03 0.  0.
          5    1    3    3  502    0  0.62570073045E+02  0.71871015522E+02  0.66203553749E+03  0.66887487605E+03  0.47000000000E+01 0.  1.
         -5    1    3    3    0  502  0.56102701493E+02 -0.22354458404E+02  0.13315372537E+03  0.14628478904E+03  0.47000000000E+01 0.  1.
        -11    1    1    2    0    0 -0.14996113265E+02 -0.51580901643E+02  0.58984561688E+02  0.79778764999E+02  0.00000000000E+00 0.  1.
         11    1    1    2    0    0 -0.10367666127E+03  0.20643445241E+01  0.12150902247E+03  0.15974214895E+03  0.00000000000E+00 0. -1.
<mgrwt>
<rscale>  0 0.17359201E+03</rscale>
<asrwt>0</asrwt>
<pdfrwt beam="1">  1        2 0.15618178E+00 0.17933019E+03</pdfrwt>
<pdfrwt beam="2">  1       -2 0.60767494E-02 0.17933019E+03</pdfrwt>
<totfact> 0.36892558E+03</totfact>
</mgrwt>
</event>
<event>
 7    1  0.5928109E-006  0.2649112E+03  0.7546771E-02  0.1106278E+00
         -1   -1    0    0    0  501 -0.00000000000E+00  0.00000000000E+00  0.53211125777E+02  0.53211125777E+02  0.00000000000E+00 0.  1.
          1   -1    0    0  501    0  0.00000000000E+00 -0.00000000000E+00 -0.13402631890E+04  0.13402631890E+04  0.00000000000E+00 0. -1.
         23    2    1    2    0    0  0.18132481307E+03  0.14720498821E+03 -0.83802901554E+03  0.87890305045E+03  0.12501977768E+03 0.  0.
          5    1    3    3  502    0 -0.35692063310E+01  0.44449294012E+02 -0.24949042667E+03  0.25348775507E+03  0.47000000000E+01 0. -1.
         -5    1    3    3    0  502  0.18489401940E+03  0.10275569420E+03 -0.58853858887E+03  0.62541529538E+03  0.47000000000E+01 0. -1.
        -11    1    1    2    0    0 -0.16556284096E+03 -0.15928032356E+03 -0.39418171633E+03  0.45624609726E+03  0.00000000000E+00 0.  1.
         11    1    1    2    0    0 -0.15761972115E+02  0.12075335344E+02 -0.54841331355E+02  0.58325167067E+02  0.00000000000E+00 0. -1.
<mgrwt>
<rscale>  0 0.26144607E+03</rscale>
<asrwt>0</asrwt>
<pdfrwt beam="2">  1        1 0.20619432E+00 0.26491119E+03</pdfrwt>
<pdfrwt beam="1">  1       -1 0.81863278E-02 0.26491119E+03</pdfrwt>
<totfact> 0.76283719E+02</totfact>
</mgrwt>
</event>
<event>
 7    1  0.5928109E-006  0.1278280E+03  0.7546771E-02  0.1245656E+00
         -2   -1    0    0    0  501 -0.00000000000E+00  0.00000000000E+00  0.36786772609E+02  0.36786772609E+02  0.00000000000E+00 0.  1.
          2   -1    0    0  501    0  0.00000000000E+00 -0.00000000000E+00 -0.34013050047E+03  0.34013050047E+03  0.00000000000E+00 0. -1.
         23    2    1    2    0    0 -0.15884949161E+02  0.21498191035E+02 -0.19653241839E+03  0.23444611920E+03  0.12500194999E+03 0.  0.
          5    1    3    3  502    0 -0.38614509625E+02  0.48165708233E+01 -0.35484109667E+01  0.39356840936E+02  0.47000000000E+01 0.  1.
         -5    1    3    3    0  502  0.22729560465E+02  0.16681620212E+02 -0.19298400742E+03  0.19508927826E+03  0.47000000000E+01 0.  1.
        -11    1    1    2    0    0 -0.28245331389E+02  0.80844335580E+01 -0.74995522140E+02  0.80544926298E+02  0.00000000000E+00 0. -1.
         11    1    1    2    0    0  0.44130280549E+02 -0.29582624593E+02 -0.31815787332E+02  0.61926227584E+02  0.00000000000E+00 0.  1.
<mgrwt>
<rscale>  0 0.11846180E+03</rscale>
<asrwt>0</asrwt>
<pdfrwt beam="2">  1        2 0.52327771E-01 0.12782798E+03</pdfrwt>
<pdfrwt beam="1">  1       -2 0.56595033E-02 0.12782798E+03</pdfrwt>
<totfact> 0.14459565E+04</totfact>
</mgrwt>
</event>
<event>
 7    1  0.5928109E-006  0.1335689E+03  0.7546771E-02  0.1233906E+00
         -1   -1    0    0    0  501 -0.00000000000E+00  0.00000000000E+00  0.36955471024E+03  0.36955471024E+03  0.00000000000E+00 0.  1.
          1   -1    0    0  501    0  0.00000000000E+00 -0.00000000000E+00 -0.38809932692E+02  0.38809932692E+02  0.00000000000E+00 0. -1.
         23    2    1    2    0    0 -0.31698513333E+02  0.34801384449E+02  0.16631567955E+03  0.21331091776E+03  0.12499884104E+03 0.  0.
          5    1    3    3  502    0 -0.56966892236E+01 -0.35389970875E+02  0.64454654562E+01  0.36722422736E+02  0.47000000000E+01 0.  1.
         -5    1    3    3    0  502 -0.26001824109E+02  0.70191355323E+02  0.15987021409E+03  0.17658849502E+03  0.47000000000E+01 0.  1.
        -11    1    1    2    0    0  0.55955998034E+02  0.11773926732E+01  0.12265518600E+03  0.13482119501E+03  0.00000000000E+00 0.  1.
         11    1    1    2    0    0 -0.24257484701E+02 -0.35978777122E+02  0.41773911991E+02  0.60232530166E+02  0.00000000000E+00 0. -1.
<mgrwt>
<rscale>  0 0.12574698E+03</rscale>
<asrwt>0</asrwt>
<pdfrwt beam="2">  1        1 0.59707591E-02 0.13356887E+03</pdfrwt>
<pdfrwt beam="1">  1       -1 0.56854568E-01 0.13356887E+03</pdfrwt>
<totfact> 0.40152377E+03</totfact>
</mgrwt>
</event>
<event>
 7    1  0.5928109E-006  0.1303100E+03  0.7546771E-02  0.1240364E+00
          3   -1    0    0  501    0  0.00000000000E+00  0.00000000000E+00  0.29654322364E+03  0.29654322364E+03  0.00000000000E+00 0. -1.
         -3   -1    0    0    0  501 -0.00000000000E+00 -0.00000000000E+00 -0.49195367971E+02  0.49195367971E+02  0.00000000000E+00 0.  1.
         23    2    1    2    0    0 -0.20030805773E+02 -0.30901543047E+02  0.19268239333E+03  0.23260957098E+03  0.12499827707E+03 0.  0.
          5    1    3    3  502    0 -0.51651921771E+02  0.28180613261E+02  0.61594099392E+02  0.85311142686E+02  0.47000000000E+01 0.  1.
         -5    1    3    3    0  502  0.31621115998E+02 -0.59082156308E+02  0.13108829393E+03  0.14729842829E+03  0.47000000000E+01 0.  1.
        -11    1    1    2    0    0 -0.19071520511E+01  0.49169211202E+02  0.66076186415E+02  0.82385138042E+02  0.00000000000E+00 0. -1.
         11    1    1    2    0    0  0.21937957824E+02 -0.18267668154E+02 -0.11410724068E+02  0.30743882595E+02  0.00000000000E+00 0.  1.
<mgrwt>
<rscale>  0 0.12167218E+03</rscale>
<asrwt>0</asrwt>
<pdfrwt beam="1">  1        3 0.45622033E-01 0.13031004E+03</pdfrwt>
<pdfrwt beam="2">  1       -3 0.75685184E-02 0.13031004E+03</pdfrwt>
<totfact> 0.12817320E+03</totfact>
</mgrwt>
</event>
<event>
 7    1  0.5928109E-006  0.1406176E+03  0.7546771E-02  0.1242555E+00
         -2   -1    0    0    0  501 -0.00000000000E+00  0.00000000000E+00  0.30092878692E+03  0.30092878692E+03  0.00000000000E+00 0.  1.
          2   -1    0    0  501    0  0.00000000000E+00 -0.00000000000E+00 -0.40891959472E+02  0.40891959472E+02  0.00000000000E+00 0. -1.
         23    2    1    2    0    0 -0.35286662660E+02 -0.50126419787E+02  0.12998305576E+03  0.19149128036E+03  0.12655239685E+03 0.  0.
          5    1    3    3  502    0 -0.75846050221E+02 -0.35281457194E+02  0.42797117628E+02  0.94080220201E+02  0.47000000000E+01 0. -1.
         -5    1    3    3    0  502  0.40559387561E+02 -0.14844962593E+02  0.87185938133E+02  0.97411060162E+02  0.47000000000E+01 0.  1.
        -11    1    1    2    0    0  0.27670313269E+02  0.33583041049E+01  0.43791532154E+02  0.51909755646E+02  0.00000000000E+00 0. -1.
         11    1    1    2    0    0  0.76163493913E+01  0.46768115682E+02  0.86262239535E+02  0.98419710384E+02  0.00000000000E+00 0.  1.
<mgrwt>
<rscale>  0 0.12032913E+03</rscale>
<asrwt>0</asrwt>
<pdfrwt beam="2">  1        2 0.62910709E-02 0.14061762E+03</pdfrwt>
<pdfrwt beam="1">  1       -2 0.46296735E-01 0.14061762E+03</pdfrwt>
<totfact> 0.49487396E+03</totfact>
</mgrwt>
</event>
<event>
 7    1  0.5928109E-006  0.1251755E+03  0.7546771E-02  0.1255776E+00
          4   -1    0    0  501    0  0.00000000000E+00  0.00000000000E+00  0.94731975043E+02  0.94731975043E+02  0.00000000000E+00 0. -1.
         -4   -1    0    0    0  501 -0.00000000000E+00 -0.00000000000E+00 -0.17098762850E+03  0.17098762850E+03  0.00000000000E+00 0.  1.
         23    2    1    2    0    0 -0.56276727395E+01  0.39370548804E+01  0.32653802555E+02  0.12936451339E+03  0.12498694093E+03 0.  0.
          5    1    3    3  502    0  0.25722402488E+02 -0.29546382199E+02  0.62878348665E+02  0.74232118531E+02  0.47000000000E+01 0.  1.
         -5    1    3    3    0  502 -0.31350075228E+02  0.33483437080E+02 -0.30224546110E+02  0.55132394860E+02  0.47000000000E+01 0.  1.
        -11    1    1    2    0    0  0.10556531259E+02 -0.18827668633E+02 -0.11681344682E+03  0.11879100478E+03  0.00000000000E+00 0.  1.
         11    1    1    2    0    0 -0.49288585198E+01  0.14890613753E+02  0.79039908096E+01  0.17564085372E+02  0.00000000000E+00 0. -1.
<mgrwt>
<rscale>  0 0.11262972E+03</rscale>
<asrwt>0</asrwt>
<pdfrwt beam="1">  1        4 0.14574150E-01 0.12517550E+03</pdfrwt>
<pdfrwt beam="2">  1       -4 0.26305789E-01 0.12517550E+03</pdfrwt>
<totfact> 0.87731326E+02</totfact>
</mgrwt>
</event>
<event>
 7    1  0.5928109E-006  0.2866528E+03  0.7546771E-02  0.1093835E+00
         -2   -1    0    0    0  501 -0.00000000000E+00  0.00000000000E+00  0.14705082334E+03  0.14705082334E+03  0.00000000000E+00 0.  1.
          2   -1    0    0  501    0  0.00000000000E+00 -0.00000000000E+00 -0.53453400541E+03  0.53453400541E+03  0.00000000000E+00 0. -1.
         23    2    1    2    0    0 -0.25358719116E+03 -0.47313657134E+02 -0.20542245532E+03  0.35265875662E+03  0.12499907119E+03 0.  0.
          5    1    3    3  502    0 -0.57167461002E+02 -0.39353932816E+02 -0.11906048665E+03  0.13789249475E+03  0.47000000000E+01 0.  1.
         -5    1    3    3    0  502 -0.19641973016E+03 -0.79597243182E+01 -0.86361968664E+02  0.21476626187E+03  0.47000000000E+01 0.  1.
        -11    1    1    2    0    0  0.10197652643E+03 -0.23224808866E+02 -0.90360272610E+02  0.13821571024E+03  0.00000000000E+00 0.  1.
         11    1    1    2    0    0  0.15161066473E+03  0.70538466000E+02 -0.91700454136E+02  0.19071036189E+03  0.00000000000E+00 0. -1.
<mgrwt>
<rscale>  0 0.28342179E+03</rscale>
<asrwt>0</asrwt>
<pdfrwt beam="2">  1        2 0.82236001E-01 0.28665278E+03</pdfrwt>
<pdfrwt beam="1">  1       -2 0.22623204E-01 0.28665278E+03</pdfrwt>
<totfact> 0.98052471E+02</totfact>
</mgrwt>
</event>
<event>
 7    1  0.5928109E-006  0.2416669E+03  0.7546771E-02  0.1121480E+00
          1   -1    0    0  501    0  0.00000000000E+00  0.00000000000E+00  0.13612037245E+04  0.13612037245E+04  0.00000000000E+00 0. -1.
         -1   -1    0    0    0  501 -0.00000000000E+00 -0.00000000000E+00 -0.40332098543E+02  0.40332098543E+02  0.00000000000E+00 0.  1.
         23    2    1    2    0    0 -0.18339798124E+03  0.95624657594E+02  0.62580368535E+03  0.67084507825E+03  0.12499588697E+03 0.  0.
          5    1    3    3  502    0 -0.17531004123E+03  0.44684697027E+02  0.55022386988E+03  0.57922252174E+03  0.47000000000E+01 0. -1.
         -5    1    3    3    0  502 -0.80879400113E+01  0.50939960567E+02  0.75579815466E+02  0.91622556514E+02  0.47000000000E+01 0. -1.
        -11    1    1    2    0    0  0.24390387445E+02  0.13996413691E+02  0.50397992079E+02  0.57712634678E+02  0.00000000000E+00 0.  1.
         11    1    1    2    0    0  0.15900759379E+03 -0.10962107128E+03  0.64466994857E+03  0.67297811015E+03  0.00000000000E+00 0. -1.
<mgrwt>
<rscale>  0 0.23748412E+03</rscale>
<asrwt>0</asrwt>
<pdfrwt beam="1">  1        1 0.20941592E+00 0.24166685E+03</pdfrwt>
<pdfrwt beam="2">  1       -1 0.62049393E-02 0.24166685E+03</pdfrwt>
<totfact> 0.11279590E+03</totfact>
</mgrwt>
</event>
<event>
 7    1  0.5928109E-006  0.1352646E+03  0.7546771E-02  0.1231567E+00
         -2   -1    0    0    0  501 -0.00000000000E+00  0.00000000000E+00  0.21899808693E+02  0.21899808693E+02  0.00000000000E+00 0. -1.
          2   -1    0    0  501    0  0.00000000000E+00 -0.00000000000E+00 -0.85962607524E+03  0.85962607524E+03  0.00000000000E+00 0.  1.
         23    2    1    2    0    0  0.50728388353E+02  0.98876764102E+01 -0.66692235455E+03  0.68050124647E+03  0.12500153567E+03 0.  0.
          5    1    3    3  502    0  0.43647902329E+02  0.58908865074E+02 -0.24853760833E+03  0.25916872211E+03  0.47000000000E+01 0.  1.
         -5    1    3    3    0  502  0.70804860237E+01 -0.49021188664E+02 -0.41838474622E+03  0.42133252437E+03  0.47000000000E+01 0.  1.
        -11    1    1    2    0    0 -0.52713490985E+02  0.23124703680E+02 -0.51555250410E+02  0.77274885293E+02  0.00000000000E+00 0. -1.
         11    1    1    2    0    0  0.19851026326E+01 -0.33012380090E+02 -0.11924866159E+03  0.12374975217E+03  0.00000000000E+00 0.  1.
<mgrwt>
<rscale>  0 0.12726797E+03</rscale>
<asrwt>0</asrwt>
<pdfrwt beam="2">  1        2 0.13225017E+00 0.13526463E+03</pdfrwt>
<pdfrwt beam="1">  1       -2 0.33692013E-02 0.13526463E+03</pdfrwt>
<totfact> 0.11032441E+04</totfact>
</mgrwt>
</event>
<event>
 7    1  0.5928109E-006  0.1256108E+03  0.7546771E-02  0.1249097E+00
         -2   -1    0    0    0  501 -0.00000000000E+00  0.00000000000E+00  0.38846238740E+02  0.38846238740E+02  0.00000000000E+00 0.  1.
          2   -1    0    0  501    0  0.00000000000E+00 -0.00000000000E+00 -0.38289562453E+03  0.38289562453E+03  0.00000000000E+00 0. -1.
         23    2    1    2    0    0  0.52274945188E+01 -0.11199368225E+02 -0.28591198530E+03  0.31228790956E+03  0.12500129027E+03 0.  0.
          5    1    3    3  502    0  0.49150580402E+02 -0.15013200055E+02 -0.48665055706E+02  0.70933443287E+02  0.47000000000E+01 0. -1.
         -5    1    3    3    0  502 -0.43923085883E+02  0.38138318304E+01 -0.23724692959E+03  0.24135446627E+03  0.47000000000E+01 0. -1.
        -11    1    1    2    0    0 -0.22636543387E+02 -0.96243320330E+01  0.16776913494E+02  0.29774245414E+02  0.00000000000E+00 0.  1.
         11    1    1    2    0    0  0.17409048868E+02  0.20823700258E+02 -0.74914313987E+02  0.79679708301E+02  0.00000000000E+00 0. -1.
<mgrwt>
<rscale>  0 0.11643509E+03</rscale>
<asrwt>0</asrwt>
<pdfrwt beam="2">  1        2 0.58907018E-01 0.12561081E+03</pdfrwt>
<pdfrwt beam="1">  1       -2 0.59763445E-02 0.12561081E+03</pdfrwt>
<totfact> 0.11727834E+04</totfact>
</mgrwt>
</event>
<event>
 7    1  0.5928109E-006  0.1346877E+03  0.7546771E-02  0.1233507E+00
          3   -1    0    0  501    0  0.00000000000E+00  0.00000000000E+00  0.19818794632E+03  0.19818794632E+03  0.00000000000E+00 0. -1.
         -3   -1    0    0    0  501 -0.00000000000E+00 -0.00000000000E+00 -0.72583194901E+02  0.72583194901E+02  0.00000000000E+00 0.  1.
         23    2    1    2    0    0  0.43347973766E+02 -0.25224581315E+02  0.88346734850E+02  0.16107736223E+03  0.12500177892E+03 0.  0.
          5    1    3    3  502    0  0.15340671862E+02  0.44904453587E+02  0.41273762298E+01  0.47863048375E+02  0.47000000000E+01 0.  1.
         -5    1    3    3    0  502  0.28007301905E+02 -0.70129034903E+02  0.84219358621E+02  0.11321431386E+03  0.47000000000E+01 0.  1.
        -11    1    1    2    0    0 -0.58616240571E+02  0.30817304425E+02 -0.29839708994E+01  0.66290828875E+02  0.00000000000E+00 0.  1.
         11    1    1    2    0    0  0.15268266804E+02 -0.55927231102E+01  0.40241987467E+02  0.43402950110E+02  0.00000000000E+00 0. -1.
<mgrwt>
<rscale>  0 0.12600474E+03</rscale>
<asrwt>0</asrwt>
<pdfrwt beam="1">  1        3 0.30490453E-01 0.13468768E+03</pdfrwt>
<pdfrwt beam="2">  1       -3 0.11166645E-01 0.13468768E+03</pdfrwt>
<totfact> 0.14668876E+03</totfact>
</mgrwt>
</event>
<event>
 7    1  0.5928109E-006  0.1320618E+03  0.7546771E-02  0.1238012E+00
          2   -1    0    0  501    0  0.00000000000E+00  0.00000000000E+00  0.29297618220E+03  0.29297618220E+03  0.00000000000E+00 0. -1.
         -2   -1    0    0    0  501 -0.00000000000E+00 -0.00000000000E+00 -0.88883571881E+02  0.88883571881E+02  0.00000000000E+00 0.  1.
         23    2    1    2    0    0 -0.33883405158E+02  0.25771165369E+02  0.24151114877E+03  0.27525977030E+03  0.12501227163E+03 0.  0.
          5    1    3    3  502    0 -0.78127982328E+02 -0.39306818992E+01  0.15085169324E+03  0.16999339763E+03  0.47000000000E+01 0. -1.
         -5    1    3    3    0  502  0.44244577171E+02  0.29701847268E+02  0.90659455526E+02  0.10526637268E+03  0.47000000000E+01 0. -1.
        -11    1    1    2    0    0 -0.13763192919E+02 -0.17344385235E+02 -0.51623836481E+02  0.56171822754E+02  0.00000000000E+00 0.  1.
         11    1    1    2    0    0  0.47646598077E+02 -0.84267801338E+01  0.14205298028E+02  0.50428161019E+02  0.00000000000E+00 0. -1.
<mgrwt>
<rscale>  0 0.12313564E+03</rscale>
<asrwt>0</asrwt>
<pdfrwt beam="1">  1        2 0.45073258E-01 0.13206175E+03</pdfrwt>
<pdfrwt beam="2">  1       -2 0.13674396E-01 0.13206175E+03</pdfrwt>
<totfact> 0.42991718E+03</totfact>
</mgrwt>
</event>
<event>
 7    1  0.5928109E-006  0.2922839E+03  0.7546771E-02  0.1091087E+00
          2   -1    0    0  501    0  0.00000000000E+00  0.00000000000E+00  0.12612544379E+04  0.12612544379E+04  0.00000000000E+00 0. -1.
         -2   -1    0    0    0  501 -0.00000000000E+00 -0.00000000000E+00 -0.75170787762E+02  0.75170787762E+02  0.00000000000E+00 0.  1.
         23    2    1    2    0    0 -0.21330797658E+03  0.15590580955E+03  0.85862127821E+03  0.90700627492E+03  0.12499187581E+03 0.  0.
          5    1    3    3  502    0 -0.37688394631E+02  0.38359383316E+02  0.37961003636E+03  0.38342890747E+03  0.47000000000E+01 0. -1.
         -5    1    3    3    0  502 -0.17561958195E+03  0.11754642624E+03  0.47901124185E+03  0.52357736745E+03  0.47000000000E+01 0. -1.
        -11    1    1    2    0    0  0.15565893952E+03 -0.71091195936E+02  0.16786318888E+03  0.23971173057E+03  0.00000000000E+00 0. -1.
         11    1    1    2    0    0  0.57649037057E+02 -0.84814613616E+02  0.15959918303E+03  0.18970722016E+03  0.00000000000E+00 0.  1.
<mgrwt>
<rscale>  0 0.28859185E+03</rscale>
<asrwt>0</asrwt>
<pdfrwt beam="1">  1        2 0.19403913E+00 0.29228391E+03</pdfrwt>
<pdfrwt beam="2">  1       -2 0.11564737E-01 0.29228391E+03</pdfrwt>
<totfact> 0.96898312E+02</totfact>
</mgrwt>
</event>
<event>
 7    1  0.5928109E-006  0.1282305E+03  0.7546771E-02  0.1245748E+00
         -2   -1    0    0    0  501 -0.00000000000E+00  0.00000000000E+00  0.29646384419E+03  0.29646384419E+03  0.00000000000E+00 0.  1.
          2   -1    0    0  501    0  0.00000000000E+00 -0.00000000000E+00 -0.42387871719E+02  0.42387871719E+02  0.00000000000E+00 0. -1.
         23    2    1    2    0    0  0.27552239901E+02  0.77338856162E+01  0.12053086067E+03  0.17598506420E+03  0.12499646209E+03 0.  0.
          5    1    3    3  502    0  0.17453561395E+02  0.60403849966E+02  0.28120297356E+02  0.69036896073E+02  0.47000000000E+01 0. -1.
         -5    1    3    3    0  502  0.10098678506E+02 -0.52669964349E+02  0.92410563319E+02  0.10694816812E+03  0.47000000000E+01 0. -1.
        -11    1    1    2    0    0 -0.19438641125E+02  0.32599268486E+02  0.10791506899E+03  0.11439508377E+03  0.00000000000E+00 0.  1.
         11    1    1    2    0    0 -0.81135987753E+01 -0.40333154102E+02  0.25630042805E+02  0.48471567946E+02  0.00000000000E+00 0. -1.
<mgrwt>
<rscale>  0 0.11840736E+03</rscale>
<asrwt>0</asrwt>
<pdfrwt beam="2">  1        2 0.65212112E-02 0.12823047E+03</pdfrwt>
<pdfrwt beam="1">  1       -2 0.45609821E-01 0.12823047E+03</pdfrwt>
<totfact> 0.48321416E+03</totfact>
</mgrwt>
</event>
<event>
 7    1  0.8574839E-006  0.1575796E+03  0.7546771E-02  0.1199702E+00
         -1   -1    0    0    0  501 -0.00000000000E+00  0.00000000000E+00  0.38336560521E+02  0.38336560521E+02  0.00000000000E+00 0.  1.
          1   -1    0    0  501    0  0.00000000000E+00 -0.00000000000E+00 -0.69698459778E+03  0.69698459778E+03  0.00000000000E+00 0. -1.
         23    2    1    2    0    0  0.47732752681E+02 -0.83234873570E+02 -0.52353198325E+03  0.54673307745E+03  0.12499944253E+03 0.  0.
          5    1    3    3  502    0  0.56636205709E+02 -0.62704734501E+02 -0.14785299287E+03  0.17035885955E+03  0.47000000000E+01 0. -1.
         -5    1    3    3    0  502 -0.89034530281E+01 -0.20530139069E+02 -0.37567899038E+03  0.37637421790E+03  0.47000000000E+01 0. -1.
        -11    1    1    2    0    0 -0.59021140476E+02  0.45737766012E+02 -0.37805971644E+02  0.83694263572E+02  0.00000000000E+00 0.  1.
         11    1    1    2    0    0  0.11288387796E+02  0.37497107558E+02 -0.97310082364E+02  0.10489381728E+03  0.00000000000E+00 0. -1.
<mgrwt>
<rscale>  0 0.15062924E+03</rscale>
<asrwt>0</asrwt>
<pdfrwt beam="2">  1        1 0.10722840E+00 0.15757957E+03</pdfrwt>
<pdfrwt beam="1">  1       -1 0.58979326E-02 0.15757957E+03</pdfrwt>
<totfact> 0.38118880E+03</totfact>
</mgrwt>
</event>
<event>
 6    1  0.5928109E-006  0.1491169E+03  0.7546771E-02  0.1275304E+00
         -2   -1    0    0    0  501 -0.00000000000E+00  0.00000000000E+00  0.47990298225E+01  0.47990298225E+01  0.00000000000E+00 0.  1.
          2   -1    0    0  501    0  0.00000000000E+00 -0.00000000000E+00 -0.26031044201E+04  0.26031044201E+04  0.00000000000E+00 0. -1.
          5    1    1    2  502    0  0.21932526304E+02 -0.62425774175E+02 -0.15798701670E+04  0.15812621059E+04  0.47000000000E+01 0. -1.
         -5    1    1    2    0  502 -0.35370252187E+02  0.65832882261E+02 -0.91402309258E+03  0.91708523425E+03  0.47000000000E+01 0.  1.
        -11    1    1    2    0    0  0.80170667405E+00 -0.13253009084E+02 -0.22778503578E+02  0.26365606548E+02  0.00000000000E+00 0. -1.
         11    1    1    2    0    0  0.12636019209E+02  0.98459009979E+01 -0.81633627102E+02  0.83190503194E+02  0.00000000000E+00 0.  1.
<mgrwt>
<rscale>  0 0.10241207E+03</rscale>
<asrwt>0</asrwt>
<pdfrwt beam="2">  1        2 0.40047872E+00 0.14911687E+03</pdfrwt>
<pdfrwt beam="1">  1       -2 0.73831022E-03 0.14911687E+03</pdfrwt>
<totfact> 0.11539517E+04</totfact>
</mgrwt>
</event>
<event>
 7    1  0.5928109E-006  0.1404608E+03  0.7546771E-02  0.1223693E+00
         -1   -1    0    0    0  501 -0.00000000000E+00  0.00000000000E+00  0.13381016607E+03  0.13381016607E+03  0.00000000000E+00 0.  1.
          1   -1    0    0  501    0  0.00000000000E+00 -0.00000000000E+00 -0.11865394993E+03  0.11865394993E+03  0.00000000000E+00 0. -1.
         23    2    1    2    0    0  0.44092659777E+02  0.46437727979E+02  0.50501671083E+01  0.14055152534E+03  0.12501440662E+03 0.  0.
          5    1    3    3  502    0  0.13177164550E+02  0.78952584377E+02 -0.27670336038E+02  0.84822672334E+02  0.47000000000E+01 0.  1.
         -5    1    3    3    0  502  0.30915495227E+02 -0.32514856398E+02  0.32720503146E+02  0.55728853011E+02  0.47000000000E+01 0.  1.
        -11    1    1    2    0    0 -0.62299026802E+02 -0.61643427359E+02  0.60804738046E+01  0.87852450386E+02  0.00000000000E+00 0.  1.
         11    1    1    2    0    0  0.18206367026E+02  0.15205699380E+02  0.40255752351E+01  0.24060140272E+02  0.00000000000E+00 0. -1.
<mgrwt>
<rscale>  0 0.13256886E+03</rscale>
<asrwt>0</asrwt>
<pdfrwt beam="2">  1        1 0.18254454E-01 0.14046077E+03</pdfrwt>
<pdfrwt beam="1">  1       -1 0.20586179E-01 0.14046077E+03</pdfrwt>
<totfact> 0.52867722E+03</totfact>
</mgrwt>
</event>
<event>
 7    1  0.5928109E-006  0.1615724E+03  0.7546771E-02  0.1195031E+00
         -2   -1    0    0    0  501 -0.00000000000E+00  0.00000000000E+00  0.26175170631E+03  0.26175170631E+03  0.00000000000E+00 0.  1.
          2   -1    0    0  501    0  0.00000000000E+00 -0.00000000000E+00 -0.15868456849E+03  0.15868456849E+03  0.00000000000E+00 0. -1.
         23    2    1    2    0    0 -0.34288569978E+02  0.96434199335E+02 -0.89863601425E+02  0.18488136582E+03  0.12502156507E+03 0.  0.
          5    1    3    3  502    0  0.12286028982E+02 -0.90280261720E+01 -0.64893556062E+02  0.66826008283E+02  0.47000000000E+01 0. -1.
         -5    1    3    3    0  502 -0.46574598960E+02  0.10546222551E+03 -0.24970045363E+02  0.11805535753E+03  0.47000000000E+01 0. -1.
        -11    1    1    2    0    0  0.18280959379E+02 -0.32701340070E+02  0.15545850846E+03  0.15990909596E+03  0.00000000000E+00 0.  1.
         11    1    1    2    0    0  0.16007610598E+02 -0.63732859265E+02  0.37472230786E+02  0.75645813018E+02  0.00000000000E+00 0. -1.
<mgrwt>
<rscale>  0 0.15451637E+03</rscale>
<asrwt>0</asrwt>
<pdfrwt beam="2">  1        2 0.24413010E-01 0.16157244E+03</pdfrwt>
<pdfrwt beam="1">  1       -2 0.40269493E-01 0.16157244E+03</pdfrwt>
<totfact> 0.12813119E+03</totfact>
</mgrwt>
</event>
<event>
 7    1  0.5928109E-006  0.1297657E+03  0.7546771E-02  0.1245323E+00
         -1   -1    0    0    0  501 -0.00000000000E+00  0.00000000000E+00  0.31127784787E+02  0.31127784787E+02  0.00000000000E+00 0.  1.
          1   -1    0    0  501    0  0.00000000000E+00 -0.00000000000E+00 -0.40616590590E+03  0.40616590590E+03  0.00000000000E+00 0. -1.
         23    2    1    2    0    0 -0.29710058536E+02  0.18199213578E+02 -0.26176497345E+03  0.29216440886E+03  0.12500096611E+03 0.  0.
          5    1    3    3  502    0 -0.71732638089E+02  0.33994398353E+02 -0.20332740872E+03  0.21832387781E+03  0.47000000000E+01 0.  1.
         -5    1    3    3    0  502  0.42022579553E+02 -0.15795184774E+02 -0.58437564731E+02  0.73840531052E+02  0.47000000000E+01 0.  1.
        -11    1    1    2    0    0 -0.38919247263E+01 -0.17496672472E+02  0.77485096006E+01  0.19527417307E+02  0.00000000000E+00 0.  1.
         11    1    1    2    0    0  0.33601983263E+02 -0.70254110664E+00 -0.12102165726E+03  0.12560186451E+03  0.00000000000E+00 0. -1.
<mgrwt>
<rscale>  0 0.11866050E+03</rscale>
<asrwt>0</asrwt>
<pdfrwt beam="2">  1        1 0.62487054E-01 0.12976571E+03</pdfrwt>
<pdfrwt beam="1">  1       -1 0.47888906E-02 0.12976571E+03</pdfrwt>
<totfact> 0.10544141E+04</totfact>
</mgrwt>
</event>
<event>
 7    1  0.5928109E-006  0.1265776E+03  0.7546771E-02  0.1246467E+00
         -1   -1    0    0    0  501 -0.00000000000E+00  0.00000000000E+00  0.30594427281E+02  0.30594427281E+02  0.00000000000E+00 0.  1.
          1   -1    0    0  501    0  0.00000000000E+00 -0.00000000000E+00 -0.58800024773E+03  0.58800024773E+03  0.00000000000E+00 0. -1.
         23    2    1    2    0    0 -0.18037918862E+02 -0.84855307775E+01 -0.47767142337E+03  0.49415773508E+03  0.12499803070E+03 0.  0.
          5    1    3    3  502    0  0.17977454742E+02 -0.40020889324E+02 -0.40251840648E+03  0.40492964576E+03  0.47000000000E+01 0.  1.
         -5    1    3    3    0  502 -0.36015373604E+02  0.31535358547E+02 -0.75153016897E+02  0.89228089317E+02  0.47000000000E+01 0.  1.
        -11    1    1    2    0    0 -0.14197016300E+02  0.13936220885E+02 -0.88403694352E+02  0.90614494975E+02  0.00000000000E+00 0. -1.
         11    1    1    2    0    0  0.32234935161E+02 -0.54506901078E+01  0.86692972812E+01  0.33822444957E+02  0.00000000000E+00 0.  1.
<mgrwt>
<rscale>  0 0.11798001E+03</rscale>
<asrwt>0</asrwt>
<pdfrwt beam="2">  1        1 0.90461569E-01 0.12657756E+03</pdfrwt>
<pdfrwt beam="1">  1       -1 0.47068354E-02 0.12657756E+03</pdfrwt>
<totfact> 0.66777443E+03</totfact>
</mgrwt>
</event>
<event>
 7    1  0.5928109E-006  0.1583117E+03  0.7546771E-02  0.1197802E+00
          2   -1    0    0  501    0  0.00000000000E+00  0.00000000000E+00  0.15085217859E+03  0.15085217859E+03  0.00000000000E+00 0. -1.
         -2   -1    0    0    0  501 -0.00000000000E+00 -0.00000000000E+00 -0.17016298160E+03  0.17016298160E+03  0.00000000000E+00 0.  1.
         23    2    1    2    0    0  0.59783266057E+02  0.76597255256E+02  0.53909105017E+02  0.16723870489E+03  0.12498565676E+03 0.  0.
          5    1    3    3  502    0 -0.27733284689E+02  0.88296964961E+00  0.42345754201E+02  0.50844543600E+02  0.47000000000E+01 0. -1.
         -5    1    3    3    0  502  0.87516550746E+02  0.75714285606E+02  0.11563350816E+02  0.11639416129E+03  0.47000000000E+01 0. -1.
        -11    1    1    2    0    0 -0.70670868642E+02 -0.79613197242E+02 -0.32183589589E+02  0.11121338179E+03  0.00000000000E+00 0. -1.
         11    1    1    2    0    0  0.10887602585E+02  0.30159419867E+01 -0.41036318439E+02  0.42563073516E+02  0.00000000000E+00 0.  1.
<mgrwt>
<rscale>  0 0.15219477E+03</rscale>
<asrwt>0</asrwt>
<pdfrwt beam="1">  1        2 0.23208028E-01 0.15831170E+03</pdfrwt>
<pdfrwt beam="2">  1       -2 0.26178920E-01 0.15831170E+03</pdfrwt>
<totfact> 0.29789195E+03</totfact>
</mgrwt>
</event>
<event>
 6    1  0.5928109E-006  0.1390726E+03  0.7546771E-02  0.1229975E+00
          1   -1    0    0  501    0  0.00000000000E+00  0.00000000000E+00  0.33785802816E+02  0.33785802816E+02  0.00000000000E+00 0. -1.
         -1   -1    0    0    0  501 -0.00000000000E+00 -0.00000000000E+00 -0.75750511553E+03  0.75750511553E+03  0.00000000000E+00 0.  1.
          5    1    1    2  502    0 -0.46829310993E+02 -0.69144511322E+02 -0.51771252768E+02  0.98368188085E+02  0.47000000000E+01 0. -1.
         -5    1    1    2    0  502  0.81303977887E+01  0.46013687079E+02 -0.82585624378E+02  0.95004411060E+02  0.47000000000E+01 0.  1.
        -11    1    1    2    0    0  0.27841489727E+02  0.57945626185E+02 -0.38326901253E+03  0.38862318524E+03  0.00000000000E+00 0.  1.
         11    1    1    2    0    0  0.10857423477E+02 -0.34814801943E+02 -0.20609342304E+03  0.20929513396E+03  0.00000000000E+00 0. -1.
<mgrwt>
<rscale>  0 0.12831679E+03</rscale>
<asrwt>0</asrwt>
<pdfrwt beam="1">  1        1 0.51978158E-02 0.13907261E+03</pdfrwt>
<pdfrwt beam="2">  1       -1 0.11653925E+00 0.13907261E+03</pdfrwt>
<totfact> 0.10982425E+03</totfact>
</mgrwt>
</event>
<event>
 7    1  0.5928109E-006  0.2424994E+03  0.7546771E-02  0.1120821E+00
          1   -1    0    0  501    0  0.00000000000E+00  0.00000000000E+00  0.57109651970E+03  0.57109651970E+03  0.00000000000E+00 0. -1.
         -1   -1    0    0    0  501 -0.00000000000E+00 -0.00000000000E+00 -0.20386827978E+03  0.20386827978E+03  0.00000000000E+00 0.  1.
         23    2    1    2    0    0  0.66634576714E+01  0.20769411641E+03  0.46779452756E+03  0.52691336513E+03  0.12499890671E+03 0.  0.
          5    1    3    3  502    0  0.64901555311E+02  0.12872672964E+03  0.27433319651E+03  0.30994124526E+03  0.47000000000E+01 0.  1.
         -5    1    3    3    0  502 -0.58238097640E+02  0.78967386767E+02  0.19346133104E+03  0.21697211987E+03  0.47000000000E+01 0.  1.
        -11    1    1    2    0    0  0.40428795222E+02 -0.10873134881E+03 -0.39224422498E+02  0.12245631473E+03  0.00000000000E+00 0. -1.
         11    1    1    2    0    0 -0.47092252894E+02 -0.98962767600E+02 -0.61341865133E+02  0.12559511962E+03  0.00000000000E+00 0.  1.
<mgrwt>
<rscale>  0 0.23846259E+03</rscale>
<asrwt>0</asrwt>
<pdfrwt beam="1">  1        1 0.87861002E-01 0.24249943E+03</pdfrwt>
<pdfrwt beam="2">  1       -1 0.31364351E-01 0.24249943E+03</pdfrwt>
<totfact> 0.36007633E+02</totfact>
</mgrwt>
</event>
<event>
 7    1  0.5928109E-006  0.1237320E+03  0.7546771E-02  0.1249000E+00
          1   -1    0    0  501    0  0.00000000000E+00  0.00000000000E+00  0.23703339523E+03  0.23703339523E+03  0.00000000000E+00 0. -1.
         -1   -1    0    0    0  501 -0.00000000000E+00 -0.00000000000E+00 -0.86089846791E+02  0.86089846791E+02  0.00000000000E+00 0.  1.
         23    2    1    2    0    0 -0.31218451021E+01  0.30325676656E+02  0.18287383440E+03  0.22079958960E+03  0.11991758368E+03 0.  0.
          5    1    3    3  502    0  0.21452224785E+02  0.65072931007E+02  0.15546895804E+03  0.16996285245E+03  0.47000000000E+01 0. -1.
         -5    1    3    3    0  502 -0.24574069887E+02 -0.34747254350E+02  0.27404876365E+02  0.50836737152E+02  0.47000000000E+01 0.  1.
        -11    1    1    2    0    0 -0.42160659598E+02 -0.93204775191E+00 -0.65771412181E+01  0.42680776906E+02  0.00000000000E+00 0. -1.
         11    1    1    2    0    0  0.45282504700E+02 -0.29393628904E+02 -0.25353144743E+02  0.59642875521E+02  0.00000000000E+00 0.  1.
<mgrwt>
<rscale>  0 0.11649143E+03</rscale>
<asrwt>0</asrwt>
<pdfrwt beam="1">  1        1 0.36466676E-01 0.12373205E+03</pdfrwt>
<pdfrwt beam="2">  1       -1 0.13244592E-01 0.12373205E+03</pdfrwt>
<totfact> 0.44210974E+03</totfact>
</mgrwt>
</event>
<event>
 7    1  0.5928109E-006  0.1251123E+03  0.7546771E-02  0.1250047E+00
         -1   -1    0    0    0  501 -0.00000000000E+00  0.00000000000E+00  0.27791841791E+02  0.27791841791E+02  0.00000000000E+00 0.  1.
          1   -1    0    0  501    0  0.00000000000E+00 -0.00000000000E+00 -0.46419687591E+03  0.46419687591E+03  0.00000000000E+00 0. -1.
         23    2    1    2    0    0 -0.29229352503E+01 -0.45157287964E+01 -0.31984246782E+03  0.34344184567E+03  0.12499664708E+03 0.  0.
          5    1    3    3  502    0 -0.60920997157E+02  0.16379344492E+02 -0.15819208723E+03  0.17037158590E+03  0.47000000000E+01 0.  1.
         -5    1    3    3    0  502  0.57998061907E+02 -0.20895073288E+02 -0.16165038059E+03  0.17307025977E+03  0.47000000000E+01 0.  1.
        -11    1    1    2    0    0 -0.37927733593E+02  0.25553188517E+02 -0.51218936973E+02  0.68664823043E+02  0.00000000000E+00 0.  1.
         11    1    1    2    0    0  0.40850668844E+02 -0.21037459720E+02 -0.65343629335E+02  0.79882048992E+02  0.00000000000E+00 0. -1.
<mgrwt>
<rscale>  0 0.11588317E+03</rscale>
<asrwt>0</asrwt>
<pdfrwt beam="2">  1        1 0.71414904E-01 0.12511234E+03</pdfrwt>
<pdfrwt beam="1">  1       -1 0.42756680E-02 0.12511234E+03</pdfrwt>
<totfact> 0.10484374E+04</totfact>
</mgrwt>
</event>
<event>
 6    1  0.5928109E-006  0.5771354E+03  0.7546771E-02  0.9954012E-01
         -2   -1    0    0    0  501 -0.00000000000E+00  0.00000000000E+00  0.91017686718E+02  0.91017686718E+02  0.00000000000E+00 0.  1.
          2   -1    0    0  501    0  0.00000000000E+00 -0.00000000000E+00 -0.91489171321E+03  0.91489171321E+03  0.00000000000E+00 0. -1.
          5    1    1    2  502    0 -0.31789491020E+02  0.24021459190E+02 -0.77123194461E+02  0.86934914533E+02  0.47000000000E+01 0. -1.
         -5    1    1    2    0  502  0.68566150758E+02 -0.13866014738E+03 -0.24605331487E+03  0.29067555326E+03  0.47000000000E+01 0.  1.
        -11    1    1    2    0    0 -0.48362519311E+02 -0.32014279321E+02  0.38354704446E+02  0.69533666002E+02  0.00000000000E+00 0.  1.
         11    1    1    2    0    0  0.11585859572E+02  0.14665296751E+03 -0.53905222161E+03  0.55876526614E+03  0.00000000000E+00 0. -1.
<mgrwt>
<rscale>  0 0.57713543E+03</rscale>
<asrwt>0</asrwt>
<pdfrwt beam="2">  1        2 0.14075257E+00 0.57713543E+03</pdfrwt>
<pdfrwt beam="1">  1       -2 0.14002721E-01 0.57713543E+03</pdfrwt>
<totfact> 0.11346944E+03</totfact>
</mgrwt>
</event>
<event>
 6    1  0.5928109E-006  0.2330186E+03  0.7546771E-02  0.1163322E+00
         -2   -1    0    0    0  501 -0.00000000000E+00  0.00000000000E+00  0.70695783398E+02  0.70695783398E+02  0.00000000000E+00 0.  1.
          2   -1    0    0  501    0  0.00000000000E+00 -0.00000000000E+00 -0.37718317837E+03  0.37718317837E+03  0.00000000000E+00 0. -1.
          5    1    1    2  502    0 -0.42409807746E+02 -0.36958883726E+01 -0.27097540644E+03  0.27433922848E+03  0.47000000000E+01 0. -1.
         -5    1    1    2    0  502  0.44802732790E+02 -0.21647066134E+02  0.32072748116E+02  0.59385448633E+02  0.47000000000E+01 0.  1.
        -11    1    1    2    0    0  0.15092388929E+02  0.54801075276E+02 -0.49724750651E+02  0.75521446506E+02  0.00000000000E+00 0. -1.
         11    1    1    2    0    0 -0.17485313974E+02 -0.29458120770E+02 -0.17859985994E+02  0.38632838153E+02  0.00000000000E+00 0.  1.
<mgrwt>
<rscale>  0 0.18470845E+03</rscale>
<asrwt>0</asrwt>
<pdfrwt beam="2">  1        2 0.58028183E-01 0.23301863E+03</pdfrwt>
<pdfrwt beam="1">  1       -2 0.10876274E-01 0.23301863E+03</pdfrwt>
<totfact> 0.48755996E+03</totfact>
</mgrwt>
</event>
<event>
 6    1  0.5928109E-006  0.1625659E+03  0.7546771E-02  0.1209817E+00
         -1   -1    0    0    0  501 -0.00000000000E+00  0.00000000000E+00  0.26627972512E+03  0.26627972512E+03  0.00000000000E+00 0.  1.
          1   -1    0    0  501    0  0.00000000000E+00 -0.00000000000E+00 -0.66900167022E+02  0.66900167022E+02  0.00000000000E+00 0. -1.
          5    1    1    2  502    0  0.61539173548E+02 -0.30732949087E+02 -0.19628315089E+02  0.71686433820E+02  0.47000000000E+01 0. -1.
         -5    1    1    2    0  502 -0.29881404948E+02  0.26233655475E+02  0.10406037946E+03  0.11149778300E+03  0.47000000000E+01 0.  1.
        -11    1    1    2    0    0 -0.16261615045E+01  0.41172928825E+02  0.83494783604E+02  0.93108717950E+02  0.00000000000E+00 0.  1.
         11    1    1    2    0    0 -0.30031607096E+02 -0.36673635213E+02  0.31452710119E+02  0.56886957366E+02  0.00000000000E+00 0. -1.
<mgrwt>
<rscale>  0 0.14264266E+03</rscale>
<asrwt>0</asrwt>
<pdfrwt beam="2">  1        1 0.10292334E-01 0.16256594E+03</pdfrwt>
<pdfrwt beam="1">  1       -1 0.40966111E-01 0.16256594E+03</pdfrwt>
<totfact> 0.35429929E+03</totfact>
</mgrwt>
</event>
<event>
 7    1  0.5928109E-006  0.1345848E+03  0.7546771E-02  0.1233086E+00
         -1   -1    0    0    0  501 -0.00000000000E+00  0.00000000000E+00  0.50245291103E+02  0.50245291103E+02  0.00000000000E+00 0.  1.
          1   -1    0    0  501    0  0.00000000000E+00 -0.00000000000E+00 -0.30259365227E+03  0.30259365227E+03  0.00000000000E+00 0. -1.
         23    2    1    2    0    0 -0.78938525118E+01  0.49720071482E+02 -0.18463473054E+03  0.22847987925E+03  0.12481455479E+03 0.  0.
          5    1    3    3  502    0  0.57265528695E+02  0.22792197015E+02 -0.66235504389E+02  0.90598328147E+02  0.47000000000E+01 0.  1.
         -5    1    3    3    0  502 -0.65159381206E+02  0.26927874467E+02 -0.11839922615E+03  0.13788155110E+03  0.47000000000E+01 0.  1.
        -11    1    1    2    0    0 -0.12219710641E+01 -0.60677147170E+02 -0.83412843044E+02  0.10315479527E+03  0.00000000000E+00 0. -1.
         11    1    1    2    0    0  0.91158235759E+01  0.10957075688E+02  0.15699212415E+02  0.21204268852E+02  0.00000000000E+00 0.  1.
<mgrwt>
<rscale>  0 0.12627746E+03</rscale>
<asrwt>0</asrwt>
<pdfrwt beam="2">  1        1 0.46552868E-01 0.13458481E+03</pdfrwt>
<pdfrwt beam="1">  1       -1 0.77300450E-02 0.13458481E+03</pdfrwt>
<totfact> 0.74783208E+03</totfact>
</mgrwt>
</event>
<event>
 7    1  0.5928109E-006  0.2249286E+03  0.7546771E-02  0.1133267E+00
         -1   -1    0    0    0  501 -0.00000000000E+00  0.00000000000E+00  0.27037611494E+02  0.27037611494E+02  0.00000000000E+00 0.  1.
          1   -1    0    0  501    0  0.00000000000E+00 -0.00000000000E+00 -0.17499398074E+04  0.17499398074E+04  0.00000000000E+00 0. -1.
         23    2    1    2    0    0 -0.12929591555E+02  0.18654575649E+03 -0.95713056719E+03  0.98320486940E+03  0.12500559569E+03 0.  0.
          5    1    3    3  502    0  0.75308281512E+01  0.19472163124E+02 -0.14973319636E+02  0.26118361555E+02  0.47000000000E+01 0. -1.
         -5    1    3    3    0  502 -0.20460419706E+02  0.16707359336E+03 -0.94215724755E+03  0.95708650784E+03  0.47000000000E+01 0. -1.
        -11    1    1    2    0    0  0.44580942649E+02 -0.64926148721E+02 -0.37899149697E+03  0.38708838785E+03  0.00000000000E+00 0. -1.
         11    1    1    2    0    0 -0.31651351095E+02 -0.12161960776E+03 -0.38678013172E+03  0.40668416162E+03  0.00000000000E+00 0.  1.
<mgrwt>
<rscale>  0 0.22082834E+03</rscale>
<asrwt>0</asrwt>
<pdfrwt beam="2">  1        1 0.26922152E+00 0.22492864E+03</pdfrwt>
<pdfrwt beam="1">  1       -1 0.41596324E-02 0.22492864E+03</pdfrwt>
<totfact> 0.11412503E+03</totfact>
</mgrwt>
</event>
<event>
 7    1  0.5928109E-006  0.1314787E+03  0.7546771E-02  0.1238147E+00
         -2   -1    0    0    0  501 -0.00000000000E+00  0.00000000000E+00  0.22899952112E+02  0.22899952112E+02  0.00000000000E+00 0.  1.
          2   -1    0    0  501    0  0.00000000000E+00 -0.00000000000E+00 -0.14915498837E+04  0.14915498837E+04  0.00000000000E+00 0. -1.
         23    2    1    2    0    0  0.39605797215E+02  0.95990617276E+01 -0.13594321684E+04  0.13657754050E+04  0.12500350022E+03 0.  0.
          5    1    3    3  502    0  0.80979575902E+02  0.15392207089E+02 -0.67094081232E+03  0.67600168298E+03  0.47000000000E+01 0.  1.
         -5    1    3    3    0  502 -0.41373778687E+02 -0.57931453610E+01 -0.68849135612E+03  0.68977372199E+03  0.47000000000E+01 0.  1.
        -11    1    1    2    0    0 -0.26234662419E+02  0.39697152358E+02 -0.68237582766E+02  0.83189477215E+02  0.00000000000E+00 0. -1.
         11    1    1    2    0    0 -0.13371134796E+02 -0.49296214086E+02 -0.40980180406E+02  0.65484953654E+02  0.00000000000E+00 0.  1.
<mgrwt>
<rscale>  0 0.12305132E+03</rscale>
<asrwt>0</asrwt>
<pdfrwt beam="2">  1        2 0.22946918E+00 0.13147865E+03</pdfrwt>
<pdfrwt beam="1">  1       -2 0.35230700E-02 0.13147865E+03</pdfrwt>
<totfact> 0.45294795E+03</totfact>
</mgrwt>
</event>
<event>
 7    1  0.5928109E-006  0.1297195E+03  0.7546771E-02  0.1241529E+00
         -1   -1    0    0    0  501 -0.00000000000E+00  0.00000000000E+00  0.54351218726E+03  0.54351218726E+03  0.00000000000E+00 0.  1.
          1   -1    0    0  501    0  0.00000000000E+00 -0.00000000000E+00 -0.25518393962E+02  0.25518393962E+02  0.00000000000E+00 0. -1.
         23    2    1    2    0    0 -0.21823177731E+02  0.26962295269E+02  0.22089534697E+03  0.25616774337E+03  0.12499576784E+03 0.  0.
          5    1    3    3  502    0 -0.26951945914E+02  0.73032154812E+02  0.10148728908E+03  0.12799165156E+03  0.47000000000E+01 0.  1.
         -5    1    3    3    0  502  0.51287681826E+01 -0.46069859543E+02  0.11940805789E+03  0.12817609181E+03  0.47000000000E+01 0.  1.
        -11    1    1    2    0    0  0.14485993149E+01 -0.59543675728E+02  0.18634354808E+03  0.19563094252E+03  0.00000000000E+00 0.  1.
         11    1    1    2    0    0  0.20374578416E+02  0.32581380459E+02  0.11075489824E+03  0.11723189533E+03  0.00000000000E+00 0. -1.
<mgrwt>
<rscale>  0 0.12095574E+03</rscale>
<asrwt>0</asrwt>
<pdfrwt beam="2">  1        1 0.39259072E-02 0.12971954E+03</pdfrwt>
<pdfrwt beam="1">  1       -1 0.83617251E-01 0.12971954E+03</pdfrwt>
<totfact> 0.33285780E+03</totfact>
</mgrwt>
</event>
<event>
 7    1  0.5928109E-006  0.1944238E+03  0.7546771E-02  0.1159063E+00
         -1   -1    0    0    0  501 -0.00000000000E+00  0.00000000000E+00  0.23588878384E+03  0.23588878384E+03  0.00000000000E+00 0.  1.
          1   -1    0    0  501    0  0.00000000000E+00 -0.00000000000E+00 -0.23285694592E+03  0.23285694592E+03  0.00000000000E+00 0. -1.
         23    2    1    2    0    0 -0.11983833000E+03  0.88400586267E+02 -0.14266205420E+03  0.24114946559E+03  0.12499885621E+03 0.  0.
          5    1    3    3  502    0 -0.13473110618E+03  0.75906226663E+02 -0.15388743716E+03  0.21821470971E+03  0.47000000000E+01 0.  1.
         -5    1    3    3    0  502  0.14892776182E+02  0.12494359605E+02  0.11225382962E+02  0.22934755873E+02  0.47000000000E+01 0.  1.
        -11    1    1    2    0    0  0.39724342025E+02  0.15257542006E+02  0.24364567181E+02  0.49035171778E+02  0.00000000000E+00 0.  1.
         11    1    1    2    0    0  0.80113987974E+02 -0.10365812827E+03  0.12132932494E+03  0.17856109239E+03  0.00000000000E+00 0. -1.
<mgrwt>
<rscale>  0 0.18933456E+03</rscale>
<asrwt>0</asrwt>
<pdfrwt beam="2">  1        1 0.35824145E-01 0.19442377E+03</pdfrwt>
<pdfrwt beam="1">  1       -1 0.36290582E-01 0.19442377E+03</pdfrwt>
<totfact> 0.88599718E+02</totfact>
</mgrwt>
</event>
<event>
 7    1  0.5928109E-006  0.1393017E+03  0.7546771E-02  0.1225321E+00
          2   -1    0    0  501    0  0.00000000000E+00  0.00000000000E+00  0.47385080679E+03  0.47385080679E+03  0.00000000000E+00 0. -1.
         -2   -1    0    0    0  501 -0.00000000000E+00 -0.00000000000E+00 -0.37521736382E+02  0.37521736382E+02  0.00000000000E+00 0.  1.
         23    2    1    2    0    0  0.48970688230E+02  0.37160254124E+02  0.32939483700E+03  0.35763938789E+03  0.12500384129E+03 0.  0.
          5    1    3    3  502    0 -0.37931840276E+02 -0.10097730426E+02  0.11131990470E+03  0.11813128226E+03  0.47000000000E+01 0.  1.
         -5    1    3    3    0  502  0.86902528506E+02  0.47257984550E+02  0.21807493230E+03  0.23950810563E+03  0.47000000000E+01 0.  1.
        -11    1    1    2    0    0 -0.75017683033E+01  0.78761985424E+01 -0.14271313404E+02  0.17943840655E+02  0.00000000000E+00 0.  1.
         11    1    1    2    0    0 -0.41468919926E+02 -0.45036452667E+02  0.12120554682E+03  0.13578931463E+03  0.00000000000E+00 0. -1.
<mgrwt>
<rscale>  0 0.13144913E+03</rscale>
<asrwt>0</asrwt>
<pdfrwt beam="1">  1        2 0.72900120E-01 0.13930173E+03</pdfrwt>
<pdfrwt beam="2">  1       -2 0.57725752E-02 0.13930173E+03</pdfrwt>
<totfact> 0.99046709E+03</totfact>
</mgrwt>
</event>
<event>
 7    1  0.5928109E-006  0.1383748E+03  0.7546771E-02  0.1226825E+00
         -2   -1    0    0    0  501 -0.00000000000E+00  0.00000000000E+00  0.22617491308E+02  0.22617491308E+02  0.00000000000E+00 0.  1.
          2   -1    0    0  501    0  0.00000000000E+00 -0.00000000000E+00 -0.80852917012E+03  0.80852917012E+03  0.00000000000E+00 0. -1.
         23    2    1    2    0    0  0.45542938586E+02  0.38053233685E+02 -0.59800096137E+03  0.61380187478E+03  0.12500153532E+03 0.  0.
          5    1    3    3  502    0 -0.41800562566E+02 -0.11738204869E+01 -0.16083874337E+03  0.16625238721E+03  0.47000000000E+01 0. -1.
         -5    1    3    3    0  502  0.87343501153E+02  0.39227054172E+02 -0.43716221800E+03  0.44754948757E+03  0.47000000000E+01 0. -1.
        -11    1    1    2    0    0 -0.60555717253E+02 -0.43812325710E+02 -0.18683330625E+03  0.20122922029E+03  0.00000000000E+00 0. -1.
         11    1    1    2    0    0  0.15012778667E+02  0.57590920252E+01 -0.10774111993E+01  0.16115566361E+02  0.00000000000E+00 0.  1.
<mgrwt>
<rscale>  0 0.13042631E+03</rscale>
<asrwt>0</asrwt>
<pdfrwt beam="2">  1        2 0.12438911E+00 0.13837482E+03</pdfrwt>
<pdfrwt beam="1">  1       -2 0.34796138E-02 0.13837482E+03</pdfrwt>
<totfact> 0.11382958E+04</totfact>
</mgrwt>
</event>
<event>
 7    1  0.5928109E-006  0.1560737E+03  0.7546771E-02  0.1201276E+00
          3   -1    0    0  501    0  0.00000000000E+00  0.00000000000E+00  0.60310152206E+03  0.60310152206E+03  0.00000000000E+00 0. -1.
         -3   -1    0    0    0  501 -0.00000000000E+00 -0.00000000000E+00 -0.36262400013E+02  0.36262400013E+02  0.00000000000E+00 0.  1.
         23    2    1    2    0    0 -0.33622764257E+02  0.87184630945E+02  0.38412858560E+03  0.41462484380E+03  0.12500936234E+03 0.  0.
          5    1    3    3  502    0  0.39496308296E+01  0.10957543825E+03  0.23936389810E+03  0.26332402466E+03  0.47000000000E+01 0.  1.
         -5    1    3    3    0  502 -0.37572395087E+02 -0.22390807308E+02  0.14476468751E+03  0.15130081914E+03  0.47000000000E+01 0.  1.
        -11    1    1    2    0    0  0.62364878782E+01 -0.38101428848E+02  0.57096874220E+01  0.39028363939E+02  0.00000000000E+00 0.  1.
         11    1    1    2    0    0  0.27386276379E+02 -0.49083202097E+02  0.17700084903E+03  0.18571071433E+03  0.00000000000E+00 0. -1.
<mgrwt>
<rscale>  0 0.14934804E+03</rscale>
<asrwt>0</asrwt>
<pdfrwt beam="1">  1        3 0.92784842E-01 0.15607367E+03</pdfrwt>
<pdfrwt beam="2">  1       -3 0.55788312E-02 0.15607367E+03</pdfrwt>
<totfact> 0.48664643E+02</totfact>
</mgrwt>
</event>
<event>
 7    1  0.5928109E-006  0.1189482E+03  0.7546771E-02  0.1255917E+00
         -3   -1    0    0    0  501 -0.00000000000E+00  0.00000000000E+00  0.37151584981E+03  0.37151584981E+03  0.00000000000E+00 0.  1.
          3   -1    0    0  501    0  0.00000000000E+00 -0.00000000000E+00 -0.32215871057E+02  0.32215871057E+02  0.00000000000E+00 0. -1.
         23    2    1    2    0    0 -0.28330517892E+02 -0.95524519653E+01  0.14706273566E+03  0.18914579173E+03  0.11512955626E+03 0.  0.
          5    1    3    3  502    0 -0.64104942025E+02 -0.16041826030E+02  0.13529276361E+03  0.15064197841E+03  0.47000000000E+01 0. -1.
         -5    1    3    3    0  502  0.35774424133E+02  0.64893740648E+01  0.11769972053E+02  0.38503813317E+02  0.47000000000E+01 0.  1.
        -11    1    1    2    0    0  0.36724313431E+02  0.43349158722E+02  0.14627776091E+03  0.15692357406E+03  0.00000000000E+00 0.  1.
         11    1    1    2    0    0 -0.83937955392E+01 -0.33796706756E+02  0.45959482186E+02  0.57662355085E+02  0.00000000000E+00 0. -1.
<mgrwt>
<rscale>  0 0.11255135E+03</rscale>
<asrwt>0</asrwt>
<pdfrwt beam="2">  1        3 0.49562881E-02 0.11894823E+03</pdfrwt>
<pdfrwt beam="1">  1       -3 0.57156281E-01 0.11894823E+03</pdfrwt>
<totfact> 0.15799463E+03</totfact>
</mgrwt>
</event>
<event>
 7    1  0.5928109E-006  0.1327314E+03  0.7546771E-02  0.1242528E+00
         -2   -1    0    0    0  501 -0.00000000000E+00  0.00000000000E+00  0.24644670646E+02  0.24644670646E+02  0.00000000000E+00 0.  1.
          2   -1    0    0  501    0  0.00000000000E+00 -0.00000000000E+00 -0.50245323832E+03  0.50245323832E+03  0.00000000000E+00 0. -1.
         23    2    1    2    0    0  0.26211246681E+02  0.36142317691E+02 -0.27645159860E+03  0.30666449591E+03  0.12499732038E+03 0.  0.
          5    1    3    3  502    0 -0.20752345500E+02 -0.15972807174E+02 -0.20391587953E+03  0.20564427134E+03  0.47000000000E+01 0.  1.
         -5    1    3    3    0  502  0.46963592180E+02  0.52115124865E+02 -0.72535719071E+02  0.10102022457E+03  0.47000000000E+01 0.  1.
        -11    1    1    2    0    0 -0.28166184416E+02  0.19323498745E+02 -0.80058886145E+02  0.87041121311E+02  0.00000000000E+00 0.  1.
         11    1    1    2    0    0  0.19549377350E+01 -0.55465816436E+02 -0.12129808293E+03  0.13339229174E+03  0.00000000000E+00 0. -1.
<mgrwt>
<rscale>  0 0.12034541E+03</rscale>
<asrwt>0</asrwt>
<pdfrwt beam="2">  1        2 0.77300493E-01 0.13273141E+03</pdfrwt>
<pdfrwt beam="1">  1       -2 0.37914880E-02 0.13273141E+03</pdfrwt>
<totfact> 0.17366937E+04</totfact>
</mgrwt>
</event>
<event>
 7    1  0.5928109E-006  0.1287601E+03  0.7546771E-02  0.1247017E+00
          2   -1    0    0  501    0  0.00000000000E+00  0.00000000000E+00  0.17994805442E+03  0.17994805442E+03  0.00000000000E+00 0. -1.
         -2   -1    0    0    0  501 -0.00000000000E+00 -0.00000000000E+00 -0.73923363204E+02  0.73923363204E+02  0.00000000000E+00 0.  1.
         23    2    1    2    0    0 -0.10176441778E+02 -0.29151832200E+02  0.10157006032E+03  0.16399892947E+03  0.12500312966E+03 0.  0.
          5    1    3    3  502    0  0.38423799499E+02 -0.71803224888E+01  0.10317570721E+03  0.11043215998E+03  0.47000000000E+01 0. -1.
         -5    1    3    3    0  502 -0.48600241277E+02 -0.21971509712E+02 -0.16056468896E+01  0.53566769486E+02  0.47000000000E+01 0. -1.
        -11    1    1    2    0    0  0.24583526959E+02  0.52750851850E+02 -0.93902927850E+01  0.58950655359E+02  0.00000000000E+00 0.  1.
         11    1    1    2    0    0 -0.14407085181E+02 -0.23599019650E+02  0.13844923672E+02  0.30921832794E+02  0.00000000000E+00 0. -1.
<mgrwt>
<rscale>  0 0.11765468E+03</rscale>
<asrwt>0</asrwt>
<pdfrwt beam="1">  1        2 0.27684316E-01 0.12876013E+03</pdfrwt>
<pdfrwt beam="2">  1       -2 0.11372825E-01 0.12876013E+03</pdfrwt>
<totfact> 0.97140076E+03</totfact>
</mgrwt>
</event>
<event>
 7    1  0.5928109E-006  0.1314294E+03  0.7546771E-02  0.1238556E+00
          1   -1    0    0  501    0  0.00000000000E+00  0.00000000000E+00  0.40623888127E+03  0.40623888127E+03  0.00000000000E+00 0. -1.
         -1   -1    0    0    0  501 -0.00000000000E+00 -0.00000000000E+00 -0.39411739310E+02  0.39411739310E+02  0.00000000000E+00 0.  1.
         23    2    1    2    0    0  0.35185172348E+02 -0.20249122053E+02  0.29332515703E+03  0.32142392822E+03  0.12500268233E+03 0.  0.
          5    1    3    3  502    0 -0.45201675087E+02  0.31631361106E+01  0.77755099173E+02  0.90117380722E+02  0.47000000000E+01 0.  1.
         -5    1    3    3    0  502  0.80386847435E+02 -0.23412258164E+02  0.21557005785E+03  0.23130654750E+03  0.47000000000E+01 0.  1.
        -11    1    1    2    0    0 -0.19048532152E+02  0.27142163537E+02  0.92560274813E+02  0.98320639197E+02  0.00000000000E+00 0. -1.
         11    1    1    2    0    0 -0.16136640197E+02 -0.68930414837E+01 -0.19058289875E+02  0.25906053167E+02  0.00000000000E+00 0.  1.
<mgrwt>
<rscale>  0 0.12279498E+03</rscale>
<asrwt>0</asrwt>
<pdfrwt beam="1">  1        1 0.62498287E-01 0.13142943E+03</pdfrwt>
<pdfrwt beam="2">  1       -1 0.60633448E-02 0.13142943E+03</pdfrwt>
<totfact> 0.74378130E+03</totfact>
</mgrwt>
</event>
<event>
 7    1  0.5928109E-006  0.1401696E+03  0.7546771E-02  0.1224507E+00
          2   -1    0    0  501    0  0.00000000000E+00  0.00000000000E+00  0.76518519069E+03  0.76518519069E+03  0.00000000000E+00 0. -1.
         -2   -1    0    0    0  501 -0.00000000000E+00 -0.00000000000E+00 -0.21813568103E+02  0.21813568103E+02  0.00000000000E+00 0.  1.
         23    2    1    2    0    0  0.17230564899E+02 -0.61035591771E+02  0.50962906842E+03  0.52855397286E+03  0.12500111606E+03 0.  0.
          5    1    3    3  502    0 -0.29512266098E+02 -0.80447819442E+02  0.25983712888E+03  0.27364255708E+03  0.47000000000E+01 0. -1.
         -5    1    3    3    0  502  0.46742830996E+02  0.19412227672E+02  0.24979193954E+03  0.25491141578E+03  0.47000000000E+01 0. -1.
        -11    1    1    2    0    0 -0.15991369551E+02  0.51083743921E+02  0.24047848492E+03  0.24636390666E+03  0.00000000000E+00 0. -1.
         11    1    1    2    0    0 -0.12391953474E+01  0.99518478500E+01 -0.67359307610E+01  0.12080879271E+02  0.00000000000E+00 0.  1.
<mgrwt>
<rscale>  0 0.13200752E+03</rscale>
<asrwt>0</asrwt>
<pdfrwt beam="1">  1        2 0.11772078E+00 0.14016959E+03</pdfrwt>
<pdfrwt beam="2">  1       -2 0.33559341E-02 0.14016959E+03</pdfrwt>
<totfact> 0.12866080E+04</totfact>
</mgrwt>
</event>
<event>
 7    1  0.5928109E-006  0.1278367E+03  0.7546771E-02  0.1244801E+00
         -1   -1    0    0    0  501 -0.00000000000E+00  0.00000000000E+00  0.37328508155E+02  0.37328508155E+02  0.00000000000E+00 0.  1.
          1   -1    0    0  501    0  0.00000000000E+00 -0.00000000000E+00 -0.42871731298E+03  0.42871731298E+03  0.00000000000E+00 0. -1.
         23    2    1    2    0    0  0.22687621785E+02  0.14244846087E+02 -0.32546627889E+03  0.34967203230E+03  0.12499835063E+03 0.  0.
          5    1    3    3  502    0 -0.41124045893E+01 -0.22138504204E+02 -0.29283159966E+03  0.29373365656E+03  0.47000000000E+01 0.  1.
         -5    1    3    3    0  502  0.26800026374E+02  0.36383350291E+02 -0.32634679228E+02  0.55938375739E+02  0.47000000000E+01 0.  1.
        -11    1    1    2    0    0 -0.48447573140E+02  0.20472693672E+02 -0.38470554960E+02  0.65163503039E+02  0.00000000000E+00 0.  1.
         11    1    1    2    0    0  0.25759951355E+02 -0.34717539759E+02 -0.27451970984E+02  0.51210285799E+02  0.00000000000E+00 0. -1.
<mgrwt>
<rscale>  0 0.11897289E+03</rscale>
<asrwt>0</asrwt>
<pdfrwt beam="2">  1        1 0.65956512E-01 0.12783674E+03</pdfrwt>
<pdfrwt beam="1">  1       -1 0.57428472E-02 0.12783674E+03</pdfrwt>
<totfact> 0.75182041E+03</totfact>
</mgrwt>
</event>
<event>
 7    1  0.5928109E-006  0.1953139E+03  0.7546771E-02  0.1157611E+00
          1   -1    0    0  501    0  0.00000000000E+00  0.00000000000E+00  0.29714362523E+03  0.29714362523E+03  0.00000000000E+00 0. -1.
         -1   -1    0    0    0  501 -0.00000000000E+00 -0.00000000000E+00 -0.19395377227E+03  0.19395377227E+03  0.00000000000E+00 0.  1.
         23    2    1    2    0    0  0.84864121427E+02 -0.12377390390E+03  0.20706368159E+03  0.28464518845E+03  0.12500246671E+03 0.  0.
          5    1    3    3  502    0 -0.27147511644E+01 -0.10403973937E+03  0.95118353877E+02  0.14107171399E+03  0.47000000000E+01 0. -1.
         -5    1    3    3    0  502  0.87578872592E+02 -0.19734164527E+02  0.11194532771E+03  0.14357347447E+03  0.47000000000E+01 0. -1.
        -11    1    1    2    0    0 -0.10472039714E+02  0.92980436659E+02 -0.78202168582E+02  0.12194508759E+03  0.00000000000E+00 0. -1.
         11    1    1    2    0    0 -0.74392081713E+02  0.30793467242E+02 -0.25671660043E+02  0.84507121450E+02  0.00000000000E+00 0.  1.
<mgrwt>
<rscale>  0 0.19094536E+03</rscale>
<asrwt>0</asrwt>
<pdfrwt beam="1">  1        1 0.45714404E-01 0.19531389E+03</pdfrwt>
<pdfrwt beam="2">  1       -1 0.29839042E-01 0.19531389E+03</pdfrwt>
<totfact> 0.91411926E+02</totfact>
</mgrwt>
</event>
<event>
 7    1  0.5928109E-006  0.1290271E+03  0.7546771E-02  0.1243094E+00
          2   -1    0    0  501    0  0.00000000000E+00  0.00000000000E+00  0.58407801558E+03  0.58407801558E+03  0.00000000000E+00 0.  1.
         -2   -1    0    0    0  501 -0.00000000000E+00 -0.00000000000E+00 -0.22607622918E+02  0.22607622918E+02  0.00000000000E+00 0. -1.
         23    2    1    2    0    0  0.29697755372E+02 -0.12153669049E+02  0.37720936295E+03  0.39866639891E+03  0.12497330024E+03 0.  0.
          5    1    3    3  502    0  0.35638721060E+01 -0.67437709966E+02  0.19687930244E+03  0.20819244856E+03  0.47000000000E+01 0. -1.
         -5    1    3    3    0  502  0.26133883265E+02  0.55284040917E+02  0.18033006051E+03  0.19047395034E+03  0.47000000000E+01 0. -1.
        -11    1    1    2    0    0  0.95325068891E+01 -0.23005450910E+02  0.13010827391E+03  0.13246993017E+03  0.00000000000E+00 0.  1.
         11    1    1    2    0    0 -0.39230262261E+02  0.35159119959E+02  0.54152755797E+02  0.75549309419E+02  0.00000000000E+00 0. -1.
<mgrwt>
<rscale>  0 0.12000159E+03</rscale>
<asrwt>0</asrwt>
<pdfrwt beam="1">  1        2 0.89858145E-01 0.12902711E+03</pdfrwt>
<pdfrwt beam="2">  1       -2 0.34780963E-02 0.12902711E+03</pdfrwt>
<totfact> 0.16649196E+04</totfact>
</mgrwt>
</event>
<event>
 7    1  0.5928109E-006  0.1252060E+03  0.7546771E-02  0.1250854E+00
          1   -1    0    0  501    0  0.00000000000E+00  0.00000000000E+00  0.14198498952E+04  0.14198498952E+04  0.00000000000E+00 0. -1.
         -1   -1    0    0    0  501 -0.00000000000E+00 -0.00000000000E+00 -0.14031480197E+02  0.14031480197E+02  0.00000000000E+00 0.  1.
         23    2    1    2    0    0 -0.96556708219E+00 -0.72330494967E+01  0.12283135443E+04  0.12346783806E+04  0.12499316415E+03 0.  0.
          5    1    3    3  502    0 -0.19809740686E+02 -0.52147920553E+02  0.30673973142E+03  0.31180632494E+03  0.47000000000E+01 0.  1.
         -5    1    3    3    0  502  0.18844173604E+02  0.44914871057E+02  0.92157381293E+03  0.92287205570E+03  0.47000000000E+01 0.  1.
        -11    1    1    2    0    0  0.23422129390E+01 -0.38286366763E+02  0.11920653314E+03  0.12522591339E+03  0.00000000000E+00 0. -1.
         11    1    1    2    0    0 -0.13766458568E+01  0.45519416260E+02  0.58298337549E+02  0.73977081393E+02  0.00000000000E+00 0.  1.
<mgrwt>
<rscale>  0 0.11541764E+03</rscale>
<asrwt>0</asrwt>
<pdfrwt beam="1">  1        1 0.21843833E+00 0.12520599E+03</pdfrwt>
<pdfrwt beam="2">  1       -1 0.21586904E-02 0.12520599E+03</pdfrwt>
<totfact> 0.48638905E+03</totfact>
</mgrwt>
</event>
<event>
 7    1  0.5928109E-006  0.1269612E+03  0.7546771E-02  0.1247578E+00
         -2   -1    0    0    0  501 -0.00000000000E+00  0.00000000000E+00  0.10324395530E+03  0.10324395530E+03  0.00000000000E+00 0.  1.
          2   -1    0    0  501    0  0.00000000000E+00 -0.00000000000E+00 -0.21245225483E+03  0.21245225483E+03  0.00000000000E+00 0. -1.
         23    2    1    2    0    0 -0.12773127651E+02 -0.18268561409E+02 -0.16454761872E+03  0.20783423205E+03  0.12498902376E+03 0.  0.
          5    1    3    3  502    0  0.38427625906E+02 -0.23405901853E+02 -0.12045067088E+02  0.46815513620E+02  0.47000000000E+01 0. -1.
         -5    1    3    3    0  502 -0.51200753557E+02  0.51373404440E+01 -0.15250255163E+03  0.16101871843E+03  0.47000000000E+01 0. -1.
        -11    1    1    2    0    0 -0.24682951110E+02  0.26959352275E+02  0.58821699840E+02  0.69253498992E+02  0.00000000000E+00 0.  1.
         11    1    1    2    0    0  0.37456078761E+02 -0.86907908660E+01 -0.34823806511E+01  0.38608479082E+02  0.00000000000E+00 0. -1.
<mgrwt>
<rscale>  0 0.11732406E+03</rscale>
<asrwt>0</asrwt>
<pdfrwt beam="2">  1        2 0.32684962E-01 0.12696121E+03</pdfrwt>
<pdfrwt beam="1">  1       -2 0.15883686E-01 0.12696121E+03</pdfrwt>
<totfact> 0.47312591E+03</totfact>
</mgrwt>
</event>
<event>
 6    1  0.5928109E-006  0.1498274E+03  0.7546771E-02  0.1222970E+00
          2   -1    0    0  501    0  0.00000000000E+00  0.00000000000E+00  0.13914243864E+04  0.13914243864E+04  0.00000000000E+00 0. -1.
         -2   -1    0    0    0  501 -0.00000000000E+00 -0.00000000000E+00 -0.43966469288E+02  0.43966469288E+02  0.00000000000E+00 0.  1.
          5    1    1    2  502    0 -0.60774358522E+01 -0.78137682120E+02  0.87152176259E+03  0.87505125865E+03  0.47000000000E+01 0. -1.
         -5    1    1    2    0  502  0.78705383082E+01  0.66539720307E+02  0.46106644858E+03  0.46593329969E+03  0.47000000000E+01 0.  1.
        -11    1    1    2    0    0  0.76836252316E+01 -0.32943552447E+02  0.31209049678E+02  0.46025216201E+02  0.00000000000E+00 0. -1.
         11    1    1    2    0    0 -0.94767276875E+01  0.44541514261E+02 -0.16339343730E+02  0.48381081156E+02  0.00000000000E+00 0.  1.
<mgrwt>
<rscale>  0 0.13306991E+03</rscale>
<asrwt>0</asrwt>
<pdfrwt beam="1">  1        2 0.21406526E+00 0.14982738E+03</pdfrwt>
<pdfrwt beam="2">  1       -2 0.67640733E-02 0.14982738E+03</pdfrwt>
<totfact> 0.19227284E+03</totfact>
</mgrwt>
</event>
<event>
 7    1  0.5928109E-006  0.1288385E+03  0.7546771E-02  0.1243236E+00
          3   -1    0    0  501    0  0.00000000000E+00  0.00000000000E+00  0.10760979853E+03  0.10760979853E+03  0.00000000000E+00 0. -1.
         -3   -1    0    0    0  501 -0.00000000000E+00 -0.00000000000E+00 -0.12493944858E+03  0.12493944858E+03  0.00000000000E+00 0.  1.
         23    2    1    2    0    0 -0.19052719078E+02  0.24777562926E+02  0.16984235937E+02  0.12995317948E+03  0.12498972300E+03 0.  0.
          5    1    3    3  502    0 -0.45416472650E+02  0.38722090436E+02 -0.35356427457E+02  0.69528578572E+02  0.47000000000E+01 0.  1.
         -5    1    3    3    0  502  0.26363753572E+02 -0.13944527510E+02  0.52340663394E+02  0.60424600904E+02  0.47000000000E+01 0.  1.
        -11    1    1    2    0    0 -0.25676184388E+02 -0.11690522213E+02 -0.46532350124E+02  0.54416857337E+02  0.00000000000E+00 0.  1.
         11    1    1    2    0    0  0.44728903466E+02 -0.13087040713E+02  0.12218464138E+02  0.48179210306E+02  0.00000000000E+00 0. -1.
<mgrwt>
<rscale>  0 0.11991599E+03</rscale>
<asrwt>0</asrwt>
<pdfrwt beam="1">  1        3 0.16555354E-01 0.12883852E+03</pdfrwt>
<pdfrwt beam="2">  1       -3 0.19221454E-01 0.12883852E+03</pdfrwt>
<totfact> 0.17135823E+03</totfact>
</mgrwt>
</event>
<event>
 7    1  0.5928109E-006  0.1421544E+03  0.7546771E-02  0.1223030E+00
         -2   -1    0    0    0  501 -0.00000000000E+00  0.00000000000E+00  0.21126894177E+03  0.21126894177E+03  0.00000000000E+00 0.  1.
          2   -1    0    0  501    0  0.00000000000E+00 -0.00000000000E+00 -0.80918564921E+02  0.80918564921E+02  0.00000000000E+00 0. -1.
         23    2    1    2    0    0  0.63125451193E+01 -0.67379114584E+02  0.32784395073E+02  0.14588588667E+03  0.12501232764E+03 0.  0.
          5    1    3    3  502    0  0.92484283146E+01 -0.15919564288E+02 -0.47050056572E+02  0.50742130196E+02  0.47000000000E+01 0.  1.
         -5    1    3    3    0  502 -0.29358831953E+01 -0.51459550296E+02  0.79834451646E+02  0.95143756476E+02  0.47000000000E+01 0.  1.
        -11    1    1    2    0    0  0.39050295818E+02  0.30746430417E+02  0.35067300706E+02  0.60827495146E+02  0.00000000000E+00 0. -1.
         11    1    1    2    0    0 -0.45362840938E+02  0.36632684167E+02  0.62498681070E+02  0.85474124872E+02  0.00000000000E+00 0.  1.
<mgrwt>
<rscale>  0 0.13302870E+03</rscale>
<asrwt>0</asrwt>
<pdfrwt beam="2">  1        2 0.12449010E-01 0.14215441E+03</pdfrwt>
<pdfrwt beam="1">  1       -2 0.32502914E-01 0.14215441E+03</pdfrwt>
<totfact> 0.41283501E+03</totfact>
</mgrwt>
</event>
<event>
 7    1  0.5928109E-006  0.1288587E+03  0.7546771E-02  0.1243559E+00
          1   -1    0    0  501    0  0.00000000000E+00  0.00000000000E+00  0.57257011296E+03  0.57257011296E+03  0.00000000000E+00 0. -1.
         -1   -1    0    0    0  501 -0.00000000000E+00 -0.00000000000E+00 -0.25964330363E+02  0.25964330363E+02  0.00000000000E+00 0.  1.
         23    2    1    2    0    0 -0.16675006792E+01 -0.31257365171E+02  0.42195609363E+03  0.44119328520E+03  0.12499906607E+03 0.  0.
          5    1    3    3  502    0  0.33787104627E+02 -0.68839705195E+02  0.24132328602E+03  0.25325775768E+03  0.47000000000E+01 0. -1.
         -5    1    3    3    0  502 -0.35454605306E+02  0.37582340024E+02  0.18063280761E+03  0.18793552752E+03  0.47000000000E+01 0. -1.
        -11    1    1    2    0    0  0.17372089586E+02  0.59800072340E+02  0.69753219388E+02  0.93505880903E+02  0.00000000000E+00 0. -1.
         11    1    1    2    0    0 -0.15704588907E+02 -0.28542707169E+02  0.54896469579E+02  0.63835277218E+02  0.00000000000E+00 0.  1.
<mgrwt>
<rscale>  0 0.11972064E+03</rscale>
<asrwt>0</asrwt>
<pdfrwt beam="1">  1        1 0.88087700E-01 0.12885872E+03</pdfrwt>
<pdfrwt beam="2">  1       -1 0.39945128E-02 0.12885872E+03</pdfrwt>
<totfact> 0.88187832E+03</totfact>
</mgrwt>
</event>
<event>
 7    1  0.5928109E-006  0.1989947E+03  0.7546771E-02  0.1155024E+00
          2   -1    0    0  501    0  0.00000000000E+00  0.00000000000E+00  0.34103102432E+03  0.34103102432E+03  0.00000000000E+00 0. -1.
         -2   -1    0    0    0  501 -0.00000000000E+00 -0.00000000000E+00 -0.11581603864E+03  0.11581603864E+03  0.00000000000E+00 0.  1.
         23    2    1    2    0    0 -0.97219785259E+02 -0.12049839324E+03  0.18805570301E+03  0.27379528031E+03  0.12500943433E+03 0.  0.
          5    1    3    3  502    0 -0.22836268507E+02  0.25138424191E+02  0.44232486120E+02  0.55964617023E+02  0.47000000000E+01 0.  1.
         -5    1    3    3    0  502 -0.74383516752E+02 -0.14563681743E+03  0.14382321689E+03  0.21783066329E+03  0.47000000000E+01 0.  1.
        -11    1    1    2    0    0  0.70729488620E+02  0.19158589264E+02  0.48568136498E+01  0.73439095459E+02  0.00000000000E+00 0. -1.
         11    1    1    2    0    0  0.26490296639E+02  0.10133980397E+03  0.32302469023E+02  0.10961268718E+03  0.00000000000E+00 0.  1.
<mgrwt>
<rscale>  0 0.19386090E+03</rscale>
<asrwt>0</asrwt>
<pdfrwt beam="1">  1        2 0.52466311E-01 0.19899474E+03</pdfrwt>
<pdfrwt beam="2">  1       -2 0.17817852E-01 0.19899474E+03</pdfrwt>
<totfact> 0.24058400E+03</totfact>
</mgrwt>
</event>
<event>
 7    1  0.5928109E-006  0.1811452E+03  0.7546771E-02  0.1172006E+00
          2   -1    0    0  501    0  0.00000000000E+00  0.00000000000E+00  0.11869795588E+04  0.11869795588E+04  0.00000000000E+00 0. -1.
         -2   -1    0    0    0  501 -0.00000000000E+00 -0.00000000000E+00 -0.28569779702E+02  0.28569779702E+02  0.00000000000E+00 0.  1.
         23    2    1    2    0    0  0.78302350101E+01  0.13086247663E+03  0.83644204819E+03  0.85583227205E+03  0.12500910981E+03 0.  0.
          5    1    3    3  502    0 -0.36042761086E+02 -0.57341846143E+01  0.20533555795E+03  0.20860667022E+03  0.47000000000E+01 0.  1.
         -5    1    3    3    0  502  0.43872996097E+02  0.13659666124E+03  0.63110649024E+03  0.64722560183E+03  0.47000000000E+01 0.  1.
        -11    1    1    2    0    0  0.19997069022E+02 -0.12905002394E+03  0.24138816740E+03  0.27444860868E+03  0.00000000000E+00 0.  1.
         11    1    1    2    0    0 -0.27827304033E+02 -0.18124526888E+01  0.80579563472E+02  0.85268457731E+02  0.00000000000E+00 0. -1.
<mgrwt>
<rscale>  0 0.17572425E+03</rscale>
<asrwt>0</asrwt>
<pdfrwt beam="1">  1        2 0.18261220E+00 0.18114518E+03</pdfrwt>
<pdfrwt beam="2">  1       -2 0.43953516E-02 0.18114518E+03</pdfrwt>
<totfact> 0.47917622E+03</totfact>
</mgrwt>
</event>
<event>
 7    1  0.5928109E-006  0.2653042E+03  0.7546771E-02  0.1106337E+00
          1   -1    0    0  501    0  0.00000000000E+00  0.00000000000E+00  0.79356750511E+03  0.79356750511E+03  0.00000000000E+00 0. -1.
         -1   -1    0    0    0  501 -0.00000000000E+00 -0.00000000000E+00 -0.15688415683E+03  0.15688415683E+03  0.00000000000E+00 0.  1.
         23    2    1    2    0    0 -0.29622317347E+01 -0.23399651076E+03  0.64816893338E+03  0.70036366267E+03  0.12499260745E+03 0.  0.
          5    1    3    3  502    0 -0.25538566204E+02 -0.78029260976E+02  0.38413314709E+03  0.39283730554E+03  0.47000000000E+01 0.  1.
         -5    1    3    3    0  502  0.22576334470E+02 -0.15596724978E+03  0.26403578630E+03  0.30752635713E+03  0.47000000000E+01 0.  1.
        -11    1    1    2    0    0 -0.17847948681E+02  0.90670615281E+02 -0.42913418301E+02  0.10188852348E+03  0.00000000000E+00 0.  1.
         11    1    1    2    0    0  0.20810180416E+02  0.14332589548E+03  0.31427833198E+02  0.14819947579E+03  0.00000000000E+00 0. -1.
<mgrwt>
<rscale>  0 0.26134646E+03</rscale>
<asrwt>0</asrwt>
<pdfrwt beam="1">  1        1 0.12208731E+00 0.26530415E+03</pdfrwt>
<pdfrwt beam="2">  1       -1 0.24136025E-01 0.26530415E+03</pdfrwt>
<totfact> 0.34731321E+02</totfact>
</mgrwt>
</event>
<event>
 7    1  0.5928109E-006  0.1930201E+03  0.7546771E-02  0.1160234E+00
         -1   -1    0    0    0  501 -0.00000000000E+00  0.00000000000E+00  0.19724219385E+03  0.19724219385E+03  0.00000000000E+00 0.  1.
          1   -1    0    0  501    0  0.00000000000E+00 -0.00000000000E+00 -0.17262065854E+03  0.17262065854E+03  0.00000000000E+00 0. -1.
         23    2    1    2    0    0  0.91630655757E+02 -0.11505393485E+03 -0.69052481091E+01  0.19314354112E+03  0.12499263989E+03 0.  0.
          5    1    3    3  502    0  0.11784911394E+03 -0.76673084118E+02  0.15137269834E+02  0.14148640367E+03  0.47000000000E+01 0.  1.
         -5    1    3    3    0  502 -0.26218458183E+02 -0.38380850734E+02 -0.22042517943E+02  0.51657137453E+02  0.47000000000E+01 0.  1.
        -11    1    1    2    0    0 -0.18754516782E+02  0.96618071058E+02  0.12803354520E+02  0.99250740257E+02  0.00000000000E+00 0.  1.
         11    1    1    2    0    0 -0.72876138975E+02  0.18435863795E+02  0.18723428903E+02  0.77468571018E+02  0.00000000000E+00 0. -1.
<mgrwt>
<rscale>  0 0.18804725E+03</rscale>
<asrwt>0</asrwt>
<pdfrwt beam="2">  1        1 0.26557025E-01 0.19302006E+03</pdfrwt>
<pdfrwt beam="1">  1       -1 0.30344953E-01 0.19302006E+03</pdfrwt>
<totfact> 0.17546391E+03</totfact>
</mgrwt>
</event>
<event>
 7    1  0.5928109E-006  0.1267894E+03  0.7546771E-02  0.1248882E+00
          1   -1    0    0  501    0  0.00000000000E+00  0.00000000000E+00  0.37461854973E+02  0.37461854973E+02  0.00000000000E+00 0. -1.
         -1   -1    0    0    0  501 -0.00000000000E+00 -0.00000000000E+00 -0.36413628112E+03  0.36413628112E+03  0.00000000000E+00 0.  1.
         23    2    1    2    0    0  0.51957270172E+01 -0.20603798184E+02 -0.11423630656E+03  0.17066190208E+03  0.12499615596E+03 0.  0.
          5    1    3    3  502    0 -0.29661292237E+02  0.43468391035E+02 -0.38234485427E+02  0.65217015818E+02  0.47000000000E+01 0.  1.
         -5    1    3    3    0  502  0.34857019254E+02 -0.64072189219E+02 -0.76001821135E+02  0.10544488626E+03  0.47000000000E+01 0.  1.
        -11    1    1    2    0    0  0.36247507645E+02 -0.64276394947E+00 -0.48754251296E+02  0.60755839023E+02  0.00000000000E+00 0. -1.
         11    1    1    2    0    0 -0.41443234662E+02  0.21246562134E+02 -0.16368386829E+03  0.17018039499E+03  0.00000000000E+00 0.  1.
<mgrwt>
<rscale>  0 0.11655998E+03</rscale>
<asrwt>0</asrwt>
<pdfrwt beam="1">  1        1 0.57633622E-02 0.12678940E+03</pdfrwt>
<pdfrwt beam="2">  1       -1 0.56020967E-01 0.12678940E+03</pdfrwt>
<totfact> 0.43157898E+03</totfact>
</mgrwt>
</event>
<event>
 6    1  0.5928109E-006  0.1352845E+03  0.7546771E-02  0.1281735E+00
         -2   -1    0    0    0  501 -0.00000000000E+00  0.00000000000E+00  0.15436773782E+03  0.15436773782E+03  0.00000000000E+00 0.  1.
          2   -1    0    0  501    0  0.00000000000E+00 -0.00000000000E+00 -0.49758952792E+02  0.49758952792E+02  0.00000000000E+00 0. -1.
          5    1    1    2  502    0  0.82898729581E+01 -0.57444334044E+02  0.43435563169E+01  0.58391180746E+02  0.47000000000E+01 0. -1.
         -5    1    1    2    0  502 -0.28630563160E+02  0.52369148880E+02  0.84119074946E+02  0.10324894998E+03  0.47000000000E+01 0.  1.
        -11    1    1    2    0    0  0.26184448283E+02 -0.37943543124E+01  0.17583814593E+02  0.31768112821E+02  0.00000000000E+00 0. -1.
         11    1    1    2    0    0 -0.58437580809E+01  0.88695394762E+01 -0.14376608242E+01  0.10718447074E+02  0.00000000000E+00 0.  1.
<mgrwt>
<rscale>  0 0.99318769E+02</rscale>
<asrwt>0</asrwt>
<pdfrwt beam="2">  1        2 0.76552236E-02 0.13528450E+03</pdfrwt>
<pdfrwt beam="1">  1       -2 0.23748882E-01 0.13528450E+03</pdfrwt>
<totfact> 0.13065245E+04</totfact>
</mgrwt>
</event>
<event>
 7    1  0.5928109E-006  0.1503265E+03  0.7546771E-02  0.1208304E+00
         -1   -1    0    0    0  501 -0.00000000000E+00  0.00000000000E+00  0.17587753917E+03  0.17587753917E+03  0.00000000000E+00 0.  1.
          1   -1    0    0  501    0  0.00000000000E+00 -0.00000000000E+00 -0.10885404734E+03  0.10885404734E+03  0.00000000000E+00 0. -1.
         23    2    1    2    0    0 -0.72487770237E+02  0.41452515856E+02  0.27695287911E+02  0.15285642202E+03  0.12500107550E+03 0.  0.
          5    1    3    3  502    0 -0.27104142227E+02 -0.39048637357E+02 -0.16203912570E+02  0.50438947133E+02  0.47000000000E+01 0.  1.
         -5    1    3    3    0  502 -0.45383628010E+02  0.80501153214E+02  0.43899200481E+02  0.10241747489E+03  0.47000000000E+01 0.  1.
        -11    1    1    2    0    0  0.64711458072E+02 -0.33762334972E+02  0.68883439304E+02  0.10036132860E+03  0.00000000000E+00 0.  1.
         11    1    1    2    0    0  0.77763121654E+01 -0.76901808842E+01 -0.29555235387E+02  0.31513835877E+02  0.00000000000E+00 0. -1.
<mgrwt>
<rscale>  0 0.14380069E+03</rscale>
<asrwt>0</asrwt>
<pdfrwt beam="2">  1        1 0.16746776E-01 0.15032650E+03</pdfrwt>
<pdfrwt beam="1">  1       -1 0.27058083E-01 0.15032650E+03</pdfrwt>
<totfact> 0.37916059E+03</totfact>
</mgrwt>
</event>
<event>
 7    1  0.5928109E-006  0.1448115E+03  0.7546771E-02  0.1217222E+00
         -2   -1    0    0    0  501 -0.00000000000E+00  0.00000000000E+00  0.55430767677E+02  0.55430767677E+02  0.00000000000E+00 0.  1.
          2   -1    0    0  501    0  0.00000000000E+00 -0.00000000000E+00 -0.30996099092E+03  0.30996099092E+03  0.00000000000E+00 0. -1.
         23    2    1    2    0    0  0.10760181239E+01 -0.73108502747E+02 -0.15554949254E+03  0.21252299605E+03  0.12499747290E+03 0.  0.
          5    1    3    3  502    0  0.31946326622E+02 -0.43499964563E+02 -0.16032162513E+03  0.16922744513E+03  0.47000000000E+01 0. -1.
         -5    1    3    3    0  502 -0.30870308499E+02 -0.29608538184E+02  0.47721325857E+01  0.43295550922E+02  0.47000000000E+01 0. -1.
        -11    1    1    2    0    0  0.42547517549E+02  0.47279197564E+02 -0.69549229283E+02  0.94248124999E+02  0.00000000000E+00 0. -1.
         11    1    1    2    0    0 -0.43623535673E+02  0.25829305183E+02 -0.29431501420E+02  0.58620637549E+02  0.00000000000E+00 0.  1.
<mgrwt>
<rscale>  0 0.13714549E+03</rscale>
<asrwt>0</asrwt>
<pdfrwt beam="2">  1        2 0.47686305E-01 0.14481153E+03</pdfrwt>
<pdfrwt beam="1">  1       -2 0.85278106E-02 0.14481153E+03</pdfrwt>
<totfact> 0.86013066E+03</totfact>
</mgrwt>
</event>
<event>
 7    1  0.5928109E-006  0.1542035E+03  0.7546771E-02  0.1203502E+00
         -1   -1    0    0    0  501 -0.00000000000E+00  0.00000000000E+00  0.51119630371E+03  0.51119630371E+03  0.00000000000E+00 0.  1.
          1   -1    0    0  501    0  0.00000000000E+00 -0.00000000000E+00 -0.43512540513E+02  0.43512540513E+02  0.00000000000E+00 0. -1.
         23    2    1    2    0    0  0.86503293983E+02 -0.25924346438E+02  0.16647938212E+03  0.22692310980E+03  0.12499528585E+03 0.  0.
          5    1    3    3  502    0  0.78429823749E+02 -0.40348409542E+02  0.36102645817E+02  0.95418669247E+02  0.47000000000E+01 0. -1.
         -5    1    3    3    0  502  0.80734702339E+01  0.14424063103E+02  0.13037673630E+03  0.13150444056E+03  0.47000000000E+01 0. -1.
        -11    1    1    2    0    0 -0.10655019964E+03  0.21671226211E+02  0.25749250557E+03  0.27950845696E+03  0.00000000000E+00 0. -1.
         11    1    1    2    0    0  0.20046905658E+02  0.42531202274E+01  0.43711875513E+02  0.48277277460E+02  0.00000000000E+00 0.  1.
<mgrwt>
<rscale>  0 0.14756156E+03</rscale>
<asrwt>0</asrwt>
<pdfrwt beam="2">  1        1 0.66942374E-02 0.15420348E+03</pdfrwt>
<pdfrwt beam="1">  1       -1 0.78645581E-01 0.15420348E+03</pdfrwt>
<totfact> 0.18367359E+03</totfact>
</mgrwt>
</event>
<event>
 7    1  0.5928109E-006  0.1293962E+03  0.7546771E-02  0.1242383E+00
         -3   -1    0    0    0  501 -0.00000000000E+00  0.00000000000E+00  0.23816920512E+02  0.23816920512E+02  0.00000000000E+00 0.  1.
          3   -1    0    0  501    0  0.00000000000E+00 -0.00000000000E+00 -0.58998361269E+03  0.58998361269E+03  0.00000000000E+00 0. -1.
         23    2    1    2    0    0 -0.30571544117E+02 -0.13659828492E+02 -0.40973958535E+03  0.42968583291E+03  0.12498870739E+03 0.  0.
          5    1    3    3  502    0 -0.33098968681E+02  0.42677389288E+02 -0.31259071170E+03  0.31725690588E+03  0.47000000000E+01 0.  1.
         -5    1    3    3    0  502  0.25274245638E+01 -0.56337217780E+02 -0.97148873646E+02  0.11242892703E+03  0.47000000000E+01 0.  1.
        -11    1    1    2    0    0 -0.25643756747E+02  0.11233278550E+02 -0.14687650724E+02  0.31615121237E+02  0.00000000000E+00 0.  1.
         11    1    1    2    0    0  0.56215300864E+02  0.24265499425E+01 -0.14173945610E+03  0.15249957905E+03  0.00000000000E+00 0. -1.
<mgrwt>
<rscale>  0 0.12043375E+03</rscale>
<asrwt>0</asrwt>
<pdfrwt beam="2">  1        3 0.90766704E-01 0.12939624E+03</pdfrwt>
<pdfrwt beam="1">  1       -3 0.36641419E-02 0.12939624E+03</pdfrwt>
<totfact> 0.96418178E+02</totfact>
</mgrwt>
</event>
<event>
 7    1  0.5928109E-006  0.1368874E+03  0.7546771E-02  0.1223177E+00
         -2   -1    0    0    0  501 -0.00000000000E+00  0.00000000000E+00  0.89487026684E+02  0.89487026684E+02  0.00000000000E+00 0.  1.
          2   -1    0    0  501    0  0.00000000000E+00 -0.00000000000E+00 -0.18711539902E+03  0.18711539902E+03  0.00000000000E+00 0. -1.
         23    2    1    2    0    0  0.51879176533E+01  0.55555222255E+02 -0.46307669246E+02  0.14450798273E+03  0.12499943852E+03 0.  0.
          5    1    3    3  502    0  0.39827993727E+02  0.53036479845E+02 -0.74259947869E+02  0.99678318285E+02  0.47000000000E+01 0.  1.
         -5    1    3    3    0  502 -0.34640076074E+02  0.25187424092E+01  0.27952278624E+02  0.44829664442E+02  0.47000000000E+01 0.  1.
        -11    1    1    2    0    0  0.29624936482E+02 -0.47947709142E+02  0.13652042721E+02  0.57991360942E+02  0.00000000000E+00 0.  1.
         11    1    1    2    0    0 -0.34812854135E+02 -0.76075131127E+01 -0.64972745817E+02  0.74103082039E+02  0.00000000000E+00 0. -1.
<mgrwt>
<rscale>  0 0.13292625E+03</rscale>
<asrwt>0</asrwt>
<pdfrwt beam="2">  1        2 0.28786984E-01 0.13688739E+03</pdfrwt>
<pdfrwt beam="1">  1       -2 0.13767235E-01 0.13688739E+03</pdfrwt>
<totfact> 0.68854133E+03</totfact>
</mgrwt>
</event>
<event>
 7    1  0.5928109E-006  0.2747647E+03  0.7546771E-02  0.1100383E+00
          2   -1    0    0  501    0  0.00000000000E+00  0.00000000000E+00  0.10033475940E+04  0.10033475940E+04  0.00000000000E+00 0.  1.
         -2   -1    0    0    0  501 -0.00000000000E+00 -0.00000000000E+00 -0.73414715531E+02  0.73414715531E+02  0.00000000000E+00 0. -1.
         23    2    1    2    0    0  0.72390629993E+02  0.23373155993E+03  0.55424525438E+03  0.61861413392E+03  0.12499919704E+03 0.  0.
          5    1    3    3  502    0  0.29517651228E+02  0.10989269565E+03  0.12190996389E+03  0.16682873130E+03  0.47000000000E+01 0.  1.
         -5    1    3    3    0  502  0.42872978765E+02  0.12383886428E+03  0.43233529049E+03  0.45178540261E+03  0.47000000000E+01 0.  1.
        -11    1    1    2    0    0  0.85359431874E+01 -0.44392178987E+02  0.25478818302E+02  0.51891213740E+02  0.00000000000E+00 0.  1.
         11    1    1    2    0    0 -0.80926573180E+02 -0.18933938094E+03  0.35020880579E+03  0.40625696188E+03  0.00000000000E+00 0. -1.
<mgrwt>
<rscale>  0 0.27157298E+03</rscale>
<asrwt>0</asrwt>
<pdfrwt beam="1">  1        2 0.15436116E+00 0.27476471E+03</pdfrwt>
<pdfrwt beam="2">  1       -2 0.11294572E-01 0.27476471E+03</pdfrwt>
<totfact> 0.14258909E+03</totfact>
</mgrwt>
</event>
<event>
 6    1  0.5928109E-006  0.1568326E+03  0.7546771E-02  0.1214715E+00
          2   -1    0    0  501    0  0.00000000000E+00  0.00000000000E+00  0.52733463041E+03  0.52733463041E+03  0.00000000000E+00 0. -1.
         -2   -1    0    0    0  501 -0.00000000000E+00 -0.00000000000E+00 -0.31249341205E+02  0.31249341205E+02  0.00000000000E+00 0.  1.
          5    1    1    2  502    0 -0.43864255774E+01  0.23978108144E+02  0.32743275655E+03  0.32837248737E+03  0.47000000000E+01 0. -1.
         -5    1    1    2    0  502  0.38662623782E+02 -0.30252610347E+02  0.20754738272E+02  0.53505776055E+02  0.47000000000E+01 0.  1.
        -11    1    1    2    0    0  0.17109626004E+02  0.25693509430E+02  0.18152925850E+02  0.35810954270E+02  0.00000000000E+00 0.  1.
         11    1    1    2    0    0 -0.51385824209E+02 -0.19419007227E+02  0.12974486854E+03  0.14089475392E+03  0.00000000000E+00 0. -1.
<mgrwt>
<rscale>  0 0.13897461E+03</rscale>
<asrwt>0</asrwt>
<pdfrwt beam="1">  1        2 0.81128398E-01 0.15683264E+03</pdfrwt>
<pdfrwt beam="2">  1       -2 0.48075914E-02 0.15683264E+03</pdfrwt>
<totfact> 0.11696725E+04</totfact>
</mgrwt>
</event>
<event>
 7    1  0.5928109E-006  0.1974161E+03  0.7546771E-02  0.1156425E+00
          1   -1    0    0  501    0  0.00000000000E+00  0.00000000000E+00  0.95964023219E+02  0.95964023219E+02  0.00000000000E+00 0. -1.
         -1   -1    0    0    0  501 -0.00000000000E+00 -0.00000000000E+00 -0.51803152201E+03  0.51803152201E+03  0.00000000000E+00 0.  1.
         23    2    1    2    0    0  0.11271720888E+03 -0.10316029564E+03 -0.53008577730E+02  0.20440894181E+03  0.12500356157E+03 0.  0.
          5    1    3    3  502    0  0.91686363211E+02 -0.29216360911E+02 -0.77438310792E+02  0.12360730934E+03  0.47000000000E+01 0.  1.
         -5    1    3    3    0  502  0.21030845667E+02 -0.73943934732E+02  0.24429733062E+02  0.80801632475E+02  0.47000000000E+01 0.  1.
        -11    1    1    2    0    0 -0.12100618033E+03  0.96502702425E+02 -0.36760094290E+03  0.39885551328E+03  0.00000000000E+00 0.  1.
         11    1    1    2    0    0  0.82889714482E+01  0.66575932173E+01 -0.14579781578E+01  0.10731090132E+02  0.00000000000E+00 0. -1.
<mgrwt>
<rscale>  0 0.19227522E+03</rscale>
<asrwt>0</asrwt>
<pdfrwt beam="1">  1        1 0.14763696E-01 0.19741607E+03</pdfrwt>
<pdfrwt beam="2">  1       -1 0.79697156E-01 0.19741607E+03</pdfrwt>
<totfact> 0.62549549E+02</totfact>
</mgrwt>
</event>
<event>
 7    1  0.5928109E-006  0.2081265E+03  0.7546771E-02  0.1147042E+00
         -2   -1    0    0    0  501 -0.00000000000E+00  0.00000000000E+00  0.55853961065E+02  0.55853961065E+02  0.00000000000E+00 0.  1.
          2   -1    0    0  501    0  0.00000000000E+00 -0.00000000000E+00 -0.70759537414E+03  0.70759537414E+03  0.00000000000E+00 0. -1.
         23    2    1    2    0    0 -0.13120605530E+03 -0.10235465010E+03 -0.35502332690E+03  0.41153153305E+03  0.12500054683E+03 0.  0.
          5    1    3    3  502    0 -0.13530922802E+03 -0.12485603689E+03 -0.32421640414E+03  0.37287529263E+03  0.47000000000E+01 0.  1.
         -5    1    3    3    0  502  0.41031727217E+01  0.22501386793E+02 -0.30806922759E+02  0.38656240426E+02  0.47000000000E+01 0.  1.
        -11    1    1    2    0    0  0.12001470521E+03  0.51453793948E+02 -0.24944110781E+03  0.28155263921E+03  0.00000000000E+00 0. -1.
         11    1    1    2    0    0  0.11191350093E+02  0.50900856150E+02 -0.47276978360E+02  0.70365162947E+02  0.00000000000E+00 0.  1.
<mgrwt>
<rscale>  0 0.20322997E+03</rscale>
<asrwt>0</asrwt>
<pdfrwt beam="2">  1        2 0.10886084E+00 0.20812650E+03</pdfrwt>
<pdfrwt beam="1">  1       -2 0.85929163E-02 0.20812650E+03</pdfrwt>
<totfact> 0.34610704E+03</totfact>
</mgrwt>
</event>
<event>
 7    1  0.5928109E-006  0.1340100E+03  0.7546771E-02  0.1234452E+00
          2   -1    0    0  501    0  0.00000000000E+00  0.00000000000E+00  0.18172908985E+03  0.18172908985E+03  0.00000000000E+00 0. -1.
         -2   -1    0    0    0  501 -0.00000000000E+00 -0.00000000000E+00 -0.77588004386E+02  0.77588004386E+02  0.00000000000E+00 0.  1.
         23    2    1    2    0    0 -0.71223617949E+01 -0.47782339603E+02  0.69051405884E+02  0.15075399297E+03  0.12499915890E+03 0.  0.
          5    1    3    3  502    0 -0.25570201425E+02 -0.30747258959E+02 -0.28875959014E+02  0.49549370767E+02  0.47000000000E+01 0. -1.
         -5    1    3    3    0  502  0.18447839631E+02 -0.17035080644E+02  0.97927364898E+02  0.10120462220E+03  0.47000000000E+01 0. -1.
        -11    1    1    2    0    0  0.29640085763E+02 -0.73896039239E+01  0.38175768093E+02  0.48893048582E+02  0.00000000000E+00 0. -1.
         11    1    1    2    0    0 -0.22517723968E+02  0.55171943527E+02 -0.30860885101E+01  0.59670052686E+02  0.00000000000E+00 0.  1.
<mgrwt>
<rscale>  0 0.12539590E+03</rscale>
<asrwt>0</asrwt>
<pdfrwt beam="1">  1        2 0.27958322E-01 0.13400996E+03</pdfrwt>
<pdfrwt beam="2">  1       -2 0.11936616E-01 0.13400996E+03</pdfrwt>
<totfact> 0.89261920E+03</totfact>
</mgrwt>
</event>
<event>
 7    1  0.5928109E-006  0.1347079E+03  0.7546771E-02  0.1232819E+00
         -1   -1    0    0    0  501 -0.00000000000E+00  0.00000000000E+00  0.79150548570E+02  0.79150548570E+02  0.00000000000E+00 0.  1.
          1   -1    0    0  501    0  0.00000000000E+00 -0.00000000000E+00 -0.28865246518E+03  0.28865246518E+03  0.00000000000E+00 0. -1.
         23    2    1    2    0    0  0.46712932496E+02 -0.18430534483E+02 -0.22482490344E+03  0.26209243505E+03  0.12499769855E+03 0.  0.
          5    1    3    3  502    0  0.39022596174E+02  0.51018381067E+02 -0.99382930987E+02  0.11842590591E+03  0.47000000000E+01 0. -1.
         -5    1    3    3    0  502  0.76903363228E+01 -0.69448915550E+02 -0.12544197245E+03  0.14366652914E+03  0.47000000000E+01 0. -1.
        -11    1    1    2    0    0 -0.13583065622E+02 -0.35963140499E+02  0.16920455885E+02  0.42001773457E+02  0.00000000000E+00 0.  1.
         11    1    1    2    0    0 -0.33129866874E+02  0.54393674982E+02 -0.15974690524E+01  0.63708805235E+02  0.00000000000E+00 0. -1.
<mgrwt>
<rscale>  0 0.12645079E+03</rscale>
<asrwt>0</asrwt>
<pdfrwt beam="2">  1        1 0.44408072E-01 0.13470786E+03</pdfrwt>
<pdfrwt beam="1">  1       -1 0.12177007E-01 0.13470786E+03</pdfrwt>
<totfact> 0.39667008E+03</totfact>
</mgrwt>
</event>
<event>
 7    1  0.5928109E-006  0.1463710E+03  0.7546771E-02  0.1215537E+00
          1   -1    0    0  501    0  0.00000000000E+00  0.00000000000E+00  0.26209370820E+03  0.26209370820E+03  0.00000000000E+00 0.  1.
         -1   -1    0    0    0  501 -0.00000000000E+00 -0.00000000000E+00 -0.67392387558E+02  0.67392387558E+02  0.00000000000E+00 0. -1.
         23    2    1    2    0    0 -0.63650141854E+02  0.41815195923E+02  0.13058299859E+03  0.19615399718E+03  0.12499847967E+03 0.  0.
          5    1    3    3  502    0  0.16123426507E+02 -0.10643561419E+02  0.90228193379E+02  0.92393003861E+02  0.47000000000E+01 0. -1.
         -5    1    3    3    0  502 -0.79773568361E+02  0.52458757341E+02  0.40354805212E+02  0.10376099332E+03  0.47000000000E+01 0. -1.
        -11    1    1    2    0    0  0.12536580104E+02 -0.29303139796E+02  0.73286099841E+02  0.79916783422E+02  0.00000000000E+00 0.  1.
         11    1    1    2    0    0  0.51113561750E+02 -0.12512056127E+02 -0.91677777926E+01  0.53415315154E+02  0.00000000000E+00 0. -1.
<mgrwt>
<rscale>  0 0.13837181E+03</rscale>
<asrwt>0</asrwt>
<pdfrwt beam="1">  1        1 0.40322109E-01 0.14637100E+03</pdfrwt>
<pdfrwt beam="2">  1       -1 0.10368060E-01 0.14637100E+03</pdfrwt>
<totfact> 0.57503925E+03</totfact>
</mgrwt>
</event>
<event>
 7    1  0.5928109E-006  0.1155607E+03  0.7546771E-02  0.1262460E+00
         -4   -1    0    0    0  501 -0.00000000000E+00  0.00000000000E+00  0.10283348293E+03  0.10283348293E+03  0.00000000000E+00 0. -1.
          4   -1    0    0  501    0  0.00000000000E+00 -0.00000000000E+00 -0.22968547459E+03  0.22968547459E+03  0.00000000000E+00 0.  1.
         23    2    1    2    0    0 -0.21382016684E+02  0.55565225081E+01 -0.18931390299E+03  0.22179729631E+03  0.11342936658E+03 0.  0.
          5    1    3    3  502    0 -0.70666335547E+01  0.57661916043E+02 -0.12312532610E+03  0.13622323516E+03  0.47000000000E+01 0. -1.
         -5    1    3    3    0  502 -0.14315383130E+02 -0.52105393535E+02 -0.66188576894E+02  0.85574061145E+02  0.47000000000E+01 0.  1.
        -11    1    1    2    0    0 -0.28934980927E+02  0.52729918993E+01 -0.47952679644E+00  0.29415429808E+02  0.00000000000E+00 0.  1.
         11    1    1    2    0    0  0.50316997612E+02 -0.10829514407E+02  0.62941438125E+02  0.81306231399E+02  0.00000000000E+00 0. -1.
<mgrwt>
<rscale>  0 0.10898563E+03</rscale>
<asrwt>0</asrwt>
<pdfrwt beam="2">  1        4 0.35336226E-01 0.11556075E+03</pdfrwt>
<pdfrwt beam="1">  1       -4 0.15820536E-01 0.11556075E+03</pdfrwt>
<totfact> 0.42814242E+02</totfact>
</mgrwt>
</event>
<event>
 7    1  0.5928109E-006  0.1641213E+03  0.7546771E-02  0.1191415E+00
         -2   -1    0    0    0  501 -0.00000000000E+00  0.00000000000E+00  0.67750464137E+02  0.67750464137E+02  0.00000000000E+00 0.  1.
          2   -1    0    0  501    0  0.00000000000E+00 -0.00000000000E+00 -0.42038833683E+03  0.42038833683E+03  0.00000000000E+00 0. -1.
         23    2    1    2    0    0 -0.10549460762E+03  0.13609444615E+02 -0.29401913943E+03  0.33672400004E+03  0.12498587373E+03 0.  0.
          5    1    3    3  502    0  0.21541282682E+02  0.74605336054E+01 -0.96951363004E+01  0.25214521394E+02  0.47000000000E+01 0.  1.
         -5    1    3    3    0  502 -0.12703589030E+03  0.61489110101E+01 -0.28432400313E+03  0.31150947865E+03  0.47000000000E+01 0.  1.
        -11    1    1    2    0    0  0.95535087075E+02  0.23989179784E+02 -0.53761472675E+02  0.11221733179E+03  0.00000000000E+00 0. -1.
         11    1    1    2    0    0  0.99595205471E+01 -0.37598624399E+02 -0.48572605837E+01  0.39197469135E+02  0.00000000000E+00 0.  1.
<mgrwt>
<rscale>  0 0.15761624E+03</rscale>
<asrwt>0</asrwt>
<pdfrwt beam="2">  1        2 0.64675130E-01 0.16412129E+03</pdfrwt>
<pdfrwt beam="1">  1       -2 0.10423148E-01 0.16412129E+03</pdfrwt>
<totfact> 0.45661690E+03</totfact>
</mgrwt>
</event>
<event>
 7    1  0.5928109E-006  0.2830716E+03  0.7546771E-02  0.1096237E+00
          3   -1    0    0  501    0  0.00000000000E+00  0.00000000000E+00  0.25786944637E+03  0.25786944637E+03  0.00000000000E+00 0. -1.
         -3   -1    0    0    0  501 -0.00000000000E+00 -0.00000000000E+00 -0.58078504090E+03  0.58078504090E+03  0.00000000000E+00 0.  1.
         23    2    1    2    0    0  0.94040961904E+02 -0.23596158555E+03  0.13104358879E+03  0.31193259125E+03  0.12493176918E+03 0.  0.
          5    1    3    3  502    0  0.37354712493E+01  0.47372845949E+01 -0.14558346964E+02  0.16444788752E+02  0.47000000000E+01 0.  1.
         -5    1    3    3    0  502  0.90305490654E+02 -0.24069887014E+03  0.14560193575E+03  0.29548780250E+03  0.47000000000E+01 0.  1.
        -11    1    1    2    0    0 -0.58308271320E+02  0.63059477165E+02 -0.19748433626E+03  0.21535184056E+03  0.00000000000E+00 0.  1.
         11    1    1    2    0    0 -0.35732690583E+02  0.17290210838E+03 -0.25647484707E+03  0.31137005546E+03  0.00000000000E+00 0. -1.
<mgrwt>
<rscale>  0 0.27899845E+03</rscale>
<asrwt>0</asrwt>
<pdfrwt beam="1">  1        3 0.39672223E-01 0.28307158E+03</pdfrwt>
<pdfrwt beam="2">  1       -3 0.89351544E-01 0.28307158E+03</pdfrwt>
<totfact> 0.18307489E+01</totfact>
</mgrwt>
</event>
<event>
 6    1  0.5928109E-006  0.1747820E+03  0.7546771E-02  0.1183159E+00
          1   -1    0    0  501    0  0.00000000000E+00  0.00000000000E+00  0.63327404878E+03  0.63327404878E+03  0.00000000000E+00 0. -1.
         -1   -1    0    0    0  501 -0.00000000000E+00 -0.00000000000E+00 -0.20080061794E+03  0.20080061794E+03  0.00000000000E+00 0.  1.
          5    1    1    2  502    0  0.68154496682E+02  0.56877130743E+02  0.31572852993E+03  0.32800402136E+03  0.47000000000E+01 0. -1.
         -5    1    1    2    0  502 -0.70667450900E+02  0.48323652250E+02  0.27937666977E+03  0.29223702297E+03  0.47000000000E+01 0.  1.
        -11    1    1    2    0    0 -0.51065019026E+01 -0.12082475835E+03 -0.14790382489E+03  0.19105035988E+03  0.00000000000E+00 0.  1.
         11    1    1    2    0    0  0.76194561204E+01  0.15623975359E+02 -0.14727943952E+02  0.22783262511E+02  0.00000000000E+00 0. -1.
<mgrwt>
<rscale>  0 0.16500569E+03</rscale>
<asrwt>0</asrwt>
<pdfrwt beam="1">  1        1 0.97426776E-01 0.17478202E+03</pdfrwt>
<pdfrwt beam="2">  1       -1 0.30892403E-01 0.17478202E+03</pdfrwt>
<totfact> 0.32267377E+02</totfact>
</mgrwt>
</event>
<event>
 7    1  0.5928109E-006  0.1353554E+03  0.7546771E-02  0.1231601E+00
         -2   -1    0    0    0  501 -0.00000000000E+00  0.00000000000E+00  0.15129538521E+02  0.15129538521E+02  0.00000000000E+00 0.  1.
          2   -1    0    0  501    0  0.00000000000E+00 -0.00000000000E+00 -0.10036626278E+04  0.10036626278E+04  0.00000000000E+00 0. -1.
         23    2    1    2    0    0  0.50644048605E+02  0.11447376417E+02 -0.65751074124E+03  0.67129833469E+03  0.12500086889E+03 0.  0.
          5    1    3    3  502    0  0.68025667611E+02  0.45819137218E+01 -0.16745563528E+03  0.18086449396E+03  0.47000000000E+01 0. -1.
         -5    1    3    3    0  502 -0.17381619005E+02  0.68654626949E+01 -0.49005510596E+03  0.49043384074E+03  0.47000000000E+01 0. -1.
        -11    1    1    2    0    0 -0.15166381296E+02  0.39619819459E+02 -0.15960141803E+03  0.16514345840E+03  0.00000000000E+00 0. -1.
         11    1    1    2    0    0 -0.35477667309E+02 -0.51067195876E+02 -0.17142093002E+03  0.18235037324E+03  0.00000000000E+00 0.  1.
<mgrwt>
<rscale>  0 0.12724574E+03</rscale>
<asrwt>0</asrwt>
<pdfrwt beam="2">  1        2 0.15440961E+00 0.13535538E+03</pdfrwt>
<pdfrwt beam="1">  1       -2 0.23276217E-02 0.13535538E+03</pdfrwt>
<totfact> 0.15450490E+04</totfact>
</mgrwt>
</event>
<event>
 7    1  0.5928109E-006  0.1275284E+03  0.7546771E-02  0.1246030E+00
         -1   -1    0    0    0  501 -0.00000000000E+00  0.00000000000E+00  0.26548331351E+03  0.26548331351E+03  0.00000000000E+00 0.  1.
          1   -1    0    0  501    0  0.00000000000E+00 -0.00000000000E+00 -0.51149046762E+02  0.51149046762E+02  0.00000000000E+00 0. -1.
         23    2    1    2    0    0 -0.23285438249E+02  0.98678931978E+01  0.73549514090E+02  0.14721759986E+03  0.12499561487E+03 0.  0.
          5    1    3    3  502    0 -0.17618525959E+02  0.20286941934E+02 -0.31343895846E+02  0.41551200666E+02  0.47000000000E+01 0. -1.
         -5    1    3    3    0  502 -0.56669122899E+01 -0.10419048736E+02  0.10489340994E+03  0.10566639920E+03  0.47000000000E+01 0. -1.
        -11    1    1    2    0    0  0.50145008082E+02  0.12604002065E+02  0.49239404330E+02  0.71399591332E+02  0.00000000000E+00 0. -1.
         11    1    1    2    0    0 -0.26859569833E+02 -0.22471895263E+02  0.91545348328E+02  0.98015169075E+02  0.00000000000E+00 0.  1.
<mgrwt>
<rscale>  0 0.11823961E+03</rscale>
<asrwt>0</asrwt>
<pdfrwt beam="2">  1        1 0.78690843E-02 0.12752839E+03</pdfrwt>
<pdfrwt beam="1">  1       -1 0.40843586E-01 0.12752839E+03</pdfrwt>
<totfact> 0.50227978E+03</totfact>
</mgrwt>
</event>
<event>
 7    1  0.5928109E-006  0.1747245E+03  0.7546771E-02  0.1178801E+00
          2   -1    0    0  501    0  0.00000000000E+00  0.00000000000E+00  0.14338777814E+04  0.14338777814E+04  0.00000000000E+00 0. -1.
         -2   -1    0    0    0  501 -0.00000000000E+00 -0.00000000000E+00 -0.20115553896E+02  0.20115553896E+02  0.00000000000E+00 0.  1.
         23    2    1    2    0    0 -0.10168753026E+03  0.67551774765E+02  0.93874057393E+03  0.95486256329E+03  0.12500021415E+03 0.  0.
          5    1    3    3  502    0  0.12911087174E+02 -0.24185909372E+02  0.14229177358E+03  0.14498514825E+03  0.47000000000E+01 0. -1.
         -5    1    3    3    0  502 -0.11459861743E+03  0.91737684137E+02  0.79644880036E+03  0.80987741504E+03  0.47000000000E+01 0. -1.
        -11    1    1    2    0    0  0.12393055269E+02  0.11487658530E+02  0.11317227542E+02  0.20337988018E+02  0.00000000000E+00 0.  1.
         11    1    1    2    0    0  0.89294474990E+02 -0.79039433295E+02  0.46370442599E+03  0.47879278395E+03  0.00000000000E+00 0. -1.
<mgrwt>
<rscale>  0 0.16908940E+03</rscale>
<asrwt>0</asrwt>
<pdfrwt beam="1">  1        2 0.22059650E+00 0.17472450E+03</pdfrwt>
<pdfrwt beam="2">  1       -2 0.30947017E-02 0.17472450E+03</pdfrwt>
<totfact> 0.59250006E+03</totfact>
</mgrwt>
</event>
<event>
 7    1  0.5928109E-006  0.1843002E+03  0.7546771E-02  0.1167628E+00
          2   -1    0    0  501    0  0.00000000000E+00  0.00000000000E+00  0.10738872003E+03  0.10738872003E+03  0.00000000000E+00 0. -1.
         -2   -1    0    0    0  501 -0.00000000000E+00 -0.00000000000E+00 -0.29059645102E+03  0.29059645102E+03  0.00000000000E+00 0.  1.
         23    2    1    2    0    0 -0.72312103656E+02  0.11451360011E+03 -0.83742308502E+02  0.20243354523E+03  0.12499664418E+03 0.  0.
          5    1    3    3  502    0  0.86818654243E+00  0.57619800532E+02  0.21886302830E+02  0.61821480189E+02  0.47000000000E+01 0.  1.
         -5    1    3    3    0  502 -0.73180290198E+02  0.56893799574E+02 -0.10562861133E+03  0.14061206504E+03  0.47000000000E+01 0.  1.
        -11    1    1    2    0    0  0.79463958473E+02 -0.37779883210E+02 -0.72152502046E+02  0.11378850479E+03  0.00000000000E+00 0.  1.
         11    1    1    2    0    0 -0.71518548170E+01 -0.76733716895E+02 -0.27312920446E+02  0.81763121022E+02  0.00000000000E+00 0. -1.
<mgrwt>
<rscale>  0 0.18018054E+03</rscale>
<asrwt>0</asrwt>
<pdfrwt beam="1">  1        2 0.16521342E-01 0.18430021E+03</pdfrwt>
<pdfrwt beam="2">  1       -2 0.44707146E-01 0.18430021E+03</pdfrwt>
<totfact> 0.16417012E+03</totfact>
</mgrwt>
</event>
<event>
 7    1  0.5928109E-006  0.3787141E+03  0.7546771E-02  0.1051410E+00
          2   -1    0    0  501    0  0.00000000000E+00  0.00000000000E+00  0.10469367123E+04  0.10469367123E+04  0.00000000000E+00 0.  1.
         -2   -1    0    0    0  501 -0.00000000000E+00 -0.00000000000E+00 -0.34248577934E+02  0.34248577934E+02  0.00000000000E+00 0. -1.
         23    2    1    2    0    0 -0.47306862013E+02 -0.94278235426E+00  0.63197723201E+03  0.64595533195E+03  0.12499696421E+03 0.  0.
          5    1    3    3  502    0  0.90053300421E+01 -0.31344487309E+02  0.47811475234E+03  0.47924876552E+03  0.47000000000E+01 0.  1.
         -5    1    3    3    0  502 -0.56312192055E+02  0.30401704955E+02  0.15386247968E+03  0.16670656643E+03  0.47000000000E+01 0.  1.
        -11    1    1    2    0    0  0.22396781576E+02  0.61648220124E+02  0.19960527929E+02  0.68560495510E+02  0.00000000000E+00 0. -1.
         11    1    1    2    0    0  0.24910080437E+02 -0.60705437770E+02  0.36075037447E+03  0.36666946282E+03  0.00000000000E+00 0.  1.
<mgrwt>
<rscale>  0 0.37871411E+03</rscale>
<asrwt>0</asrwt>
<pdfrwt beam="1">  1        2 0.16106716E+00 0.37871411E+03</pdfrwt>
<pdfrwt beam="2">  1       -2 0.52690128E-02 0.37871411E+03</pdfrwt>
<totfact> 0.44607673E+03</totfact>
</mgrwt>
</event>
<event>
 7    1  0.5928109E-006  0.1299197E+03  0.7546771E-02  0.1241123E+00
         -1   -1    0    0    0  501 -0.00000000000E+00  0.00000000000E+00  0.52853558741E+02  0.52853558741E+02  0.00000000000E+00 0.  1.
          1   -1    0    0  501    0  0.00000000000E+00 -0.00000000000E+00 -0.24678649744E+03  0.24678649744E+03  0.00000000000E+00 0. -1.
         23    2    1    2    0    0  0.28366760490E+02 -0.21212235630E+02 -0.11435585066E+03  0.17307916799E+03  0.12499802307E+03 0.  0.
          5    1    3    3  502    0  0.43519817535E+02  0.64049981481E+01 -0.13019675583E+03  0.13750739525E+03  0.47000000000E+01 0.  1.
         -5    1    3    3    0  502 -0.15153057044E+02 -0.27617233778E+02  0.15840905174E+02  0.35571772743E+02  0.47000000000E+01 0.  1.
        -11    1    1    2    0    0 -0.48186930088E+02 -0.34591140612E+01 -0.89024303959E+01  0.49124321556E+02  0.00000000000E+00 0.  1.
         11    1    1    2    0    0  0.19820169597E+02  0.24671349691E+02 -0.70674657649E+02  0.77436566635E+02  0.00000000000E+00 0. -1.
<mgrwt>
<rscale>  0 0.12120474E+03</rscale>
<asrwt>0</asrwt>
<pdfrwt beam="2">  1        1 0.37967153E-01 0.12991974E+03</pdfrwt>
<pdfrwt beam="1">  1       -1 0.81313168E-02 0.12991974E+03</pdfrwt>
<totfact> 0.88909398E+03</totfact>
</mgrwt>
</event>
<event>
 7    1  0.5928109E-006  0.1602884E+03  0.7546771E-02  0.1196068E+00
          1   -1    0    0  501    0  0.00000000000E+00  0.00000000000E+00  0.56695022937E+02  0.56695022937E+02  0.00000000000E+00 0. -1.
         -1   -1    0    0    0  501 -0.00000000000E+00 -0.00000000000E+00 -0.41809738797E+03  0.41809738797E+03  0.00000000000E+00 0.  1.
         23    2    1    2    0    0 -0.99496004845E+02 -0.12997594761E+02 -0.12850555200E+03  0.20544109533E+03  0.12499589714E+03 0.  0.
          5    1    3    3  502    0  0.29724001279E+01 -0.10311966688E+01  0.22109473673E+02  0.22821423163E+02  0.47000000000E+01 0.  1.
         -5    1    3    3    0  502 -0.10246840497E+03 -0.11966398092E+02 -0.15061502568E+03  0.18261967216E+03  0.47000000000E+01 0.  1.
        -11    1    1    2    0    0  0.16341345085E+02  0.34250501744E+02 -0.27866445018E+02  0.47081580123E+02  0.00000000000E+00 0. -1.
         11    1    1    2    0    0  0.83154659760E+02 -0.21252906983E+02 -0.20503036801E+03  0.22226973546E+03  0.00000000000E+00 0.  1.
<mgrwt>
<rscale>  0 0.15364210E+03</rscale>
<asrwt>0</asrwt>
<pdfrwt beam="1">  1        1 0.87223113E-02 0.16028839E+03</pdfrwt>
<pdfrwt beam="2">  1       -1 0.64322675E-01 0.16028839E+03</pdfrwt>
<totfact> 0.19200560E+03</totfact>
</mgrwt>
</event>
<event>
 7    1  0.5928109E-006  0.1301063E+03  0.7546771E-02  0.1241125E+00
          2   -1    0    0  501    0  0.00000000000E+00  0.00000000000E+00  0.76297691666E+03  0.76297691666E+03  0.00000000000E+00 0. -1.
         -2   -1    0    0    0  501 -0.00000000000E+00 -0.00000000000E+00 -0.19409665623E+02  0.19409665623E+02  0.00000000000E+00 0.  1.
         23    2    1    2    0    0 -0.42037857524E+00  0.36099977757E+02  0.55305252362E+03  0.56815028284E+03  0.12499705955E+03 0.  0.
          5    1    3    3  502    0 -0.78949307682E+01 -0.22560676497E+01 -0.35891145360E+01  0.10118869316E+02  0.47000000000E+01 0. -1.
         -5    1    3    3    0  502  0.74745521930E+01  0.38356045407E+02  0.55664163815E+03  0.55803141352E+03  0.47000000000E+01 0. -1.
        -11    1    1    2    0    0  0.26376915030E+01  0.23234117098E+02  0.11904760907E+03  0.12132235918E+03  0.00000000000E+00 0. -1.
         11    1    1    2    0    0 -0.22173129278E+01 -0.59334094855E+02  0.71467118349E+02  0.92913940256E+02  0.00000000000E+00 0.  1.
<mgrwt>
<rscale>  0 0.12120351E+03</rscale>
<asrwt>0</asrwt>
<pdfrwt beam="1">  1        2 0.11738104E+00 0.13010630E+03</pdfrwt>
<pdfrwt beam="2">  1       -2 0.29861030E-02 0.13010630E+03</pdfrwt>
<totfact> 0.15253966E+04</totfact>
</mgrwt>
</event>
<event>
 7    1  0.5928109E-006  0.1803999E+03  0.7546771E-02  0.1173221E+00
         -2   -1    0    0    0  501 -0.00000000000E+00  0.00000000000E+00  0.38243415157E+02  0.38243415157E+02  0.00000000000E+00 0. -1.
          2   -1    0    0  501    0  0.00000000000E+00 -0.00000000000E+00 -0.93293615284E+03  0.93293615284E+03  0.00000000000E+00 0.  1.
         23    2    1    2    0    0 -0.64365309307E+02 -0.11305749766E+03 -0.68664146818E+03  0.70994409305E+03  0.12497687228E+03 0.  0.
          5    1    3    3  502    0 -0.70320506006E+02 -0.10312205013E+03 -0.68615817413E+03  0.69743405474E+03  0.47000000000E+01 0. -1.
         -5    1    3    3    0  502  0.59551966984E+01 -0.99354475229E+01 -0.48329405057E+00  0.12510038303E+02  0.47000000000E+01 0. -1.
        -11    1    1    2    0    0  0.67976260284E+02  0.29104750538E+02 -0.98672781972E+02  0.12330521631E+03  0.00000000000E+00 0.  1.
         11    1    1    2    0    0 -0.36109509763E+01  0.83952747118E+02 -0.10937848753E+03  0.13793025864E+03  0.00000000000E+00 0. -1.
<mgrwt>
<rscale>  0 0.17451380E+03</rscale>
<asrwt>0</asrwt>
<pdfrwt beam="2">  1        2 0.14352864E+00 0.18039986E+03</pdfrwt>
<pdfrwt beam="1">  1       -2 0.58836021E-02 0.18039986E+03</pdfrwt>
<totfact> 0.43532543E+03</totfact>
</mgrwt>
</event>
<event>
 7    1  0.5928109E-006  0.1253136E+03  0.7546771E-02  0.1246582E+00
          1   -1    0    0  501    0  0.00000000000E+00  0.00000000000E+00  0.36684844079E+03  0.36684844079E+03  0.00000000000E+00 0. -1.
         -1   -1    0    0    0  501 -0.00000000000E+00 -0.00000000000E+00 -0.38691911984E+02  0.38691911984E+02  0.00000000000E+00 0.  1.
         23    2    1    2    0    0  0.17844894797E+02  0.28203884223E+02  0.25132167950E+03  0.28083107974E+03  0.12078745551E+03 0.  0.
          5    1    3    3  502    0 -0.51489720842E+02  0.45571182246E+01  0.10319410524E+03  0.11551221596E+03  0.47000000000E+01 0. -1.
         -5    1    3    3    0  502  0.69334615639E+02  0.23646765999E+02  0.14812757425E+03  0.16531886378E+03  0.47000000000E+01 0.  1.
        -11    1    1    2    0    0 -0.10633333978E+02  0.33697509705E+02  0.21459232520E+02  0.41341124950E+02  0.00000000000E+00 0.  1.
         11    1    1    2    0    0 -0.72115608187E+01 -0.61901393928E+02  0.55375616788E+02  0.83368148081E+02  0.00000000000E+00 0. -1.
<mgrwt>
<rscale>  0 0.11791199E+03</rscale>
<asrwt>0</asrwt>
<pdfrwt beam="1">  1        1 0.56438219E-01 0.12531364E+03</pdfrwt>
<pdfrwt beam="2">  1       -1 0.59526021E-02 0.12531364E+03</pdfrwt>
<totfact> 0.86587280E+03</totfact>
</mgrwt>
</event>
<event>
 7    1  0.5928109E-006  0.1556942E+03  0.7546771E-02  0.1201704E+00
          2   -1    0    0  501    0  0.00000000000E+00  0.00000000000E+00  0.56734095155E+03  0.56734095155E+03  0.00000000000E+00 0. -1.
         -2   -1    0    0    0  501 -0.00000000000E+00 -0.00000000000E+00 -0.39275686958E+02  0.39275686958E+02  0.00000000000E+00 0.  1.
         23    2    1    2    0    0  0.68424086554E+02  0.62805378768E+02  0.37099096840E+03  0.40233688873E+03  0.12495720135E+03 0.  0.
          5    1    3    3  502    0  0.59192130615E+02 -0.26264942126E+02  0.13270561323E+03  0.14773769084E+03  0.47000000000E+01 0.  1.
         -5    1    3    3    0  502  0.92319559386E+01  0.89070320894E+02  0.23828535518E+03  0.25459919789E+03  0.47000000000E+01 0.  1.
        -11    1    1    2    0    0 -0.22769994685E+02 -0.70324527619E+02  0.13290553249E+03  0.15207857314E+03  0.00000000000E+00 0.  1.
         11    1    1    2    0    0 -0.45654091868E+02  0.75191488514E+01  0.24168763702E+02  0.52201176640E+02  0.00000000000E+00 0. -1.
<mgrwt>
<rscale>  0 0.14900296E+03</rscale>
<asrwt>0</asrwt>
<pdfrwt beam="1">  1        2 0.87283217E-01 0.15569417E+03</pdfrwt>
<pdfrwt beam="2">  1       -2 0.60424138E-02 0.15569417E+03</pdfrwt>
<totfact> 0.76219507E+03</totfact>
</mgrwt>
</event>
<event>
 7    1  0.5928109E-006  0.1507810E+03  0.7546771E-02  0.1208964E+00
          1   -1    0    0  501    0  0.00000000000E+00  0.00000000000E+00  0.12276716873E+03  0.12276716873E+03  0.00000000000E+00 0. -1.
         -1   -1    0    0    0  501 -0.00000000000E+00 -0.00000000000E+00 -0.15898485779E+03  0.15898485779E+03  0.00000000000E+00 0.  1.
         23    2    1    2    0    0 -0.75533921526E+02  0.37524441593E+02  0.81571626876E+01  0.15100144383E+03  0.12498575806E+03 0.  0.
          5    1    3    3  502    0 -0.78806895044E+02  0.19894531192E+02 -0.46172480430E+02  0.93596511831E+02  0.47000000000E+01 0.  1.
         -5    1    3    3    0  502  0.32729735175E+01  0.17629910401E+02  0.54329643118E+02  0.57404931998E+02  0.47000000000E+01 0.  1.
        -11    1    1    2    0    0  0.52354644971E+02  0.13245126702E+02 -0.51332192536E+02  0.74507960796E+02  0.00000000000E+00 0.  1.
         11    1    1    2    0    0  0.23179276555E+02 -0.50769568295E+02  0.69573407885E+01  0.56242621892E+02  0.00000000000E+00 0. -1.
<mgrwt>
<rscale>  0 0.14329383E+03</rscale>
<asrwt>0</asrwt>
<pdfrwt beam="1">  1        1 0.18887257E-01 0.15078096E+03</pdfrwt>
<pdfrwt beam="2">  1       -1 0.24459209E-01 0.15078096E+03</pdfrwt>
<totfact> 0.38393353E+03</totfact>
</mgrwt>
</event>
<event>
 7    1  0.5928109E-006  0.1631257E+03  0.7546771E-02  0.1192167E+00
         -1   -1    0    0    0  501 -0.00000000000E+00  0.00000000000E+00  0.16383996061E+02  0.16383996061E+02  0.00000000000E+00 0.  1.
          1   -1    0    0  501    0  0.00000000000E+00 -0.00000000000E+00 -0.19591230882E+04  0.19591230882E+04  0.00000000000E+00 0. -1.
         23    2    1    2    0    0  0.80700344975E+02 -0.66878715782E+02 -0.15510215000E+04  0.15595761206E+04  0.12499869709E+03 0.  0.
          5    1    3    3  502    0  0.61241725826E+02 -0.10402318193E+03 -0.11219701215E+04  0.11284548794E+04  0.47000000000E+01 0.  1.
         -5    1    3    3    0  502  0.19458619149E+02  0.37144466151E+02 -0.42905137853E+03  0.43112124124E+03  0.47000000000E+01 0.  1.
        -11    1    1    2    0    0 -0.18468722207E+02 -0.85581444843E+01 -0.11585770480E+02  0.23421477635E+02  0.00000000000E+00 0.  1.
         11    1    1    2    0    0 -0.62231622768E+02  0.75436860266E+02 -0.38013182166E+03  0.39250948600E+03  0.00000000000E+00 0. -1.
<mgrwt>
<rscale>  0 0.15696450E+03</rscale>
<asrwt>0</asrwt>
<pdfrwt beam="2">  1        1 0.30140323E+00 0.16312566E+03</pdfrwt>
<pdfrwt beam="1">  1       -1 0.25206175E-02 0.16312566E+03</pdfrwt>
<totfact> 0.17568378E+03</totfact>
</mgrwt>
</event>
<event>
 7    1  0.5928109E-006  0.1444490E+03  0.7546771E-02  0.1217131E+00
          1   -1    0    0  501    0  0.00000000000E+00  0.00000000000E+00  0.17406342887E+03  0.17406342887E+03  0.00000000000E+00 0. -1.
         -1   -1    0    0    0  501 -0.00000000000E+00 -0.00000000000E+00 -0.14167511879E+03  0.14167511879E+03  0.00000000000E+00 0.  1.
         23    2    1    2    0    0 -0.65791513062E+02 -0.30207966021E+02  0.10404876531E+03  0.17802152771E+03  0.12499789744E+03 0.  0.
          5    1    3    3  502    0 -0.80243499064E+02  0.18360984773E+02  0.29116332745E+02  0.87441384575E+02  0.47000000000E+01 0. -1.
         -5    1    3    3    0  502  0.14451986002E+02 -0.48568950794E+02  0.74932432567E+02  0.90580143139E+02  0.47000000000E+01 0. -1.
        -11    1    1    2    0    0  0.18151238690E+02  0.18861044391E+02  0.20569555969E+02  0.33291336626E+02  0.00000000000E+00 0. -1.
         11    1    1    2    0    0  0.47640274371E+02  0.11346921630E+02 -0.92230011192E+02  0.10442568332E+03  0.00000000000E+00 0.  1.
<mgrwt>
<rscale>  0 0.13721187E+03</rscale>
<asrwt>0</asrwt>
<pdfrwt beam="1">  1        1 0.26778989E-01 0.14444902E+03</pdfrwt>
<pdfrwt beam="2">  1       -1 0.21796172E-01 0.14444902E+03</pdfrwt>
<totfact> 0.29724485E+03</totfact>
</mgrwt>
</event>
<event>
 7    1  0.5928109E-006  0.1581465E+03  0.7546771E-02  0.1200918E+00
          2   -1    0    0  501    0  0.00000000000E+00  0.00000000000E+00  0.94526449542E+02  0.94526449542E+02  0.00000000000E+00 0. -1.
         -2   -1    0    0    0  501 -0.00000000000E+00 -0.00000000000E+00 -0.40351935703E+03  0.40351935703E+03  0.00000000000E+00 0.  1.
         23    2    1    2    0    0  0.47965224492E+02  0.84170383844E+02  0.62509847724E+01  0.15826998936E+03  0.12499999378E+03 0.  0.
          5    1    3    3  502    0  0.41875277617E+02  0.10243197209E+03  0.41133475405E+02  0.11815202318E+03  0.47000000000E+01 0.  1.
         -5    1    3    3    0  502  0.60899468750E+01 -0.18261588246E+02 -0.34882490633E+02  0.40117966187E+02  0.47000000000E+01 0.  1.
        -11    1    1    2    0    0 -0.72229674179E+01 -0.33394138025E+02 -0.25040396876E+02  0.42359900714E+02  0.00000000000E+00 0. -1.
         11    1    1    2    0    0 -0.40742257074E+02 -0.50776245819E+02 -0.29020349538E+03  0.29741591649E+03  0.00000000000E+00 0.  1.
<mgrwt>
<rscale>  0 0.14963836E+03</rscale>
<asrwt>0</asrwt>
<pdfrwt beam="1">  1        2 0.14542531E-01 0.15814650E+03</pdfrwt>
<pdfrwt beam="2">  1       -2 0.62079901E-01 0.15814650E+03</pdfrwt>
<totfact> 0.98121916E+02</totfact>
</mgrwt>
</event>
<event>
 7    1  0.5928109E-006  0.1323696E+03  0.7546771E-02  0.1237146E+00
         -2   -1    0    0    0  501 -0.00000000000E+00  0.00000000000E+00  0.50283050232E+03  0.50283050232E+03  0.00000000000E+00 0.  1.
          2   -1    0    0  501    0  0.00000000000E+00 -0.00000000000E+00 -0.27768870267E+02  0.27768870267E+02  0.00000000000E+00 0. -1.
         23    2    1    2    0    0  0.19529199678E+02 -0.38923699624E+02  0.22649991343E+03  0.26234311500E+03  0.12500102067E+03 0.  0.
          5    1    3    3  502    0  0.36525846589E+02  0.14024094077E+02  0.19357908326E+03  0.19754939676E+03  0.47000000000E+01 0.  1.
         -5    1    3    3    0  502 -0.16996646911E+02 -0.52947793702E+02  0.32920830173E+02  0.64793718240E+02  0.47000000000E+01 0.  1.
        -11    1    1    2    0    0 -0.42128179772E+02  0.76156261791E+01  0.20758473218E+03  0.21195330223E+03  0.00000000000E+00 0.  1.
         11    1    1    2    0    0  0.22598980094E+02  0.31308073445E+02  0.40976986440E+02  0.56302955356E+02  0.00000000000E+00 0. -1.
<mgrwt>
<rscale>  0 0.12368058E+03</rscale>
<asrwt>0</asrwt>
<pdfrwt beam="2">  1        2 0.42721342E-02 0.13236956E+03</pdfrwt>
<pdfrwt beam="1">  1       -2 0.77358532E-01 0.13236956E+03</pdfrwt>
<totfact> 0.28392008E+03</totfact>
</mgrwt>
</event>
<event>
 7    1  0.5928109E-006  0.1676574E+03  0.7546771E-02  0.1186752E+00
          1   -1    0    0  501    0  0.00000000000E+00  0.00000000000E+00  0.56068798168E+03  0.56068798168E+03  0.00000000000E+00 0. -1.
         -1   -1    0    0    0  501 -0.00000000000E+00 -0.00000000000E+00 -0.46659504316E+02  0.46659504316E+02  0.00000000000E+00 0.  1.
         23    2    1    2    0    0 -0.86642001857E+02 -0.70570942976E+02  0.35133099780E+03  0.38928456875E+03  0.12498764330E+03 0.  0.
          5    1    3    3  502    0  0.16686911873E+01  0.16851518724E+02  0.16084139446E+03  0.16179864766E+03  0.47000000000E+01 0. -1.
         -5    1    3    3    0  502 -0.88310693045E+02 -0.87422461699E+02  0.19048960334E+03  0.22748592109E+03  0.47000000000E+01 0. -1.
        -11    1    1    2    0    0  0.43016256881E+02 -0.13660843430E+02  0.81657649220E+02  0.93300528806E+02  0.00000000000E+00 0. -1.
         11    1    1    2    0    0  0.43625744976E+02  0.84231786406E+02  0.81039830348E+02  0.12476238844E+03  0.00000000000E+00 0.  1.
<mgrwt>
<rscale>  0 0.16173476E+03</rscale>
<asrwt>0</asrwt>
<pdfrwt beam="1">  1        1 0.86259685E-01 0.16765741E+03</pdfrwt>
<pdfrwt beam="2">  1       -1 0.71783857E-02 0.16765741E+03</pdfrwt>
<totfact> 0.38480289E+03</totfact>
</mgrwt>
</event>
<event>
 7    1  0.5928109E-006  0.1655179E+03  0.7546771E-02  0.1189221E+00
         -2   -1    0    0    0  501 -0.00000000000E+00  0.00000000000E+00  0.29287432560E+03  0.29287432560E+03  0.00000000000E+00 0.  1.
          2   -1    0    0  501    0  0.00000000000E+00 -0.00000000000E+00 -0.83252452252E+02  0.83252452252E+02  0.00000000000E+00 0. -1.
         23    2    1    2    0    0  0.71336059461E+02 -0.81752578889E+02  0.82690037426E+02  0.18502385705E+03  0.12499547133E+03 0.  0.
          5    1    3    3  502    0  0.79766693424E+02 -0.10273901987E+03  0.39451920069E+02  0.13600211609E+03  0.47000000000E+01 0.  1.
         -5    1    3    3    0  502 -0.84306339635E+01  0.20986440980E+02  0.43238117357E+02  0.49021740959E+02  0.47000000000E+01 0.  1.
        -11    1    1    2    0    0 -0.74993172146E+02  0.62489803423E+02  0.13765616123E+03  0.16875476327E+03  0.00000000000E+00 0.  1.
         11    1    1    2    0    0  0.36571126859E+01  0.19262775467E+02 -0.10724325311E+02  0.22348157536E+02  0.00000000000E+00 0. -1.
<mgrwt>
<rscale>  0 0.15953667E+03</rscale>
<asrwt>0</asrwt>
<pdfrwt beam="2">  1        2 0.12808070E-01 0.16551793E+03</pdfrwt>
<pdfrwt beam="1">  1       -2 0.45057588E-01 0.16551793E+03</pdfrwt>
<totfact> 0.21757145E+03</totfact>
</mgrwt>
</event>
<event>
 7    1  0.5928109E-006  0.1366991E+03  0.7546771E-02  0.1229449E+00
          1   -1    0    0  501    0  0.00000000000E+00  0.00000000000E+00  0.58729687433E+03  0.58729687433E+03  0.00000000000E+00 0. -1.
         -1   -1    0    0    0  501 -0.00000000000E+00 -0.00000000000E+00 -0.30587251697E+02  0.30587251697E+02  0.00000000000E+00 0.  1.
         23    2    1    2    0    0 -0.12976597343E+02  0.53787675801E+02  0.43332956584E+03  0.45437998068E+03  0.12500059225E+03 0.  0.
          5    1    3    3  502    0 -0.30326382829E+02  0.39131736499E+02  0.50594193004E+02  0.70942544799E+02  0.47000000000E+01 0. -1.
         -5    1    3    3    0  502  0.17349785486E+02  0.14655939302E+02  0.38273537284E+03  0.38343743588E+03  0.47000000000E+01 0. -1.
        -11    1    1    2    0    0  0.42891068995E+02 -0.56885458164E+02  0.10887899020E+03  0.13011623133E+03  0.00000000000E+00 0. -1.
         11    1    1    2    0    0 -0.29914471652E+02  0.30977823632E+01  0.14501066593E+02  0.33387914013E+02  0.00000000000E+00 0.  1.
<mgrwt>
<rscale>  0 0.12866585E+03</rscale>
<asrwt>0</asrwt>
<pdfrwt beam="1">  1        1 0.90353357E-01 0.13669914E+03</pdfrwt>
<pdfrwt beam="2">  1       -1 0.47057315E-02 0.13669914E+03</pdfrwt>
<totfact> 0.67208909E+03</totfact>
</mgrwt>
</event>
<event>
 7    1  0.5928109E-006  0.1827763E+03  0.7546771E-02  0.1171821E+00
         -1   -1    0    0    0  501 -0.00000000000E+00  0.00000000000E+00  0.30532983832E+03  0.30532983832E+03  0.00000000000E+00 0.  1.
          1   -1    0    0  501    0  0.00000000000E+00 -0.00000000000E+00 -0.94496694187E+02  0.94496694187E+02  0.00000000000E+00 0. -1.
         23    2    1    2    0    0  0.13198899373E+03  0.19006302729E+02  0.11888080421E+03  0.21803626102E+03  0.12499932600E+03 0.  0.
          5    1    3    3  502    0  0.10845720650E+02 -0.43640869101E+02  0.40285547339E+02  0.60557166683E+02  0.47000000000E+01 0. -1.
         -5    1    3    3    0  502  0.12114327308E+03  0.62647171831E+02  0.78595256876E+02  0.15747909434E+03  0.47000000000E+01 0. -1.
        -11    1    1    2    0    0 -0.44200955530E+02  0.12194520087E+02  0.73779319447E+02  0.86866672366E+02  0.00000000000E+00 0.  1.
         11    1    1    2    0    0 -0.87788038201E+02 -0.31200822816E+02  0.18173020467E+02  0.94923599113E+02  0.00000000000E+00 0. -1.
<mgrwt>
<rscale>  0 0.17590984E+03</rscale>
<asrwt>0</asrwt>
<pdfrwt beam="2">  1        1 0.14537953E-01 0.18277627E+03</pdfrwt>
<pdfrwt beam="1">  1       -1 0.46973821E-01 0.18277627E+03</pdfrwt>
<totfact> 0.17665489E+03</totfact>
</mgrwt>
</event>
<event>
 7    1  0.5928109E-006  0.1282504E+03  0.7546771E-02  0.1242775E+00
          1   -1    0    0  501    0  0.00000000000E+00  0.00000000000E+00  0.47603569605E+03  0.47603569605E+03  0.00000000000E+00 0. -1.
         -1   -1    0    0    0  501 -0.00000000000E+00 -0.00000000000E+00 -0.42604376370E+02  0.42604376370E+02  0.00000000000E+00 0.  1.
         23    2    1    2    0    0  0.48815898436E+01  0.28242902752E+02  0.39007219589E+03  0.41061477732E+03  0.12500674330E+03 0.  0.
          5    1    3    3  502    0  0.18329591202E+02  0.74956235197E+02  0.27374562382E+03  0.28445239965E+03  0.47000000000E+01 0.  1.
         -5    1    3    3    0  502 -0.13448001358E+02 -0.46713332445E+02  0.11632657207E+03  0.12616237767E+03  0.47000000000E+01 0.  1.
        -11    1    1    2    0    0  0.30415606172E+02  0.13404426491E+02  0.41807542913E+02  0.53410283586E+02  0.00000000000E+00 0.  1.
         11    1    1    2    0    0 -0.35297196015E+02 -0.41647329243E+02  0.15515808785E+01  0.54615011516E+02  0.00000000000E+00 0. -1.
<mgrwt>
<rscale>  0 0.12019571E+03</rscale>
<asrwt>0</asrwt>
<pdfrwt beam="1">  1        1 0.73236257E-01 0.12825045E+03</pdfrwt>
<pdfrwt beam="2">  1       -1 0.65545198E-02 0.12825045E+03</pdfrwt>
<totfact> 0.54024361E+03</totfact>
</mgrwt>
</event>
<event>
 6    1  0.5928109E-006  0.1509539E+03  0.7546771E-02  0.1220394E+00
         -1   -1    0    0    0  501 -0.00000000000E+00  0.00000000000E+00  0.37005636075E+02  0.37005636075E+02  0.00000000000E+00 0.  1.
          1   -1    0    0  501    0  0.00000000000E+00 -0.00000000000E+00 -0.42038987950E+03  0.42038987950E+03  0.00000000000E+00 0. -1.
          5    1    1    2  502    0  0.47434785103E+02  0.55358369842E+02 -0.23813969539E+03  0.24909277884E+03  0.47000000000E+01 0. -1.
         -5    1    1    2    0  502 -0.40718642322E+02 -0.25660882008E+02 -0.25413918446E+02  0.54630082819E+02  0.47000000000E+01 0.  1.
        -11    1    1    2    0    0  0.27554509834E+02 -0.38537571085E+02 -0.10520037974E+03  0.11537554028E+03  0.00000000000E+00 0. -1.
         11    1    1    2    0    0 -0.34270652615E+02  0.88400832517E+01 -0.14630249854E+02  0.38297113642E+02  0.00000000000E+00 0.  1.
<mgrwt>
<rscale>  0 0.13487627E+03</rscale>
<asrwt>0</asrwt>
<pdfrwt beam="2">  1        1 0.64675369E-01 0.15095386E+03</pdfrwt>
<pdfrwt beam="1">  1       -1 0.56931745E-02 0.15095386E+03</pdfrwt>
<totfact> 0.78924498E+03</totfact>
</mgrwt>
</event>
<event>
 7    1  0.5928109E-006  0.1967987E+03  0.7546771E-02  0.1156954E+00
         -2   -1    0    0    0  501 -0.00000000000E+00  0.00000000000E+00  0.17081672992E+02  0.17081672992E+02  0.00000000000E+00 0.  1.
          2   -1    0    0  501    0  0.00000000000E+00 -0.00000000000E+00 -0.20643354600E+04  0.20643354600E+04  0.00000000000E+00 0. -1.
         23    2    1    2    0    0  0.28362626261E+02  0.14933181247E+03 -0.11745019878E+04  0.11908755869E+04  0.12500126095E+03 0.  0.
          5    1    3    3  502    0  0.68988067177E+02  0.92051736321E+02 -0.51957620633E+03  0.53217891705E+03  0.47000000000E+01 0. -1.
         -5    1    3    3    0  502 -0.40625440916E+02  0.57280076150E+02 -0.65492578150E+03  0.65869666983E+03  0.47000000000E+01 0. -1.
        -11    1    1    2    0    0 -0.50721307825E+02 -0.46442149500E+02 -0.26744727905E+03  0.27614773471E+03  0.00000000000E+00 0.  1.
         11    1    1    2    0    0  0.22358681564E+02 -0.10288966297E+03 -0.60530452011E+03  0.61439381137E+03  0.00000000000E+00 0. -1.
<mgrwt>
<rscale>  0 0.19168076E+03</rscale>
<asrwt>0</asrwt>
<pdfrwt beam="2">  1        2 0.31759008E+00 0.19679874E+03</pdfrwt>
<pdfrwt beam="1">  1       -2 0.26279496E-02 0.19679874E+03</pdfrwt>
<totfact> 0.35468116E+03</totfact>
</mgrwt>
</event>
<event>
 6    1  0.5928109E-006  0.1950333E+03  0.7546771E-02  0.1175056E+00
          1   -1    0    0  501    0  0.00000000000E+00  0.00000000000E+00  0.12843288323E+04  0.12843288323E+04  0.00000000000E+00 0. -1.
         -1   -1    0    0    0  501 -0.00000000000E+00 -0.00000000000E+00 -0.22610996198E+02  0.22610996198E+02  0.00000000000E+00 0.  1.
          5    1    1    2  502    0  0.52855846963E+02  0.33304903555E+02  0.83358839458E+03  0.83593938700E+03  0.47000000000E+01 0. -1.
         -5    1    1    2    0  502 -0.63510533170E+02  0.42205055219E+02  0.16934266979E+03  0.18577912779E+03  0.47000000000E+01 0.  1.
        -11    1    1    2    0    0  0.43621565285E+02 -0.42210601491E+02  0.20542843930E+03  0.21420882221E+03  0.00000000000E+00 0. -1.
         11    1    1    2    0    0 -0.32966879079E+02 -0.33299357284E+02  0.53358332469E+02  0.71012491546E+02  0.00000000000E+00 0.  1.
<mgrwt>
<rscale>  0 0.17270455E+03</rscale>
<asrwt>0</asrwt>
<pdfrwt beam="1">  1        1 0.19758899E+00 0.19503334E+03</pdfrwt>
<pdfrwt beam="2">  1       -1 0.34786158E-02 0.19503334E+03</pdfrwt>
<totfact> 0.30165537E+03</totfact>
</mgrwt>
</event>
<event>
 7    1  0.5928109E-006  0.3037413E+03  0.7546771E-02  0.1084888E+00
          2   -1    0    0  501    0  0.00000000000E+00  0.00000000000E+00  0.15478525989E+04  0.15478525989E+04  0.00000000000E+00 0. -1.
         -2   -1    0    0    0  501 -0.00000000000E+00 -0.00000000000E+00 -0.57282673357E+02  0.57282673357E+02  0.00000000000E+00 0.  1.
         23    2    1    2    0    0 -0.17861356981E+03  0.21149699292E+03  0.75532507447E+03  0.81410980001E+03  0.12500005206E+03 0.  0.
          5    1    3    3  502    0 -0.10772997951E+03  0.46223058300E+02  0.38365186799E+03  0.40118968758E+03  0.47000000000E+01 0.  1.
         -5    1    3    3    0  502 -0.70883590296E+02  0.16527393462E+03  0.37167320647E+03  0.41292011243E+03  0.47000000000E+01 0.  1.
        -11    1    1    2    0    0  0.15030776608E+03 -0.11044532823E+03  0.48801202387E+03  0.52244265763E+03  0.00000000000E+00 0.  1.
         11    1    1    2    0    0  0.28305803731E+02 -0.10105166469E+03  0.24723282723E+03  0.26858281464E+03  0.00000000000E+00 0. -1.
<mgrwt>
<rscale>  0 0.30070612E+03</rscale>
<asrwt>0</asrwt>
<pdfrwt beam="1">  1        2 0.23813114E+00 0.30374133E+03</pdfrwt>
<pdfrwt beam="2">  1       -2 0.88127202E-02 0.30374133E+03</pdfrwt>
<totfact> 0.10427458E+03</totfact>
</mgrwt>
</event>
<event>
 7    1  0.5928109E-006  0.1614340E+03  0.7546771E-02  0.1194390E+00
         -1   -1    0    0    0  501 -0.00000000000E+00  0.00000000000E+00  0.93177639608E+02  0.93177639608E+02  0.00000000000E+00 0.  1.
          1   -1    0    0  501    0  0.00000000000E+00 -0.00000000000E+00 -0.27955862939E+03  0.27955862939E+03  0.00000000000E+00 0. -1.
         23    2    1    2    0    0 -0.81668404062E+02 -0.61373812629E+02 -0.16986652542E+03  0.23434072839E+03  0.12499786969E+03 0.  0.
          5    1    3    3  502    0 -0.14206302460E+02 -0.40538424944E+01  0.19700803679E+02  0.25069190935E+02  0.47000000000E+01 0.  1.
         -5    1    3    3    0  502 -0.67462101603E+02 -0.57319970135E+02 -0.18956732910E+03  0.20927153746E+03  0.47000000000E+01 0.  1.
        -11    1    1    2    0    0  0.35064366044E+02  0.68053416969E+02  0.19639933831E+02  0.79034829842E+02  0.00000000000E+00 0.  1.
         11    1    1    2    0    0  0.46604038018E+02 -0.66796043399E+01 -0.36154398201E+02  0.59360710769E+02  0.00000000000E+00 0. -1.
<mgrwt>
<rscale>  0 0.15505945E+03</rscale>
<asrwt>0</asrwt>
<pdfrwt beam="2">  1        1 0.43009019E-01 0.16143401E+03</pdfrwt>
<pdfrwt beam="1">  1       -1 0.14335022E-01 0.16143401E+03</pdfrwt>
<totfact> 0.32294878E+03</totfact>
</mgrwt>
</event>
<event>
 7    1  0.5928109E-006  0.1699549E+03  0.7546771E-02  0.1184642E+00
         -3   -1    0    0    0  501 -0.00000000000E+00  0.00000000000E+00  0.37535480932E+03  0.37535480932E+03  0.00000000000E+00 0.  1.
          3   -1    0    0  501    0  0.00000000000E+00 -0.00000000000E+00 -0.66557390497E+02  0.66557390497E+02  0.00000000000E+00 0. -1.
         23    2    1    2    0    0 -0.75604058191E+02 -0.86856188826E+02  0.17094468787E+03  0.24105339213E+03  0.12499872157E+03 0.  0.
          5    1    3    3  502    0 -0.55577792956E+02 -0.56042203123E+02  0.18518761245E+03  0.20136077425E+03  0.47000000000E+01 0.  1.
         -5    1    3    3    0  502 -0.20026265235E+02 -0.30813985703E+02 -0.14242924575E+02  0.39692617886E+02  0.47000000000E+01 0.  1.
        -11    1    1    2    0    0  0.78044884484E+02  0.27056033145E+02  0.57405832295E+02  0.10059056867E+03  0.00000000000E+00 0.  1.
         11    1    1    2    0    0 -0.24408262926E+01  0.59800155682E+02  0.80446898654E+02  0.10026823902E+03  0.00000000000E+00 0. -1.
<mgrwt>
<rscale>  0 0.16364462E+03</rscale>
<asrwt>0</asrwt>
<pdfrwt beam="2">  1        3 0.10239599E-01 0.16995485E+03</pdfrwt>
<pdfrwt beam="1">  1       -3 0.57746892E-01 0.16995485E+03</pdfrwt>
<totfact> 0.50542959E+02</totfact>
</mgrwt>
</event>
<event>
 6    1  0.5928109E-006  0.1601159E+03  0.7546771E-02  0.1208310E+00
          4   -1    0    0  501    0  0.00000000000E+00  0.00000000000E+00  0.31588900037E+03  0.31588900037E+03  0.00000000000E+00 0. -1.
         -4   -1    0    0    0  501 -0.00000000000E+00 -0.00000000000E+00 -0.55734889960E+02  0.55734889960E+02  0.00000000000E+00 0.  1.
          5    1    1    2  502    0 -0.99469782516E+00 -0.34987187074E+02  0.11751173271E+03  0.12270366746E+03  0.47000000000E+01 0. -1.
         -5    1    1    2    0  502  0.13905885709E+01  0.87350237508E+02  0.23338367234E+02  0.90547043654E+02  0.47000000000E+01 0.  1.
        -11    1    1    2    0    0  0.32758815034E+02 -0.50148785365E+02  0.39030756605E+02  0.71494339616E+02  0.00000000000E+00 0. -1.
         11    1    1    2    0    0 -0.33154705779E+02 -0.22142650697E+01  0.80273253858E+02  0.86878839599E+02  0.00000000000E+00 0.  1.
<mgrwt>
<rscale>  0 0.14379631E+03</rscale>
<asrwt>0</asrwt>
<pdfrwt beam="1">  1        4 0.48598307E-01 0.16011594E+03</pdfrwt>
<pdfrwt beam="2">  1       -4 0.85745986E-02 0.16011594E+03</pdfrwt>
<totfact> 0.69158798E+02</totfact>
</mgrwt>
</event>
<event>
 7    1  0.5928109E-006  0.1444094E+03  0.7546771E-02  0.1214207E+00
          3   -1    0    0  501    0  0.00000000000E+00  0.00000000000E+00  0.30853613732E+03  0.30853613732E+03  0.00000000000E+00 0. -1.
         -3   -1    0    0    0  501 -0.00000000000E+00 -0.00000000000E+00 -0.59298740587E+02  0.59298740587E+02  0.00000000000E+00 0.  1.
         23    2    1    2    0    0  0.34683745923E+02  0.63437145146E+02  0.14843925957E+03  0.20709489357E+03  0.12500738997E+03 0.  0.
          5    1    3    3  502    0 -0.14292902263E+02  0.49516047895E+02  0.17851988850E+01  0.51782265200E+02  0.47000000000E+01 0.  1.
         -5    1    3    3    0  502  0.48976648187E+02  0.13921097251E+02  0.14665406068E+03  0.15531262837E+03  0.47000000000E+01 0.  1.
        -11    1    1    2    0    0 -0.35215910032E+02 -0.82705426457E+02  0.42679468091E+02  0.99508215145E+02  0.00000000000E+00 0.  1.
         11    1    1    2    0    0  0.53216410861E+00  0.19268281311E+02  0.58118669073E+02  0.61231769190E+02  0.00000000000E+00 0. -1.
<mgrwt>
<rscale>  0 0.13934930E+03</rscale>
<asrwt>0</asrwt>
<pdfrwt beam="1">  1        3 0.47467097E-01 0.14440942E+03</pdfrwt>
<pdfrwt beam="2">  1       -3 0.91228834E-02 0.14440942E+03</pdfrwt>
<totfact> 0.88833387E+02</totfact>
</mgrwt>
</event>
<event>
 7    1  0.5928109E-006  0.2276955E+03  0.7546771E-02  0.1131290E+00
         -2   -1    0    0    0  501 -0.00000000000E+00  0.00000000000E+00  0.33609574715E+02  0.33609574715E+02  0.00000000000E+00 0. -1.
          2   -1    0    0  501    0  0.00000000000E+00 -0.00000000000E+00 -0.15604029761E+04  0.15604029761E+04  0.00000000000E+00 0.  1.
         23    2    1    2    0    0  0.18122073005E+03  0.58116690345E+02 -0.10158303299E+04  0.10410362617E+04  0.12500694579E+03 0.  0.
          5    1    3    3  502    0  0.17292548117E+03  0.16188525048E+02 -0.65496646335E+03  0.67761969311E+03  0.47000000000E+01 0.  1.
         -5    1    3    3    0  502  0.82952488797E+01  0.41928165298E+02 -0.36086386651E+03  0.36341656863E+03  0.47000000000E+01 0.  1.
        -11    1    1    2    0    0 -0.66089499427E+02 -0.69150629981E+02 -0.24020342277E+03  0.25854847877E+03  0.00000000000E+00 0.  1.
         11    1    1    2    0    0 -0.11513123063E+03  0.11033939636E+02 -0.27075964874E+03  0.29442781029E+03  0.00000000000E+00 0. -1.
<mgrwt>
<rscale>  0 0.22351346E+03</rscale>
<asrwt>0</asrwt>
<pdfrwt beam="2">  1        2 0.24006197E+00 0.22769550E+03</pdfrwt>
<pdfrwt beam="1">  1       -2 0.51707044E-02 0.22769550E+03</pdfrwt>
<totfact> 0.23573591E+03</totfact>
</mgrwt>
</event>
<event>
 7    1  0.5928109E-006  0.1465456E+03  0.7546771E-02  0.1213363E+00
         -2   -1    0    0    0  501 -0.00000000000E+00  0.00000000000E+00  0.12608096949E+03  0.12608096949E+03  0.00000000000E+00 0.  1.
          2   -1    0    0  501    0  0.00000000000E+00 -0.00000000000E+00 -0.15150360587E+03  0.15150360587E+03  0.00000000000E+00 0. -1.
         23    2    1    2    0    0  0.68846846551E+02 -0.33337209350E+02 -0.46610022343E+02  0.15377941407E+03  0.12499742479E+03 0.  0.
          5    1    3    3  502    0 -0.13934713690E+02 -0.35668201482E+02 -0.58405001809E+02  0.69997364799E+02  0.47000000000E+01 0. -1.
         -5    1    3    3    0  502  0.82781560241E+02  0.23309921319E+01  0.11794979466E+02  0.83782049275E+02  0.47000000000E+01 0. -1.
        -11    1    1    2    0    0 -0.27400450168E+02  0.36536568882E+02  0.54088833393E+02  0.70790588590E+02  0.00000000000E+00 0.  1.
         11    1    1    2    0    0 -0.41446396383E+02 -0.31993595320E+01 -0.32901447437E+02  0.53014572695E+02  0.00000000000E+00 0. -1.
<mgrwt>
<rscale>  0 0.13997505E+03</rscale>
<asrwt>0</asrwt>
<pdfrwt beam="2">  1        2 0.23308247E-01 0.14654560E+03</pdfrwt>
<pdfrwt beam="1">  1       -2 0.19397072E-01 0.14654560E+03</pdfrwt>
<totfact> 0.49516057E+03</totfact>
</mgrwt>
</event>
<event>
 7    1  0.5928109E-006  0.1425126E+03  0.7546771E-02  0.1220508E+00
         -2   -1    0    0    0  501 -0.00000000000E+00  0.00000000000E+00  0.19682652024E+02  0.19682652024E+02  0.00000000000E+00 0.  1.
          2   -1    0    0  501    0  0.00000000000E+00 -0.00000000000E+00 -0.95152085060E+03  0.95152085060E+03  0.00000000000E+00 0. -1.
         23    2    1    2    0    0  0.59884985198E+02 -0.33107132313E+02 -0.67948599254E+03  0.69427016360E+03  0.12501020897E+03 0.  0.
          5    1    3    3  502    0 -0.98667780999E+00 -0.70647242721E+02 -0.34498917938E+03  0.35218124642E+03  0.47000000000E+01 0.  1.
         -5    1    3    3    0  502  0.60871663008E+02  0.37540110408E+02 -0.33449681316E+03  0.34208891718E+03  0.47000000000E+01 0.  1.
        -11    1    1    2    0    0 -0.15196217276E+02  0.19292986561E+02 -0.48289658895E+01  0.25029248121E+02  0.00000000000E+00 0.  1.
         11    1    1    2    0    0 -0.44688767922E+02  0.13814145752E+02 -0.24752324015E+03  0.25190409090E+03  0.00000000000E+00 0. -1.
<mgrwt>
<rscale>  0 0.13479584E+03</rscale>
<asrwt>0</asrwt>
<pdfrwt beam="2">  1        2 0.14638781E+00 0.14251262E+03</pdfrwt>
<pdfrwt beam="1">  1       -2 0.30281007E-02 0.14251262E+03</pdfrwt>
<totfact> 0.11337188E+04</totfact>
</mgrwt>
</event>
<event>
 7    1  0.5928109E-006  0.1271930E+03  0.7546771E-02  0.1246407E+00
         -3   -1    0    0    0  501 -0.00000000000E+00  0.00000000000E+00  0.12181285841E+03  0.12181285841E+03  0.00000000000E+00 0.  1.
          3   -1    0    0  501    0  0.00000000000E+00 -0.00000000000E+00 -0.17042493308E+03  0.17042493308E+03  0.00000000000E+00 0. -1.
         23    2    1    2    0    0  0.20394666675E+02 -0.11734554885E+02 -0.11931812835E+03  0.17439862332E+03  0.12499768741E+03 0.  0.
          5    1    3    3  502    0  0.41659933256E+02 -0.49859792650E+02 -0.23946092738E+02  0.69405002121E+02  0.47000000000E+01 0. -1.
         -5    1    3    3    0  502 -0.21265266582E+02  0.38125237764E+02 -0.95372035608E+02  0.10499362120E+03  0.47000000000E+01 0. -1.
        -11    1    1    2    0    0  0.31535916972E+02 -0.15634969713E+02  0.21530742875E+02  0.41261837403E+02  0.00000000000E+00 0. -1.
         11    1    1    2    0    0 -0.51930583646E+02  0.27369524598E+02  0.49175310798E+02  0.76577330763E+02  0.00000000000E+00 0.  1.
<mgrwt>
<rscale>  0 0.11801580E+03</rscale>
<asrwt>0</asrwt>
<pdfrwt beam="2">  1        3 0.26219220E-01 0.12719302E+03</pdfrwt>
<pdfrwt beam="1">  1       -3 0.18740440E-01 0.12719302E+03</pdfrwt>
<totfact> 0.79311578E+02</totfact>
</mgrwt>
</event>
<event>
 7    1  0.5928109E-006  0.1316925E+03  0.7546771E-02  0.1235513E+00
          2   -1    0    0  501    0  0.00000000000E+00  0.00000000000E+00  0.23654594943E+03  0.23654594943E+03  0.00000000000E+00 0. -1.
         -2   -1    0    0    0  501 -0.00000000000E+00 -0.00000000000E+00 -0.60237867163E+02  0.60237867163E+02  0.00000000000E+00 0.  1.
         23    2    1    2    0    0  0.23649213365E+02 -0.34059030517E+02  0.83363124534E+02  0.15585995818E+03  0.12499445259E+03 0.  0.
          5    1    3    3  502    0 -0.17776740115E+01  0.25749804699E+02  0.86732635729E+02  0.90613755399E+02  0.47000000000E+01 0.  1.
         -5    1    3    3    0  502  0.25426887377E+02 -0.59808835216E+02 -0.33695111949E+01  0.65246202781E+02  0.47000000000E+01 0.  1.
        -11    1    1    2    0    0 -0.26268054111E+02  0.11174517231E+02 -0.13810767546E+02  0.31711477454E+02  0.00000000000E+00 0.  1.
         11    1    1    2    0    0  0.26188407461E+01  0.22884513286E+02  0.10675572528E+03  0.10921238096E+03  0.00000000000E+00 0. -1.
<mgrwt>
<rscale>  0 0.12471642E+03</rscale>
<asrwt>0</asrwt>
<pdfrwt beam="1">  1        2 0.36391684E-01 0.13169251E+03</pdfrwt>
<pdfrwt beam="2">  1       -2 0.92673643E-02 0.13169251E+03</pdfrwt>
<totfact> 0.10002462E+04</totfact>
</mgrwt>
</event>
<event>
 7    1  0.5928109E-006  0.1384482E+03  0.7546771E-02  0.1230046E+00
         -1   -1    0    0    0  501 -0.00000000000E+00  0.00000000000E+00  0.28491084830E+02  0.28491084830E+02  0.00000000000E+00 0.  1.
          1   -1    0    0  501    0  0.00000000000E+00 -0.00000000000E+00 -0.76320084426E+03  0.76320084426E+03  0.00000000000E+00 0. -1.
         23    2    1    2    0    0 -0.13833796461E+02  0.57917593556E+02 -0.63180107685E+03  0.64679246904E+03  0.12498830235E+03 0.  0.
          5    1    3    3  502    0 -0.49645116180E+02 -0.12187695127E+02 -0.36461062271E+03  0.36820669965E+03  0.47000000000E+01 0. -1.
         -5    1    3    3    0  502  0.35811319719E+02  0.70105288683E+02 -0.26719045414E+03  0.27858576939E+03  0.47000000000E+01 0. -1.
        -11    1    1    2    0    0  0.26150959839E+02 -0.58644916728E+02 -0.11232165134E+03  0.12938026248E+03  0.00000000000E+00 0. -1.
         11    1    1    2    0    0 -0.12317163379E+02  0.72732317205E+00  0.94129687586E+01  0.15519197581E+02  0.00000000000E+00 0.  1.
<mgrwt>
<rscale>  0 0.12826971E+03</rscale>
<asrwt>0</asrwt>
<pdfrwt beam="2">  1        1 0.11741551E+00 0.13844818E+03</pdfrwt>
<pdfrwt beam="1">  1       -1 0.43832439E-02 0.13844818E+03</pdfrwt>
<totfact> 0.51602926E+03</totfact>
</mgrwt>
</event>
<event>
 6    1  0.5928109E-006  0.1381774E+03  0.7546771E-02  0.1235380E+00
          1   -1    0    0  501    0  0.00000000000E+00  0.00000000000E+00  0.75313138833E+03  0.75313138833E+03  0.00000000000E+00 0. -1.
         -1   -1    0    0    0  501 -0.00000000000E+00 -0.00000000000E+00 -0.22671113020E+03  0.22671113020E+03  0.00000000000E+00 0.  1.
          5    1    1    2  502    0 -0.21261941167E+02 -0.53239077313E+02  0.56662791928E+03  0.56953995329E+03  0.47000000000E+01 0. -1.
         -5    1    1    2    0  502  0.10562631316E+02  0.57877993008E+02  0.17048829711E+03  0.18041557778E+03  0.47000000000E+01 0.  1.
        -11    1    1    2    0    0 -0.39717631773E+02  0.59832323210E+01 -0.10099079593E+03  0.10868500451E+03  0.00000000000E+00 0. -1.
         11    1    1    2    0    0  0.50416941624E+02 -0.10622148015E+02 -0.10970516232E+03  0.12120198295E+03  0.00000000000E+00 0.  1.
<mgrwt>
<rscale>  0 0.12480110E+03</rscale>
<asrwt>0</asrwt>
<pdfrwt beam="1">  1        1 0.11586637E+00 0.13817736E+03</pdfrwt>
<pdfrwt beam="2">  1       -1 0.34878636E-01 0.13817736E+03</pdfrwt>
<totfact> 0.20615221E+02</totfact>
</mgrwt>
</event>
<event>
 7    1  0.5928109E-006  0.1768312E+03  0.7546771E-02  0.1176773E+00
          2   -1    0    0  501    0  0.00000000000E+00  0.00000000000E+00  0.17586571819E+04  0.17586571819E+04  0.00000000000E+00 0. -1.
         -2   -1    0    0    0  501 -0.00000000000E+00 -0.00000000000E+00 -0.15954794138E+02  0.15954794138E+02  0.00000000000E+00 0.  1.
         23    2    1    2    0    0  0.12278404449E+03 -0.23797688038E+02  0.10544096923E+04  0.10691347340E+04  0.12500811480E+03 0.  0.
          5    1    3    3  502    0  0.11479962061E+03 -0.59658670075E+02  0.63315865634E+03  0.64625852714E+03  0.47000000000E+01 0. -1.
         -5    1    3    3    0  502  0.79844238845E+01  0.35860982037E+02  0.42125103594E+03  0.42287620687E+03  0.47000000000E+01 0. -1.
        -11    1    1    2    0    0  0.30867240694E+00 -0.21318860865E+02  0.60642833690E+02  0.64281742238E+02  0.00000000000E+00 0.  1.
         11    1    1    2    0    0 -0.12309271690E+03  0.45116548903E+02  0.62764986184E+03  0.64119549983E+03  0.00000000000E+00 0. -1.
<mgrwt>
<rscale>  0 0.17103514E+03</rscale>
<asrwt>0</asrwt>
<pdfrwt beam="1">  1        2 0.27056249E+00 0.17683122E+03</pdfrwt>
<pdfrwt beam="2">  1       -2 0.24545851E-02 0.17683122E+03</pdfrwt>
<totfact> 0.56435606E+03</totfact>
</mgrwt>
</event>
<event>
 7    1  0.5928109E-006  0.1781395E+03  0.7546771E-02  0.1175470E+00
         -1   -1    0    0    0  501 -0.00000000000E+00  0.00000000000E+00  0.27929122996E+03  0.27929122996E+03  0.00000000000E+00 0.  1.
          1   -1    0    0  501    0  0.00000000000E+00 -0.00000000000E+00 -0.10280684067E+03  0.10280684067E+03  0.00000000000E+00 0. -1.
         23    2    1    2    0    0  0.33316620103E+02 -0.12246689599E+03  0.61799603972E+02  0.18855466237E+03  0.12500212743E+03 0.  0.
          5    1    3    3  502    0  0.42470773730E+02 -0.11333282416E+03 -0.41434781634E+01  0.12119139435E+03  0.47000000000E+01 0.  1.
         -5    1    3    3    0  502 -0.91541536262E+01 -0.91340718294E+01  0.65943082135E+02  0.67363268020E+02  0.47000000000E+01 0.  1.
        -11    1    1    2    0    0 -0.63184286838E+02  0.80236093775E+02  0.90445456488E+02  0.13642017976E+03  0.00000000000E+00 0. -1.
         11    1    1    2    0    0  0.29867666735E+02  0.42230802214E+02  0.24239328825E+02  0.57123228496E+02  0.00000000000E+00 0.  1.
<mgrwt>
<rscale>  0 0.17230001E+03</rscale>
<asrwt>0</asrwt>
<pdfrwt beam="2">  1        1 0.15816437E-01 0.17813947E+03</pdfrwt>
<pdfrwt beam="1">  1       -1 0.42967881E-01 0.17813947E+03</pdfrwt>
<totfact> 0.18567846E+03</totfact>
</mgrwt>
</event>
<event>
 7    1  0.5928109E-006  0.1305674E+03  0.7546771E-02  0.1238910E+00
         -1   -1    0    0    0  501 -0.00000000000E+00  0.00000000000E+00  0.16612293788E+02  0.16612293788E+02  0.00000000000E+00 0.  1.
          1   -1    0    0  501    0  0.00000000000E+00 -0.00000000000E+00 -0.98316825902E+03  0.98316825902E+03  0.00000000000E+00 0. -1.
         23    2    1    2    0    0 -0.25248021774E+02 -0.34324448530E+02 -0.74182235796E+03  0.75322524314E+03  0.12341890362E+03 0.  0.
          5    1    3    3  502    0 -0.19924767177E+02 -0.79383825920E+02 -0.54858871110E+03  0.55468049552E+03  0.47000000000E+01 0. -1.
         -5    1    3    3    0  502 -0.53232545966E+01  0.45059377390E+02 -0.19323364686E+03  0.19854474763E+03  0.47000000000E+01 0.  1.
        -11    1    1    2    0    0  0.44101716803E+02  0.34421218861E+01 -0.19431066372E+03  0.19928232150E+03  0.00000000000E+00 0. -1.
         11    1    1    2    0    0 -0.18853695029E+02  0.30882326644E+02 -0.30422943550E+02  0.47272988159E+02  0.00000000000E+00 0.  1.
<mgrwt>
<rscale>  0 0.12257394E+03</rscale>
<asrwt>0</asrwt>
<pdfrwt beam="2">  1        1 0.15125668E+00 0.13056744E+03</pdfrwt>
<pdfrwt beam="1">  1       -1 0.25557370E-02 0.13056744E+03</pdfrwt>
<totfact> 0.76102322E+03</totfact>
</mgrwt>
</event>
<event>
 7    1  0.5928109E-006  0.1699347E+03  0.7546771E-02  0.1184598E+00
          1   -1    0    0  501    0  0.00000000000E+00  0.00000000000E+00  0.47284427017E+02  0.47284427017E+02  0.00000000000E+00 0. -1.
         -1   -1    0    0    0  501 -0.00000000000E+00 -0.00000000000E+00 -0.57655792105E+03  0.57655792105E+03  0.00000000000E+00 0.  1.
         23    2    1    2    0    0 -0.10311291911E+03 -0.51191045547E+02 -0.19313115444E+03  0.25724980260E+03  0.12500008357E+03 0.  0.
          5    1    3    3  502    0  0.21035901847E+02 -0.33166026283E+02 -0.22803660585E+02  0.45657325831E+02  0.47000000000E+01 0. -1.
         -5    1    3    3    0  502 -0.12414882095E+03 -0.18025019264E+02 -0.17032749385E+03  0.21159247677E+03  0.47000000000E+01 0. -1.
        -11    1    1    2    0    0  0.10641687734E+03  0.34406549255E+02 -0.32996647387E+03  0.34840527593E+03  0.00000000000E+00 0.  1.
         11    1    1    2    0    0 -0.33039582359E+01  0.16784496292E+02 -0.61758657229E+01  0.18187269537E+02  0.00000000000E+00 0. -1.
<mgrwt>
<rscale>  0 0.16368518E+03</rscale>
<asrwt>0</asrwt>
<pdfrwt beam="1">  1        1 0.72745272E-02 0.16993475E+03</pdfrwt>
<pdfrwt beam="2">  1       -1 0.88701220E-01 0.16993475E+03</pdfrwt>
<totfact> 0.12815702E+03</totfact>
</mgrwt>
</event>
<event>
 7    1  0.5928109E-006  0.1316795E+03  0.7546771E-02  0.1234786E+00
         -2   -1    0    0    0  501 -0.00000000000E+00  0.00000000000E+00  0.84130382862E+01  0.84130382862E+01  0.00000000000E+00 0.  1.
          2   -1    0    0  501    0  0.00000000000E+00 -0.00000000000E+00 -0.36505832291E+04  0.36505832291E+04  0.00000000000E+00 0. -1.
         23    2    1    2    0    0 -0.21168438905E+02  0.34881998654E+02 -0.32405839403E+04  0.32432582021E+04  0.12519838265E+03 0.  0.
          5    1    3    3  502    0 -0.29943372255E+02  0.39430913042E+02 -0.32155717525E+04  0.32159563411E+04  0.47000000000E+01 0. -1.
         -5    1    3    3    0  502  0.87749333498E+01 -0.45489143877E+01 -0.25012187778E+02  0.27301861015E+02  0.47000000000E+01 0.  1.
        -11    1    1    2    0    0  0.61094428687E+02 -0.22518916196E+02 -0.26616193031E+03  0.27401059095E+03  0.00000000000E+00 0.  1.
         11    1    1    2    0    0 -0.39925989782E+02 -0.12363082458E+02 -0.13542432021E+03  0.14172747430E+03  0.00000000000E+00 0. -1.
<mgrwt>
<rscale>  0 0.12518130E+03</rscale>
<asrwt>0</asrwt>
<pdfrwt beam="2">  1        2 0.56162803E+00 0.13167950E+03</pdfrwt>
<pdfrwt beam="1">  1       -2 0.12943140E-02 0.13167950E+03</pdfrwt>
<totfact> 0.12211946E+03</totfact>
</mgrwt>
</event>
<event>
 6    1  0.5928109E-006  0.2185784E+03  0.7546771E-02  0.1156711E+00
          1   -1    0    0  501    0  0.00000000000E+00  0.00000000000E+00  0.56212285286E+03  0.56212285286E+03  0.00000000000E+00 0. -1.
         -1   -1    0    0    0  501 -0.00000000000E+00 -0.00000000000E+00 -0.54636489874E+02  0.54636489874E+02  0.00000000000E+00 0.  1.
          5    1    1    2  502    0 -0.32790276682E+02 -0.25094002229E+02  0.24204236043E+03  0.24558400891E+03  0.47000000000E+01 0. -1.
         -5    1    1    2    0  502  0.95573869300E+02 -0.45041031160E+02  0.44332447691E+02  0.11467569446E+03  0.47000000000E+01 0.  1.
        -11    1    1    2    0    0 -0.22453934209E+02  0.12491858503E+01  0.11678878224E+01  0.22518960649E+02  0.00000000000E+00 0.  1.
         11    1    1    2    0    0 -0.40329658409E+02  0.68885847539E+02  0.21994366704E+03  0.23398067871E+03  0.00000000000E+00 0. -1.
<mgrwt>
<rscale>  0 0.19195388E+03</rscale>
<asrwt>0</asrwt>
<pdfrwt beam="1">  1        1 0.86480435E-01 0.21857841E+03</pdfrwt>
<pdfrwt beam="2">  1       -1 0.84056142E-02 0.21857841E+03</pdfrwt>
<totfact> 0.30446018E+03</totfact>
</mgrwt>
</event>
<event>
 7    1  0.5928109E-006  0.1348115E+03  0.7546771E-02  0.1231889E+00
          1   -1    0    0  501    0  0.00000000000E+00  0.00000000000E+00  0.17477593629E+04  0.17477593629E+04  0.00000000000E+00 0. -1.
         -1   -1    0    0    0  501 -0.00000000000E+00 -0.00000000000E+00 -0.92478284177E+01  0.92478284177E+01  0.00000000000E+00 0.  1.
         23    2    1    2    0    0  0.24932301123E+02  0.43987686306E+02  0.12379484142E+04  0.12452672105E+04  0.12497044901E+03 0.  0.
          5    1    3    3  502    0 -0.47750946543E+02  0.79705724162E+01  0.63639015948E+03  0.63824619701E+03  0.47000000000E+01 0.  1.
         -5    1    3    3    0  502  0.72683247666E+02  0.36017113890E+02  0.60155825474E+03  0.60702101350E+03  0.47000000000E+01 0.  1.
        -11    1    1    2    0    0 -0.24296010425E+02 -0.73039677551E+02  0.38079765192E+03  0.38849960402E+03  0.00000000000E+00 0.  1.
         11    1    1    2    0    0 -0.63629069767E+00  0.29051991245E+02  0.11976546830E+03  0.12324037674E+03  0.00000000000E+00 0. -1.
<mgrwt>
<rscale>  0 0.12705714E+03</rscale>
<asrwt>0</asrwt>
<pdfrwt beam="1">  1        1 0.26888579E+00 0.13481153E+03</pdfrwt>
<pdfrwt beam="2">  1       -1 0.14227442E-02 0.13481153E+03</pdfrwt>
<totfact> 0.54620461E+03</totfact>
</mgrwt>
</event>
<event>
 7    1  0.5928109E-006  0.1493595E+03  0.7546771E-02  0.1210836E+00
          1   -1    0    0  501    0  0.00000000000E+00  0.00000000000E+00  0.13799004190E+03  0.13799004190E+03  0.00000000000E+00 0. -1.
         -1   -1    0    0    0  501 -0.00000000000E+00 -0.00000000000E+00 -0.13781028811E+03  0.13781028811E+03  0.00000000000E+00 0.  1.
         23    2    1    2    0    0  0.69197175500E+02  0.43534159978E+02  0.25749485123E+02  0.15156283256E+03  0.12499913619E+03 0.  0.
          5    1    3    3  502    0 -0.18919678538E+02  0.42295122770E+02 -0.21683965164E+02  0.51372327097E+02  0.47000000000E+01 0.  1.
         -5    1    3    3    0  502  0.88116854038E+02  0.12390372080E+01  0.47433450286E+02  0.10019050546E+03  0.47000000000E+01 0.  1.
        -11    1    1    2    0    0 -0.45996902982E+02 -0.39434767008E+02 -0.58185778848E+02  0.84002385639E+02  0.00000000000E+00 0.  1.
         11    1    1    2    0    0 -0.23200272518E+02 -0.40993929701E+01  0.32616047511E+02  0.40235111816E+02  0.00000000000E+00 0. -1.
<mgrwt>
<rscale>  0 0.14186920E+03</rscale>
<asrwt>0</asrwt>
<pdfrwt beam="1">  1        1 0.21229237E-01 0.14935949E+03</pdfrwt>
<pdfrwt beam="2">  1       -1 0.21201583E-01 0.14935949E+03</pdfrwt>
<totfact> 0.41738283E+03</totfact>
</mgrwt>
</event>
<event>
 7    1  0.5928109E-006  0.1422811E+03  0.7546771E-02  0.1221138E+00
         -2   -1    0    0    0  501 -0.00000000000E+00  0.00000000000E+00  0.50846856427E+02  0.50846856427E+02  0.00000000000E+00 0.  1.
          2   -1    0    0  501    0  0.00000000000E+00 -0.00000000000E+00 -0.33629327182E+03  0.33629327182E+03  0.00000000000E+00 0. -1.
         23    2    1    2    0    0  0.54753965786E+02 -0.40357177218E+02 -0.19967586695E+03  0.24518229699E+03  0.12496882967E+03 0.  0.
          5    1    3    3  502    0  0.10727746123E+02 -0.15349527068E+02 -0.19292133777E+03  0.19388508216E+03  0.47000000000E+01 0.  1.
         -5    1    3    3    0  502  0.44026219664E+02 -0.25007650150E+02 -0.67545291819E+01  0.51297214821E+02  0.47000000000E+01 0.  1.
        -11    1    1    2    0    0 -0.37456237268E+02 -0.15002333607E+02 -0.24301635398E+01  0.40422090727E+02  0.00000000000E+00 0.  1.
         11    1    1    2    0    0 -0.17297728519E+02  0.55359510826E+02 -0.83340384903E+02  0.10153574054E+03  0.00000000000E+00 0. -1.
<mgrwt>
<rscale>  0 0.13435142E+03</rscale>
<asrwt>0</asrwt>
<pdfrwt beam="2">  1        2 0.51737426E-01 0.14228108E+03</pdfrwt>
<pdfrwt beam="1">  1       -2 0.78225933E-02 0.14228108E+03</pdfrwt>
<totfact> 0.90049668E+03</totfact>
</mgrwt>
</event>
<event>
 7    1  0.5928109E-006  0.1826473E+03  0.7546771E-02  0.1170757E+00
          1   -1    0    0  501    0  0.00000000000E+00  0.00000000000E+00  0.25170899246E+03  0.25170899246E+03  0.00000000000E+00 0. -1.
         -1   -1    0    0    0  501 -0.00000000000E+00 -0.00000000000E+00 -0.32229940382E+03  0.32229940382E+03  0.00000000000E+00 0.  1.
         23    2    1    2    0    0 -0.97306103178E+02  0.90916759793E+02  0.19262383671E+03  0.26545054832E+03  0.12500286480E+03 0.  0.
          5    1    3    3  502    0 -0.49626185958E+02  0.74367382064E+02  0.28927470736E+02  0.94085888479E+02  0.47000000000E+01 0. -1.
         -5    1    3    3    0  502 -0.47679917220E+02  0.16549377729E+02  0.16369636597E+03  0.17136465984E+03  0.47000000000E+01 0. -1.
        -11    1    1    2    0    0  0.48891662118E+02  0.45006985716E+01 -0.50412934682E+02  0.70371264701E+02  0.00000000000E+00 0. -1.
         11    1    1    2    0    0  0.48414441060E+02 -0.95417458365E+02 -0.21280131339E+03  0.23818658326E+03  0.00000000000E+00 0.  1.
<mgrwt>
<rscale>  0 0.17698130E+03</rscale>
<asrwt>0</asrwt>
<pdfrwt beam="1">  1        1 0.38724460E-01 0.18264734E+03</pdfrwt>
<pdfrwt beam="2">  1       -1 0.49584524E-01 0.18264734E+03</pdfrwt>
<totfact> 0.46027934E+02</totfact>
</mgrwt>
</event>
<event>
 7    1  0.5928109E-006  0.1300768E+03  0.7546771E-02  0.1242509E+00
          1   -1    0    0  501    0  0.00000000000E+00  0.00000000000E+00  0.51585162858E+03  0.51585162858E+03  0.00000000000E+00 0. -1.
         -1   -1    0    0    0  501 -0.00000000000E+00 -0.00000000000E+00 -0.39499155254E+02  0.39499155254E+02  0.00000000000E+00 0.  1.
         23    2    1    2    0    0 -0.11428363607E+02  0.34106520152E+02  0.43018160734E+03  0.44941761004E+03  0.12500444277E+03 0.  0.
          5    1    3    3  502    0  0.33935790695E+02 -0.33837922840E+02  0.16759189237E+03  0.17437251876E+03  0.47000000000E+01 0. -1.
         -5    1    3    3    0  502 -0.45364154302E+02  0.67944442992E+02  0.26258971497E+03  0.27504509128E+03  0.47000000000E+01 0. -1.
        -11    1    1    2    0    0  0.94184154329E+01  0.29871656431E+02  0.15925008554E+02  0.35137277991E+02  0.00000000000E+00 0.  1.
         11    1    1    2    0    0  0.20099481740E+01 -0.63978176583E+02  0.30245857437E+02  0.70795895804E+02  0.00000000000E+00 0. -1.
<mgrwt>
<rscale>  0 0.12035687E+03</rscale>
<asrwt>0</asrwt>
<pdfrwt beam="1">  1        1 0.79361784E-01 0.13007680E+03</pdfrwt>
<pdfrwt beam="2">  1       -1 0.60767935E-02 0.13007680E+03</pdfrwt>
<totfact> 0.54524950E+03</totfact>
</mgrwt>
</event>
<event>
 7    1  0.5928109E-006  0.1372226E+03  0.7546771E-02  0.1228241E+00
         -1   -1    0    0    0  501 -0.00000000000E+00  0.00000000000E+00  0.32655372222E+02  0.32655372222E+02  0.00000000000E+00 0.  1.
          1   -1    0    0  501    0  0.00000000000E+00 -0.00000000000E+00 -0.58392246953E+03  0.58392246953E+03  0.00000000000E+00 0. -1.
         23    2    1    2    0    0 -0.53810632078E+02  0.17660569587E+02 -0.44037952154E+03  0.46126366872E+03  0.12499027663E+03 0.  0.
          5    1    3    3  502    0 -0.94341458051E+02  0.13353194718E+02 -0.28415125648E+03  0.29973762706E+03  0.47000000000E+01 0. -1.
         -5    1    3    3    0  502  0.40530825974E+02  0.43073748693E+01 -0.15622826506E+03  0.16152604167E+03  0.47000000000E+01 0. -1.
        -11    1    1    2    0    0  0.49912341323E+02 -0.42039399165E+02 -0.32053708607E+02  0.72704835699E+02  0.00000000000E+00 0.  1.
         11    1    1    2    0    0  0.38982907548E+01  0.24378829577E+02 -0.78833867160E+02  0.82609337328E+02  0.00000000000E+00 0. -1.
<mgrwt>
<rscale>  0 0.12947205E+03</rscale>
<asrwt>0</asrwt>
<pdfrwt beam="2">  1        1 0.89834222E-01 0.13722263E+03</pdfrwt>
<pdfrwt beam="1">  1       -1 0.50239037E-02 0.13722263E+03</pdfrwt>
<totfact> 0.61503717E+03</totfact>
</mgrwt>
</event>
<event>
 7    1  0.5928109E-006  0.1806818E+03  0.7546771E-02  0.1172586E+00
          2   -1    0    0  501    0  0.00000000000E+00  0.00000000000E+00  0.27697407484E+03  0.27697407484E+03  0.00000000000E+00 0. -1.
         -2   -1    0    0    0  501 -0.00000000000E+00 -0.00000000000E+00 -0.10800398782E+03  0.10800398782E+03  0.00000000000E+00 0.  1.
         23    2    1    2    0    0  0.12823996007E+03 -0.23947915043E+02  0.12430444408E+03  0.21931140991E+03  0.12500763858E+03 0.  0.
          5    1    3    3  502    0  0.21482288416E+02 -0.62988176616E+02  0.50915205667E+02  0.83925248150E+02  0.47000000000E+01 0.  1.
         -5    1    3    3    0  502  0.10675767166E+03  0.39040261573E+02  0.73389238413E+02  0.13538616176E+03  0.47000000000E+01 0.  1.
        -11    1    1    2    0    0 -0.80046931458E+02  0.59039771280E+02  0.21863376355E+02  0.10183915286E+03  0.00000000000E+00 0.  1.
         11    1    1    2    0    0 -0.48193028614E+02 -0.35091856237E+02  0.22802266588E+02  0.63827499894E+02  0.00000000000E+00 0. -1.
<mgrwt>
<rscale>  0 0.17514495E+03</rscale>
<asrwt>0</asrwt>
<pdfrwt beam="1">  1        2 0.42611396E-01 0.18068176E+03</pdfrwt>
<pdfrwt beam="2">  1       -2 0.16615998E-01 0.18068176E+03</pdfrwt>
<totfact> 0.33666975E+03</totfact>
</mgrwt>
</event>
<event>
 7    1  0.5928109E-006  0.2079475E+03  0.7546771E-02  0.1148417E+00
         -2   -1    0    0    0  501 -0.00000000000E+00  0.00000000000E+00  0.15953067690E+03  0.15953067690E+03  0.00000000000E+00 0.  1.
          2   -1    0    0  501    0  0.00000000000E+00 -0.00000000000E+00 -0.24592159197E+03  0.24592159197E+03  0.00000000000E+00 0. -1.
         23    2    1    2    0    0 -0.10048563991E+03 -0.13235971991E+03 -0.76527589291E+02  0.22158209369E+03  0.12500277213E+03 0.  0.
          5    1    3    3  502    0  0.11223441514E+02 -0.40428882407E+02  0.20888726781E+02  0.47105085486E+02  0.47000000000E+01 0. -1.
         -5    1    3    3    0  502 -0.11170908142E+03 -0.91930837499E+02 -0.97416316072E+02  0.17447700820E+03  0.47000000000E+01 0. -1.
        -11    1    1    2    0    0  0.55598622370E+02  0.50969073839E+02  0.31995850681E+02  0.81931604148E+02  0.00000000000E+00 0.  1.
         11    1    1    2    0    0  0.44887017535E+02  0.81390646067E+02 -0.41859176464E+02  0.10193857103E+03  0.00000000000E+00 0. -1.
<mgrwt>
<rscale>  0 0.20157498E+03</rscale>
<asrwt>0</asrwt>
<pdfrwt beam="2">  1        2 0.37834091E-01 0.20794747E+03</pdfrwt>
<pdfrwt beam="1">  1       -2 0.24543181E-01 0.20794747E+03</pdfrwt>
<totfact> 0.19747435E+03</totfact>
</mgrwt>
</event>
<event>
 7    1  0.5928109E-006  0.1984367E+03  0.7546771E-02  0.1155869E+00
          1   -1    0    0  501    0  0.00000000000E+00  0.00000000000E+00  0.94613361994E+02  0.94613361994E+02  0.00000000000E+00 0. -1.
         -1   -1    0    0    0  501 -0.00000000000E+00 -0.00000000000E+00 -0.58655792452E+03  0.58655792452E+03  0.00000000000E+00 0.  1.
         23    2    1    2    0    0  0.58543043792E+02  0.14256491988E+03 -0.49441239483E+02  0.20450316531E+03  0.12500025642E+03 0.  0.
          5    1    3    3  502    0 -0.16197558813E+02 -0.15846606276E+02 -0.75659611410E+01  0.24347681819E+02  0.47000000000E+01 0.  1.
         -5    1    3    3    0  502  0.74740602605E+02  0.15841152616E+03 -0.41875278342E+02  0.18015548349E+03  0.47000000000E+01 0.  1.
        -11    1    1    2    0    0 -0.33920210061E+02 -0.45960478168E+02 -0.28197264300E+03  0.28770039556E+03  0.00000000000E+00 0.  1.
         11    1    1    2    0    0 -0.24622833732E+02 -0.96604441711E+02 -0.16053068004E+03  0.18896772564E+03  0.00000000000E+00 0. -1.
<mgrwt>
<rscale>  0 0.19290272E+03</rscale>
<asrwt>0</asrwt>
<pdfrwt beam="1">  1        1 0.14555902E-01 0.19843666E+03</pdfrwt>
<pdfrwt beam="2">  1       -1 0.90239681E-01 0.19843666E+03</pdfrwt>
<totfact> 0.49080036E+02</totfact>
</mgrwt>
</event>
<event>
 7    1  0.5928109E-006  0.1323683E+03  0.7546771E-02  0.1235470E+00
          1   -1    0    0  501    0  0.00000000000E+00  0.00000000000E+00  0.37301681641E+02  0.37301681641E+02  0.00000000000E+00 0.  1.
         -1   -1    0    0    0  501 -0.00000000000E+00 -0.00000000000E+00 -0.37931844278E+03  0.37931844278E+03  0.00000000000E+00 0. -1.
         23    2    1    2    0    0  0.30978813283E+02 -0.30612005083E+02 -0.17090078872E+03  0.21616764867E+03  0.12499836407E+03 0.  0.
          5    1    3    3  502    0  0.49565818805E+02  0.37026204991E+02 -0.81934049162E+02  0.10277640129E+03  0.47000000000E+01 0. -1.
         -5    1    3    3    0  502 -0.18587005522E+02 -0.67638210074E+02 -0.88966739555E+02  0.11339124738E+03  0.47000000000E+01 0. -1.
        -11    1    1    2    0    0  0.26701165650E+02 -0.68508980232E+01 -0.18911310617E+02  0.33429399038E+02  0.00000000000E+00 0. -1.
         11    1    1    2    0    0 -0.57679978933E+02  0.37462903106E+02 -0.15220466180E+03  0.16702307671E+03  0.00000000000E+00 0.  1.
<mgrwt>
<rscale>  0 0.12474379E+03</rscale>
<asrwt>0</asrwt>
<pdfrwt beam="1">  1        1 0.57387204E-02 0.13236832E+03</pdfrwt>
<pdfrwt beam="2">  1       -1 0.58356681E-01 0.13236832E+03</pdfrwt>
<totfact> 0.40322576E+03</totfact>
</mgrwt>
</event>
<event>
 7    1  0.5928109E-006  0.1280626E+03  0.7546771E-02  0.1244874E+00
          2   -1    0    0  501    0  0.00000000000E+00  0.00000000000E+00  0.89130593168E+03  0.89130593168E+03  0.00000000000E+00 0. -1.
         -2   -1    0    0    0  501 -0.00000000000E+00 -0.00000000000E+00 -0.15949993560E+02  0.15949993560E+02  0.00000000000E+00 0.  1.
         23    2    1    2    0    0  0.11278682148E+02  0.25423959145E+02  0.65165384035E+03  0.66411803518E+03  0.12500580244E+03 0.  0.
          5    1    3    3  502    0 -0.72610393765E+01 -0.24076127791E+02  0.53883340939E+03  0.53944037269E+03  0.47000000000E+01 0.  1.
         -5    1    3    3    0  502  0.18539721525E+02  0.49500086936E+02  0.11282043096E+03  0.12467766249E+03  0.47000000000E+01 0.  1.
        -11    1    1    2    0    0 -0.36887510814E+02 -0.39840760901E+02  0.81492327775E+02  0.97923307590E+02  0.00000000000E+00 0.  1.
         11    1    1    2    0    0  0.25608828665E+02  0.14416801756E+02  0.14220977001E+03  0.14521458248E+03  0.00000000000E+00 0. -1.
<mgrwt>
<rscale>  0 0.11892909E+03</rscale>
<asrwt>0</asrwt>
<pdfrwt beam="1">  1        2 0.13712395E+00 0.12806263E+03</pdfrwt>
<pdfrwt beam="2">  1       -2 0.24538459E-02 0.12806263E+03</pdfrwt>
<totfact> 0.16700611E+04</totfact>
</mgrwt>
</event>
<event>
 7    1  0.5928109E-006  0.1469615E+03  0.7546771E-02  0.1213427E+00
          1   -1    0    0  501    0  0.00000000000E+00  0.00000000000E+00  0.79858400786E+02  0.79858400786E+02  0.00000000000E+00 0. -1.
         -1   -1    0    0    0  501 -0.00000000000E+00 -0.00000000000E+00 -0.30447009950E+03  0.30447009950E+03  0.00000000000E+00 0.  1.
         23    2    1    2    0    0  0.42758609684E+02 -0.64379273055E+02 -0.22211748668E+02  0.14863061116E+03  0.12499882917E+03 0.  0.
          5    1    3    3  502    0 -0.10566456046E+02 -0.50301405843E+02 -0.61844653461E+02  0.80552669632E+02  0.47000000000E+01 0. -1.
         -5    1    3    3    0  502  0.53325065730E+02 -0.14077867212E+02  0.39632904792E+02  0.68077941528E+02  0.47000000000E+01 0. -1.
        -11    1    1    2    0    0 -0.17620120725E+02  0.70113428030E+02 -0.19631826489E+03  0.20920617241E+03  0.00000000000E+00 0.  1.
         11    1    1    2    0    0 -0.25138488959E+02 -0.57341549742E+01 -0.60816851589E+01  0.26491716720E+02  0.00000000000E+00 0. -1.
<mgrwt>
<rscale>  0 0.13992694E+03</rscale>
<asrwt>0</asrwt>
<pdfrwt beam="1">  1        1 0.12285908E-01 0.14696155E+03</pdfrwt>
<pdfrwt beam="2">  1       -1 0.46841553E-01 0.14696155E+03</pdfrwt>
<totfact> 0.21959060E+03</totfact>
</mgrwt>
</event>
<event>
 7    1  0.5928109E-006  0.1329629E+03  0.7546771E-02  0.1236917E+00
          3   -1    0    0  501    0  0.00000000000E+00  0.00000000000E+00  0.28867334561E+03  0.28867334561E+03  0.00000000000E+00 0. -1.
         -3   -1    0    0    0  501 -0.00000000000E+00 -0.00000000000E+00 -0.47010402032E+02  0.47010402032E+02  0.00000000000E+00 0.  1.
         23    2    1    2    0    0  0.19613854755E+02  0.40848974124E+02  0.13973486334E+03  0.19288590367E+03  0.12500319122E+03 0.  0.
          5    1    3    3  502    0  0.61044534722E+02  0.53609081031E+02  0.12007586950E+03  0.14505403553E+03  0.47000000000E+01 0.  1.
         -5    1    3    3    0  502 -0.41430679967E+02 -0.12760106908E+02  0.19658993848E+02  0.47831868141E+02  0.47000000000E+01 0.  1.
        -11    1    1    2    0    0  0.34344467161E+02 -0.22144519345E+02  0.56999833267E+02  0.70134892558E+02  0.00000000000E+00 0. -1.
         11    1    1    2    0    0 -0.53958321916E+02 -0.18704454779E+02  0.44928246970E+02  0.72662951416E+02  0.00000000000E+00 0.  1.
<mgrwt>
<rscale>  0 0.12382496E+03</rscale>
<asrwt>0</asrwt>
<pdfrwt beam="1">  1        3 0.44411283E-01 0.13296293E+03</pdfrwt>
<pdfrwt beam="2">  1       -3 0.72323698E-02 0.13296293E+03</pdfrwt>
<totfact> 0.14590857E+03</totfact>
</mgrwt>
</event>
<event>
 7    1  0.5928109E-006  0.1267447E+03  0.7546771E-02  0.1247101E+00
          1   -1    0    0  501    0  0.00000000000E+00  0.00000000000E+00  0.32133176082E+03  0.32133176082E+03  0.00000000000E+00 0. -1.
         -1   -1    0    0    0  501 -0.00000000000E+00 -0.00000000000E+00 -0.40147762273E+02  0.40147762273E+02  0.00000000000E+00 0.  1.
         23    2    1    2    0    0  0.20448815995E+02 -0.52563573145E+01  0.20267347837E+03  0.23904133614E+03  0.12497374997E+03 0.  0.
          5    1    3    3  502    0  0.40647155688E+02 -0.54880562153E+01  0.65218253862E+01  0.41796342339E+02  0.47000000000E+01 0.  1.
         -5    1    3    3    0  502 -0.20198339694E+02  0.23169890082E+00  0.19615165298E+03  0.19724499380E+03  0.47000000000E+01 0.  1.
        -11    1    1    2    0    0  0.26634019443E+02  0.65204340763E+01 -0.37222577205E+01  0.27672048258E+02  0.00000000000E+00 0.  1.
         11    1    1    2    0    0 -0.47082835438E+02 -0.12640767618E+01  0.82232777902E+02  0.94766138702E+02  0.00000000000E+00 0. -1.
<mgrwt>
<rscale>  0 0.11760487E+03</rscale>
<asrwt>0</asrwt>
<pdfrwt beam="1">  1        1 0.49435654E-01 0.12674471E+03</pdfrwt>
<pdfrwt beam="2">  1       -1 0.61765790E-02 0.12674471E+03</pdfrwt>
<totfact> 0.96710932E+03</totfact>
</mgrwt>
</event>
<event>
 7    1  0.5928109E-006  0.1472286E+03  0.7546771E-02  0.1213955E+00
          2   -1    0    0  501    0  0.00000000000E+00  0.00000000000E+00  0.11537160301E+04  0.11537160301E+04  0.00000000000E+00 0. -1.
         -2   -1    0    0    0  501 -0.00000000000E+00 -0.00000000000E+00 -0.15414228427E+02  0.15414228427E+02  0.00000000000E+00 0.  1.
         23    2    1    2    0    0  0.72858246190E+02  0.27265575785E+02  0.67165112522E+03  0.68759835708E+03  0.12499812390E+03 0.  0.
          5    1    3    3  502    0  0.89256511643E+02  0.63406219769E+01  0.63890733547E+03  0.64516013646E+03  0.47000000000E+01 0. -1.
         -5    1    3    3    0  502 -0.16398265453E+02  0.20924953808E+02  0.32743789755E+02  0.42438220618E+02  0.47000000000E+01 0. -1.
        -11    1    1    2    0    0 -0.14408890915E+02  0.22231981508E+02  0.39455155707E+02  0.47524587858E+02  0.00000000000E+00 0.  1.
         11    1    1    2    0    0 -0.58449355275E+02 -0.49497557293E+02  0.42719552072E+03  0.43400731357E+03  0.00000000000E+00 0. -1.
<mgrwt>
<rscale>  0 0.13953576E+03</rscale>
<asrwt>0</asrwt>
<pdfrwt beam="1">  1        2 0.17749471E+00 0.14722862E+03</pdfrwt>
<pdfrwt beam="2">  1       -2 0.23714207E-02 0.14722862E+03</pdfrwt>
<totfact> 0.12373209E+04</totfact>
</mgrwt>
</event>
<event>
 7    1  0.5928109E-006  0.1817808E+03  0.7546771E-02  0.1171891E+00
         -2   -1    0    0    0  501 -0.00000000000E+00  0.00000000000E+00  0.18514904447E+03  0.18514904447E+03  0.00000000000E+00 0.  1.
          2   -1    0    0  501    0  0.00000000000E+00 -0.00000000000E+00 -0.19017089349E+03  0.19017089349E+03  0.00000000000E+00 0. -1.
         23    2    1    2    0    0 -0.68917329449E+02  0.11255876813E+03 -0.80935559817E+02  0.19898450154E+03  0.12500076971E+03 0.  0.
          5    1    3    3  502    0 -0.35606564821E+02  0.13578382690E+03 -0.56737970289E+02  0.15148056766E+03  0.47000000000E+01 0.  1.
         -5    1    3    3    0  502 -0.33310764628E+02 -0.23225058768E+02 -0.24197589528E+02  0.47503933877E+02  0.47000000000E+01 0.  1.
        -11    1    1    2    0    0  0.56055128990E+02 -0.54457260826E+02  0.85748876039E+02  0.11602000036E+03  0.00000000000E+00 0.  1.
         11    1    1    2    0    0  0.12862200459E+02 -0.58101507305E+02 -0.98351652399E+01  0.60315436060E+02  0.00000000000E+00 0. -1.
<mgrwt>
<rscale>  0 0.17584022E+03</rscale>
<asrwt>0</asrwt>
<pdfrwt beam="2">  1        2 0.29257060E-01 0.18178082E+03</pdfrwt>
<pdfrwt beam="1">  1       -2 0.28484469E-01 0.18178082E+03</pdfrwt>
<totfact> 0.19958002E+03</totfact>
</mgrwt>
</event>
<event>
 7    1  0.5928109E-006  0.1803558E+03  0.7546771E-02  0.1173292E+00
         -3   -1    0    0    0  501 -0.00000000000E+00  0.00000000000E+00  0.48802421764E+03  0.48802421764E+03  0.00000000000E+00 0.  1.
          3   -1    0    0  501    0  0.00000000000E+00 -0.00000000000E+00 -0.63770826663E+02  0.63770826663E+02  0.00000000000E+00 0. -1.
         23    2    1    2    0    0  0.12482081934E+03 -0.36043643857E+02  0.14664080871E+03  0.23244728256E+03  0.12509528842E+03 0.  0.
          5    1    3    3  502    0  0.41522579817E+02  0.37791687213E+02  0.93142755937E+02  0.10885770180E+03  0.47000000000E+01 0. -1.
         -5    1    3    3    0  502  0.83298239526E+02 -0.73835331070E+02  0.53498052772E+02  0.12358958076E+03  0.47000000000E+01 0. -1.
        -11    1    1    2    0    0 -0.47115297115E+01  0.22901788900E+02  0.11158740778E+03  0.11401070135E+03  0.00000000000E+00 0.  1.
         11    1    1    2    0    0 -0.12010928963E+03  0.13141854957E+02  0.16602517448E+03  0.20533706039E+03  0.00000000000E+00 0. -1.
<mgrwt>
<rscale>  0 0.17444300E+03</rscale>
<asrwt>0</asrwt>
<pdfrwt beam="2">  1        3 0.98108967E-02 0.18035579E+03</pdfrwt>
<pdfrwt beam="1">  1       -3 0.75080647E-01 0.18035579E+03</pdfrwt>
<totfact> 0.31456317E+02</totfact>
</mgrwt>
</event>
<event>
 6    1  0.5928109E-006  0.1715784E+03  0.7546771E-02  0.1202921E+00
          2   -1    0    0  501    0  0.00000000000E+00  0.00000000000E+00  0.82905342340E+03  0.82905342340E+03  0.00000000000E+00 0. -1.
         -2   -1    0    0    0  501 -0.00000000000E+00 -0.00000000000E+00 -0.22332222342E+02  0.22332222342E+02  0.00000000000E+00 0.  1.
          5    1    1    2  502    0  0.52362892482E+02 -0.13666071835E+02  0.47673290921E+03  0.47981766407E+03  0.47000000000E+01 0. -1.
         -5    1    1    2    0  502 -0.73891189023E+02  0.32274612992E+01  0.11953063677E+03  0.14064134331E+03  0.47000000000E+01 0.  1.
        -11    1    1    2    0    0  0.14483761834E+01 -0.40366115110E+02  0.86608177201E+02  0.95564101004E+02  0.00000000000E+00 0.  1.
         11    1    1    2    0    0  0.20079920357E+02  0.50804725646E+02  0.12384947788E+03  0.13536253736E+03  0.00000000000E+00 0. -1.
<mgrwt>
<rscale>  0 0.14802538E+03</rscale>
<asrwt>0</asrwt>
<pdfrwt beam="1">  1        2 0.12754666E+00 0.17157845E+03</pdfrwt>
<pdfrwt beam="2">  1       -2 0.34357272E-02 0.17157845E+03</pdfrwt>
<totfact> 0.11384307E+04</totfact>
</mgrwt>
</event>
<event>
 7    1  0.5928109E-006  0.1222073E+03  0.7546771E-02  0.1249065E+00
          1   -1    0    0  501    0  0.00000000000E+00  0.00000000000E+00  0.11697685868E+03  0.11697685868E+03  0.00000000000E+00 0. -1.
         -1   -1    0    0    0  501 -0.00000000000E+00 -0.00000000000E+00 -0.14241648759E+03  0.14241648759E+03  0.00000000000E+00 0.  1.
         23    2    1    2    0    0  0.13344286093E+02  0.38642484180E+02  0.51495102187E+02  0.13261359796E+03  0.11516644156E+03 0.  0.
          5    1    3    3  502    0 -0.29629966096E+02  0.51108068059E+01  0.68801027622E+02  0.75231154709E+02  0.47000000000E+01 0. -1.
         -5    1    3    3    0  502  0.42974252189E+02  0.33531677374E+02 -0.17305925434E+02  0.57382443255E+02  0.47000000000E+01 0.  1.
        -11    1    1    2    0    0 -0.30189642866E+02  0.11179514059E+02 -0.65462611290E+02  0.72950322466E+02  0.00000000000E+00 0.  1.
         11    1    1    2    0    0  0.16845356773E+02 -0.49821998239E+02 -0.11472119812E+02  0.53829425841E+02  0.00000000000E+00 0. -1.
<mgrwt>
<rscale>  0 0.11645370E+03</rscale>
<asrwt>0</asrwt>
<pdfrwt beam="1">  1        1 0.17996440E-01 0.12220729E+03</pdfrwt>
<pdfrwt beam="2">  1       -1 0.21910229E-01 0.12220729E+03</pdfrwt>
<totfact> 0.48253631E+03</totfact>
</mgrwt>
</event>
<event>
 7    1  0.5928109E-006  0.1399007E+03  0.7546771E-02  0.1224726E+00
          1   -1    0    0  501    0  0.00000000000E+00  0.00000000000E+00  0.73435797517E+03  0.73435797517E+03  0.00000000000E+00 0.  1.
         -1   -1    0    0    0  501 -0.00000000000E+00 -0.00000000000E+00 -0.24453422338E+02  0.24453422338E+02  0.00000000000E+00 0. -1.
         23    2    1    2    0    0  0.52250532753E+02 -0.34881463645E+02  0.52626557324E+03  0.54454353272E+03  0.12500148306E+03 0.  0.
          5    1    3    3  502    0  0.64566610029E+02  0.16260367203E+02  0.42620744944E+03  0.43140251115E+03  0.47000000000E+01 0.  1.
         -5    1    3    3    0  502 -0.12316077276E+02 -0.51141830848E+02  0.10005812381E+03  0.11314102157E+03  0.47000000000E+01 0.  1.
        -11    1    1    2    0    0  0.55352564690E+01 -0.21203909648E+02  0.80418630181E+02  0.83351070351E+02  0.00000000000E+00 0.  1.
         11    1    1    2    0    0 -0.57785789222E+02  0.56085373293E+02  0.10322034941E+03  0.13091679443E+03  0.00000000000E+00 0. -1.
<mgrwt>
<rscale>  0 0.13185724E+03</rscale>
<asrwt>0</asrwt>
<pdfrwt beam="1">  1        1 0.11297813E+00 0.13990070E+03</pdfrwt>
<pdfrwt beam="2">  1       -1 0.37620655E-02 0.13990070E+03</pdfrwt>
<totfact> 0.68389434E+03</totfact>
</mgrwt>
</event>
<event>
 7    1  0.5928109E-006  0.1667416E+03  0.7546771E-02  0.1188058E+00
         -2   -1    0    0    0  501 -0.00000000000E+00  0.00000000000E+00  0.71927231882E+02  0.71927231882E+02  0.00000000000E+00 0.  1.
          2   -1    0    0  501    0  0.00000000000E+00 -0.00000000000E+00 -0.36987897631E+03  0.36987897631E+03  0.00000000000E+00 0. -1.
         23    2    1    2    0    0  0.10400581478E+03  0.36947085285E+02 -0.22746514820E+03  0.28203396472E+03  0.12498186666E+03 0.  0.
          5    1    3    3  502    0 -0.25983519786E+02 -0.43102508935E+01 -0.62210817625E+02  0.67719992564E+02  0.47000000000E+01 0. -1.
         -5    1    3    3    0  502  0.12998933456E+03  0.41257336179E+02 -0.16525433058E+03  0.21431397216E+03  0.47000000000E+01 0. -1.
        -11    1    1    2    0    0 -0.84358274658E+02  0.10339893255E+02 -0.18858488307E+02  0.87056731371E+02  0.00000000000E+00 0.  1.
         11    1    1    2    0    0 -0.19647540121E+02 -0.47286978541E+02 -0.51628107925E+02  0.72715512102E+02  0.00000000000E+00 0. -1.
<mgrwt>
<rscale>  0 0.16056753E+03</rscale>
<asrwt>0</asrwt>
<pdfrwt beam="2">  1        2 0.56904458E-01 0.16674161E+03</pdfrwt>
<pdfrwt beam="1">  1       -2 0.11065728E-01 0.16674161E+03</pdfrwt>
<totfact> 0.47686522E+03</totfact>
</mgrwt>
</event>
<event>
 7    1  0.7487331E-006  0.1362947E+03  0.7546771E-02  0.1230034E+00
         -1   -1    0    0    0  501 -0.00000000000E+00  0.00000000000E+00  0.16437369141E+02  0.16437369141E+02  0.00000000000E+00 0.  1.
          1   -1    0    0  501    0  0.00000000000E+00 -0.00000000000E+00 -0.96097114135E+03  0.96097114135E+03  0.00000000000E+00 0. -1.
         23    2    1    2    0    0  0.43982007580E+02 -0.31887867594E+02 -0.64801481275E+03  0.66219290888E+03  0.12499999179E+03 0.  0.
          5    1    3    3  502    0 -0.11743841416E+02  0.71009126953E+01 -0.46602376109E+01  0.15236423035E+02  0.47000000000E+01 0.  1.
         -5    1    3    3    0  502  0.55725848996E+02 -0.38988780289E+02 -0.64335457514E+03  0.64695648585E+03  0.47000000000E+01 0.  1.
        -11    1    1    2    0    0  0.18110786026E+02  0.81805215330E+01 -0.12395254764E+02  0.23421439830E+02  0.00000000000E+00 0.  1.
         11    1    1    2    0    0 -0.62092793606E+02  0.23707346061E+02 -0.28412370470E+03  0.29179416177E+03  0.00000000000E+00 0. -1.
<mgrwt>
<rscale>  0 0.12827739E+03</rscale>
<asrwt>0</asrwt>
<pdfrwt beam="2">  1        1 0.14784175E+00 0.13629472E+03</pdfrwt>
<pdfrwt beam="1">  1       -1 0.25288253E-02 0.13629472E+03</pdfrwt>
<totfact> 0.80440016E+03</totfact>
</mgrwt>
</event>
<event>
 7    1  0.5928109E-006  0.1658206E+03  0.7546771E-02  0.1189228E+00
          2   -1    0    0  501    0  0.00000000000E+00  0.00000000000E+00  0.23815715352E+03  0.23815715352E+03  0.00000000000E+00 0. -1.
         -2   -1    0    0    0  501 -0.00000000000E+00 -0.00000000000E+00 -0.11072680862E+03  0.11072680862E+03  0.00000000000E+00 0.  1.
         23    2    1    2    0    0 -0.34295534923E+02 -0.10341569314E+03  0.12352927745E+03  0.20677516813E+03  0.12500199384E+03 0.  0.
          5    1    3    3  502    0 -0.21029783054E+02 -0.12300037003E+03  0.59440670131E+02  0.13829904580E+03  0.47000000000E+01 0. -1.
         -5    1    3    3    0  502 -0.13265751869E+02  0.19584676887E+02  0.64088607317E+02  0.68476122329E+02  0.47000000000E+01 0. -1.
        -11    1    1    2    0    0  0.59564329783E+02  0.75508220449E+02  0.24429575105E+02  0.99228044815E+02  0.00000000000E+00 0. -1.
         11    1    1    2    0    0 -0.25268794861E+02  0.27907472695E+02 -0.20528507651E+02  0.42880749204E+02  0.00000000000E+00 0.  1.
<mgrwt>
<rscale>  0 0.15953033E+03</rscale>
<asrwt>0</asrwt>
<pdfrwt beam="1">  1        2 0.36639562E-01 0.16582065E+03</pdfrwt>
<pdfrwt beam="2">  1       -2 0.17034894E-01 0.16582065E+03</pdfrwt>
<totfact> 0.37826704E+03</totfact>
</mgrwt>
</event>
<event>
 7    1  0.5928109E-006  0.1593602E+03  0.7546771E-02  0.1197594E+00
         -2   -1    0    0    0  501 -0.00000000000E+00  0.00000000000E+00  0.12699481015E+04  0.12699481015E+04  0.00000000000E+00 0.  1.
          2   -1    0    0  501    0  0.00000000000E+00 -0.00000000000E+00 -0.19280905522E+02  0.19280905522E+02  0.00000000000E+00 0. -1.
         23    2    1    2    0    0  0.11137394881E+02  0.98217176129E+02  0.90248828891E+03  0.91645010044E+03  0.12500007890E+03 0.  0.
          5    1    3    3  502    0  0.56862622560E+02  0.62459300834E+02  0.71855071163E+03  0.72351346724E+03  0.47000000000E+01 0.  1.
         -5    1    3    3    0  502 -0.45725227679E+02  0.35757875294E+02  0.18393757728E+03  0.19293663320E+03  0.47000000000E+01 0.  1.
        -11    1    1    2    0    0  0.29049636015E+02 -0.30326752989E+02  0.20544118633E+03  0.20968947122E+03  0.00000000000E+00 0.  1.
         11    1    1    2    0    0 -0.40187030896E+02 -0.67890423140E+02  0.14273772076E+03  0.16308943539E+03  0.00000000000E+00 0. -1.
<mgrwt>
<rscale>  0 0.15236686E+03</rscale>
<asrwt>0</asrwt>
<pdfrwt beam="2">  1        2 0.29662941E-02 0.15936021E+03</pdfrwt>
<pdfrwt beam="1">  1       -2 0.19537657E+00 0.15936021E+03</pdfrwt>
<totfact> 0.48361804E+02</totfact>
</mgrwt>
</event>
<event>
 7    1  0.5928109E-006  0.1784285E+03  0.7546771E-02  0.1172631E+00
         -1   -1    0    0    0  501 -0.00000000000E+00  0.00000000000E+00  0.52067202890E+02  0.52067202890E+02  0.00000000000E+00 0.  1.
          1   -1    0    0  501    0  0.00000000000E+00 -0.00000000000E+00 -0.88090726683E+03  0.88090726683E+03  0.00000000000E+00 0. -1.
         23    2    1    2    0    0  0.13632534258E+03  0.25991918053E+01 -0.70242148131E+03  0.72472937341E+03  0.11508854178E+03 0.  0.
          5    1    3    3  502    0  0.34305922192E+02 -0.14019816715E+02 -0.45516957582E+03  0.45669999377E+03  0.47000000000E+01 0. -1.
         -5    1    3    3    0  502  0.10201942039E+03  0.16619008520E+02 -0.24725190549E+03  0.26802937964E+03  0.47000000000E+01 0.  1.
        -11    1    1    2    0    0 -0.87703488096E+02  0.33905543267E+02 -0.39078851509E+02  0.10182654037E+03  0.00000000000E+00 0.  1.
         11    1    1    2    0    0 -0.48621854485E+02 -0.36504735072E+02 -0.87339731127E+02  0.10641855595E+03  0.00000000000E+00 0. -1.
<mgrwt>
<rscale>  0 0.17509994E+03</rscale>
<asrwt>0</asrwt>
<pdfrwt beam="2">  1        1 0.13552419E+00 0.17842849E+03</pdfrwt>
<pdfrwt beam="1">  1       -1 0.80103390E-02 0.17842849E+03</pdfrwt>
<totfact> 0.16934813E+03</totfact>
</mgrwt>
</event>
<event>
 7    1  0.5928109E-006  0.1329393E+03  0.7546771E-02  0.1235738E+00
          1   -1    0    0  501    0  0.00000000000E+00  0.00000000000E+00  0.99223521473E+02  0.99223521473E+02  0.00000000000E+00 0. -1.
         -1   -1    0    0    0  501 -0.00000000000E+00 -0.00000000000E+00 -0.14426627677E+03  0.14426627677E+03  0.00000000000E+00 0.  1.
         23    2    1    2    0    0  0.25255482246E+02 -0.37547983819E+02 -0.37815866408E+01  0.13299304619E+03  0.12500063785E+03 0.  0.
          5    1    3    3  502    0  0.17638149191E+01  0.40848085677E+02  0.22504818661E+02  0.46906652082E+02  0.47000000000E+01 0. -1.
         -5    1    3    3    0  502  0.23491667327E+02 -0.78396069495E+02 -0.26286405302E+02  0.86086394104E+02  0.47000000000E+01 0. -1.
        -11    1    1    2    0    0 -0.62042976255E+01 -0.24589008195E+02 -0.37663354222E+02  0.45405295774E+02  0.00000000000E+00 0. -1.
         11    1    1    2    0    0 -0.19051184621E+02  0.62136992014E+02 -0.35978144315E+01  0.65091456280E+02  0.00000000000E+00 0.  1.
<mgrwt>
<rscale>  0 0.12457333E+03</rscale>
<asrwt>0</asrwt>
<pdfrwt beam="1">  1        1 0.15265157E-01 0.13293927E+03</pdfrwt>
<pdfrwt beam="2">  1       -1 0.22194812E-01 0.13293927E+03</pdfrwt>
<totfact> 0.58710860E+03</totfact>
</mgrwt>
</event>
<event>
 7    1  0.5928109E-006  0.1478595E+03  0.7546771E-02  0.1210423E+00
         -2   -1    0    0    0  501 -0.00000000000E+00  0.00000000000E+00  0.63444003642E+02  0.63444003642E+02  0.00000000000E+00 0.  1.
          2   -1    0    0  501    0  0.00000000000E+00 -0.00000000000E+00 -0.30994901225E+03  0.30994901225E+03  0.00000000000E+00 0. -1.
         23    2    1    2    0    0 -0.69597331815E+02  0.37323014548E+02 -0.17131575946E+03  0.22629962148E+03  0.12500253291E+03 0.  0.
          5    1    3    3  502    0 -0.13542538840E+02  0.59655126436E+02 -0.15011932227E+03  0.16217285651E+03  0.47000000000E+01 0. -1.
         -5    1    3    3    0  502 -0.56054792975E+02 -0.22332111888E+02 -0.21196437187E+02  0.64126764976E+02  0.47000000000E+01 0. -1.
        -11    1    1    2    0    0  0.45606013477E+02  0.30208886660E+02 -0.34673930617E+02  0.64767019099E+02  0.00000000000E+00 0. -1.
         11    1    1    2    0    0  0.23991318338E+02 -0.67531901208E+02 -0.40515318535E+02  0.82326375314E+02  0.00000000000E+00 0.  1.
<mgrwt>
<rscale>  0 0.14218191E+03</rscale>
<asrwt>0</asrwt>
<pdfrwt beam="2">  1        2 0.47684464E-01 0.14785949E+03</pdfrwt>
<pdfrwt beam="1">  1       -2 0.97606158E-02 0.14785949E+03</pdfrwt>
<totfact> 0.69751436E+03</totfact>
</mgrwt>
</event>
<event>
 7    1  0.5928109E-006  0.1320255E+03  0.7546771E-02  0.1237536E+00
          3   -1    0    0  501    0  0.00000000000E+00  0.00000000000E+00  0.31050372943E+03  0.31050372943E+03  0.00000000000E+00 0. -1.
         -3   -1    0    0    0  501 -0.00000000000E+00 -0.00000000000E+00 -0.47566426774E+02  0.47566426774E+02  0.00000000000E+00 0.  1.
         23    2    1    2    0    0  0.41165680276E+02 -0.10558979728E+02  0.19841954376E+03  0.23832973081E+03  0.12499855982E+03 0.  0.
          5    1    3    3  502    0  0.58958354024E+02  0.27112376614E+02  0.18203947884E+03  0.19331743411E+03  0.47000000000E+01 0. -1.
         -5    1    3    3    0  502 -0.17792673748E+02 -0.37671356342E+02  0.16380064924E+02  0.45012296706E+02  0.47000000000E+01 0. -1.
        -11    1    1    2    0    0  0.96824258801E+01 -0.27143979476E+02 -0.73502778868E+00  0.28828549367E+02  0.00000000000E+00 0.  1.
         11    1    1    2    0    0 -0.50848106156E+02  0.37702959204E+02  0.65252786683E+02  0.90911876024E+02  0.00000000000E+00 0. -1.
<mgrwt>
<rscale>  0 0.12343448E+03</rscale>
<asrwt>0</asrwt>
<pdfrwt beam="1">  1        3 0.47769803E-01 0.13202555E+03</pdfrwt>
<pdfrwt beam="2">  1       -3 0.73179120E-02 0.13202555E+03</pdfrwt>
<totfact> 0.12388940E+03</totfact>
</mgrwt>
</event>
<event>
 7    1  0.5928109E-006  0.1415674E+03  0.7546771E-02  0.1221704E+00
         -1   -1    0    0    0  501 -0.00000000000E+00  0.00000000000E+00  0.48746862749E+03  0.48746862749E+03  0.00000000000E+00 0.  1.
          1   -1    0    0  501    0  0.00000000000E+00 -0.00000000000E+00 -0.34697183104E+02  0.34697183104E+02  0.00000000000E+00 0. -1.
         23    2    1    2    0    0 -0.40952229143E+02  0.52420492680E+02  0.19943140336E+03  0.24456944990E+03  0.12496534740E+03 0.  0.
          5    1    3    3  502    0  0.30759355657E+01 -0.19198071703E+01 -0.16505462486E+02  0.17540448428E+02  0.47000000000E+01 0. -1.
         -5    1    3    3    0  502 -0.44028164709E+02  0.54340299850E+02  0.21593686585E+03  0.22702900147E+03  0.47000000000E+01 0. -1.
        -11    1    1    2    0    0  0.22533212492E+02 -0.58438570582E+01  0.44292095852E+01  0.23696291441E+02  0.00000000000E+00 0. -1.
         11    1    1    2    0    0  0.18419016652E+02 -0.46576635622E+02  0.24891083143E+03  0.25390006925E+03  0.00000000000E+00 0.  1.
<mgrwt>
<rscale>  0 0.13395406E+03</rscale>
<asrwt>0</asrwt>
<pdfrwt beam="2">  1        1 0.53380285E-02 0.14156741E+03</pdfrwt>
<pdfrwt beam="1">  1       -1 0.74995169E-01 0.14156741E+03</pdfrwt>
<totfact> 0.27415055E+03</totfact>
</mgrwt>
</event>
<event>
 7    1  0.5928109E-006  0.1313315E+03  0.7546771E-02  0.1238973E+00
         -3   -1    0    0    0  501 -0.00000000000E+00  0.00000000000E+00  0.23542597601E+03  0.23542597601E+03  0.00000000000E+00 0.  1.
          3   -1    0    0  501    0  0.00000000000E+00 -0.00000000000E+00 -0.57523173563E+02  0.57523173563E+02  0.00000000000E+00 0. -1.
         23    2    1    2    0    0  0.12415363867E+01  0.40234853409E+02  0.82568359052E+02  0.15513062038E+03  0.12501036206E+03 0.  0.
          5    1    3    3  502    0  0.34027707687E+02  0.20553038256E+02 -0.20588064050E+02  0.45014116156E+02  0.47000000000E+01 0.  1.
         -5    1    3    3    0  502 -0.32786171301E+02  0.19681815152E+02  0.10315642310E+03  0.11011650423E+03  0.47000000000E+01 0.  1.
        -11    1    1    2    0    0  0.43893890796E+02 -0.10885578165E+02  0.50176329540E+02  0.67548749117E+02  0.00000000000E+00 0.  1.
         11    1    1    2    0    0 -0.45135427183E+02 -0.29349275244E+02  0.45158113855E+02  0.70269780071E+02  0.00000000000E+00 0. -1.
<mgrwt>
<rscale>  0 0.12253501E+03</rscale>
<asrwt>0</asrwt>
<pdfrwt beam="2">  1        3 0.88497192E-02 0.13133155E+03</pdfrwt>
<pdfrwt beam="1">  1       -3 0.36219380E-01 0.13133155E+03</pdfrwt>
<totfact> 0.15527303E+03</totfact>
</mgrwt>
</event>
<event>
 7    1  0.5928109E-006  0.1361832E+03  0.7546771E-02  0.1231114E+00
         -3   -1    0    0    0  501 -0.00000000000E+00  0.00000000000E+00  0.22519433799E+02  0.22519433799E+02  0.00000000000E+00 0.  1.
          3   -1    0    0  501    0  0.00000000000E+00 -0.00000000000E+00 -0.65195584688E+03  0.65195584688E+03  0.00000000000E+00 0. -1.
         23    2    1    2    0    0 -0.17719414656E+02  0.51049965973E+02 -0.32053238399E+03  0.34826265978E+03  0.12500317727E+03 0.  0.
          5    1    3    3  502    0  0.48114406084E+02  0.27569329317E+02 -0.21122523539E+03  0.21843363765E+03  0.47000000000E+01 0. -1.
         -5    1    3    3    0  502 -0.65833820740E+02  0.23480636657E+02 -0.10930714860E+03  0.12982902213E+03  0.47000000000E+01 0. -1.
        -11    1    1    2    0    0 -0.64717799677E+01  0.14724845067E+02 -0.94240650148E+01  0.18641834663E+02  0.00000000000E+00 0.  1.
         11    1    1    2    0    0  0.24191194624E+02 -0.65774811041E+02 -0.29947996407E+03  0.30757078623E+03  0.00000000000E+00 0. -1.
<mgrwt>
<rscale>  0 0.12756517E+03</rscale>
<asrwt>0</asrwt>
<pdfrwt beam="2">  1        3 0.10030088E+00 0.13618323E+03</pdfrwt>
<pdfrwt beam="1">  1       -3 0.34645289E-02 0.13618323E+03</pdfrwt>
<totfact> 0.84771526E+02</totfact>
</mgrwt>
</event>
<event>
 7    1  0.5928109E-006  0.1509572E+03  0.7546771E-02  0.1210121E+00
          2   -1    0    0  501    0  0.00000000000E+00  0.00000000000E+00  0.36937373532E+02  0.36937373532E+02  0.00000000000E+00 0. -1.
         -2   -1    0    0    0  501 -0.00000000000E+00 -0.00000000000E+00 -0.52102899936E+03  0.52102899936E+03  0.00000000000E+00 0.  1.
         23    2    1    2    0    0  0.25038419888E+02 -0.80698164812E+02 -0.20717848640E+03  0.25634155967E+03  0.12509577817E+03 0.  0.
          5    1    3    3  502    0  0.54869264417E+02  0.87128728103E+01 -0.64268480946E+02  0.85082771308E+02  0.47000000000E+01 0.  1.
         -5    1    3    3    0  502 -0.29830844530E+02 -0.89411037622E+02 -0.14291000545E+03  0.17125878837E+03  0.47000000000E+01 0.  1.
        -11    1    1    2    0    0  0.45295313130E+01  0.51327972351E+02 -0.53200243855E+02  0.74063103809E+02  0.00000000000E+00 0. -1.
         11    1    1    2    0    0 -0.29567951200E+02  0.29370192461E+02 -0.22371289557E+03  0.22756170941E+03  0.00000000000E+00 0.  1.
<mgrwt>
<rscale>  0 0.14241134E+03</rscale>
<asrwt>0</asrwt>
<pdfrwt beam="1">  1        2 0.56826735E-02 0.15095718E+03</pdfrwt>
<pdfrwt beam="2">  1       -2 0.80158298E-01 0.15095718E+03</pdfrwt>
<totfact> 0.18238916E+03</totfact>
</mgrwt>
</event>
<event>
 7    1  0.5928109E-006  0.1850735E+03  0.7546771E-02  0.1167990E+00
         -2   -1    0    0    0  501 -0.00000000000E+00  0.00000000000E+00  0.30006177750E+02  0.30006177750E+02  0.00000000000E+00 0. -1.
          2   -1    0    0  501    0  0.00000000000E+00 -0.00000000000E+00 -0.12791573711E+04  0.12791573711E+04  0.00000000000E+00 0.  1.
         23    2    1    2    0    0 -0.99915768466E+02  0.92924171227E+02 -0.94732233374E+03  0.96523148067E+03  0.12503657425E+03 0.  0.
          5    1    3    3  502    0 -0.26306196350E+02  0.35798821655E+02 -0.70514463634E+02  0.83474254594E+02  0.47000000000E+01 0.  1.
         -5    1    3    3    0  502 -0.73609572115E+02  0.57125349572E+02 -0.87680787010E+03  0.88175722608E+03  0.47000000000E+01 0.  1.
        -11    1    1    2    0    0  0.22342341142E+02 -0.83804116621E+02 -0.15454494444E+03  0.17721865032E+03  0.00000000000E+00 0. -1.
         11    1    1    2    0    0  0.77573427324E+02 -0.91200546060E+01 -0.14728391516E+03  0.16671341784E+03  0.00000000000E+00 0.  1.
<mgrwt>
<rscale>  0 0.17980699E+03</rscale>
<asrwt>0</asrwt>
<pdfrwt beam="2">  1        2 0.19679341E+00 0.18507352E+03</pdfrwt>
<pdfrwt beam="1">  1       -2 0.46163357E-02 0.18507352E+03</pdfrwt>
<totfact> 0.39575148E+03</totfact>
</mgrwt>
</event>
<event>
 7    1  0.5928109E-006  0.1410416E+03  0.7546771E-02  0.1222383E+00
          2   -1    0    0  501    0  0.00000000000E+00  0.00000000000E+00  0.31477414499E+03  0.31477414499E+03  0.00000000000E+00 0. -1.
         -2   -1    0    0    0  501 -0.00000000000E+00 -0.00000000000E+00 -0.84510520878E+02  0.84510520878E+02  0.00000000000E+00 0.  1.
         23    2    1    2    0    0  0.17101816473E+02 -0.63043461200E+02  0.24747408353E+03  0.28484407235E+03  0.12500309360E+03 0.  0.
          5    1    3    3  502    0 -0.52112796773E+02 -0.96298229123E+01  0.10242431316E+03  0.11541796656E+03  0.47000000000E+01 0.  1.
         -5    1    3    3    0  502  0.69214613246E+02 -0.53413638288E+02  0.14504977037E+03  0.16942610580E+03  0.47000000000E+01 0.  1.
        -11    1    1    2    0    0  0.11064353178E+02  0.25735907036E+02 -0.50019631004E+02  0.57329925066E+02  0.00000000000E+00 0.  1.
         11    1    1    2    0    0 -0.28166169652E+02  0.37307554164E+02  0.32809171583E+02  0.57110668448E+02  0.00000000000E+00 0. -1.
<mgrwt>
<rscale>  0 0.13347917E+03</rscale>
<asrwt>0</asrwt>
<pdfrwt beam="1">  1        2 0.48426791E-01 0.14104157E+03</pdfrwt>
<pdfrwt beam="2">  1       -2 0.13001619E-01 0.14104157E+03</pdfrwt>
<totfact> 0.43374310E+03</totfact>
</mgrwt>
</event>
<event>
 7    1  0.5928109E-006  0.1366513E+03  0.7546771E-02  0.1252488E+00
          3   -1    0    0  501    0  0.00000000000E+00  0.00000000000E+00  0.36872534900E+02  0.36872534900E+02  0.00000000000E+00 0. -1.
         -3   -1    0    0    0  501 -0.00000000000E+00 -0.00000000000E+00 -0.34312386261E+03  0.34312386261E+03  0.00000000000E+00 0.  1.
         23    2    1    2    0    0  0.38694341873E+02 -0.39384112178E+02 -0.11967130328E+03  0.18164472333E+03  0.12500089720E+03 0.  0.
          5    1    3    3  502    0  0.33700688548E+02  0.91362137362E+01  0.15032273927E+02  0.38304909208E+02  0.47000000000E+01 0. -1.
         -5    1    3    3    0  502  0.49936533253E+01 -0.48520325914E+02 -0.13470357721E+03  0.14333981412E+03  0.47000000000E+01 0. -1.
        -11    1    1    2    0    0 -0.15978437126E+02  0.28606017137E+02 -0.15261584487E+03  0.15609359620E+03  0.00000000000E+00 0.  1.
         11    1    1    2    0    0 -0.22715904748E+02  0.10778095041E+02 -0.33964179558E+02  0.42258077977E+02  0.00000000000E+00 0. -1.
<mgrwt>
<rscale>  0 0.11448221E+03</rscale>
<asrwt>0</asrwt>
<pdfrwt beam="1">  1        3 0.56726975E-02 0.13665133E+03</pdfrwt>
<pdfrwt beam="2">  1       -3 0.52788288E-01 0.13665133E+03</pdfrwt>
<totfact> 0.15348578E+03</totfact>
</mgrwt>
</event>
<event>
 7    1  0.5928109E-006  0.1257458E+03  0.7546771E-02  0.1249806E+00
          2   -1    0    0  501    0  0.00000000000E+00  0.00000000000E+00  0.11260757607E+03  0.11260757607E+03  0.00000000000E+00 0. -1.
         -2   -1    0    0    0  501 -0.00000000000E+00 -0.00000000000E+00 -0.11728298369E+03  0.11728298369E+03  0.00000000000E+00 0.  1.
         23    2    1    2    0    0  0.13095458341E+02 -0.39807256854E+01  0.34949905029E+02  0.13051241745E+03  0.12499863216E+03 0.  0.
          5    1    3    3  502    0  0.69026077008E+02 -0.66170266884E+01  0.21234659357E+02  0.72673138829E+02  0.47000000000E+01 0. -1.
         -5    1    3    3    0  502 -0.55930618667E+02  0.26363010030E+01  0.13715245672E+02  0.57839278620E+02  0.47000000000E+01 0. -1.
        -11    1    1    2    0    0 -0.54562347185E+01 -0.41250707590E+02 -0.32837756298E+02  0.53006694036E+02  0.00000000000E+00 0.  1.
         11    1    1    2    0    0 -0.76392236227E+01  0.45231433275E+02 -0.67875563518E+01  0.46371448273E+02  0.00000000000E+00 0. -1.
<mgrwt>
<rscale>  0 0.11602271E+03</rscale>
<asrwt>0</asrwt>
<pdfrwt beam="1">  1        2 0.17324243E-01 0.12574576E+03</pdfrwt>
<pdfrwt beam="2">  1       -2 0.18043536E-01 0.12574576E+03</pdfrwt>
<totfact> 0.77355943E+03</totfact>
</mgrwt>
</event>
<event>
 7    1  0.5928109E-006  0.1389264E+03  0.7546771E-02  0.1228981E+00
         -2   -1    0    0    0  501 -0.00000000000E+00  0.00000000000E+00  0.31428225736E+02  0.31428225736E+02  0.00000000000E+00 0. -1.
          2   -1    0    0  501    0  0.00000000000E+00 -0.00000000000E+00 -0.47048538890E+03  0.47048538890E+03  0.00000000000E+00 0.  1.
         23    2    1    2    0    0  0.20299127404E+02  0.57125321079E+02 -0.27487361366E+03  0.30798708129E+03  0.12500072749E+03 0.  0.
          5    1    3    3  502    0  0.66134070497E+02  0.57515153011E+02 -0.13782350052E+03  0.16339863954E+03  0.47000000000E+01 0. -1.
         -5    1    3    3    0  502 -0.45834943094E+02 -0.38983193178E+00 -0.13705011314E+03  0.14458844176E+03  0.47000000000E+01 0. -1.
        -11    1    1    2    0    0  0.25982296007E+02 -0.78358568459E+01 -0.87891622843E+02  0.91985964822E+02  0.00000000000E+00 0.  1.
         11    1    1    2    0    0 -0.46281423411E+02 -0.49289464233E+02 -0.76291926657E+02  0.10194056852E+03  0.00000000000E+00 0. -1.
<mgrwt>
<rscale>  0 0.12897742E+03</rscale>
<asrwt>0</asrwt>
<pdfrwt beam="2">  1        2 0.72382363E-01 0.13892638E+03</pdfrwt>
<pdfrwt beam="1">  1       -2 0.48351119E-02 0.13892638E+03</pdfrwt>
<totfact> 0.13034297E+04</totfact>
</mgrwt>
</event>
<event>
 6    1  0.5928109E-006  0.1481561E+03  0.7546771E-02  0.1219401E+00
         -1   -1    0    0    0  501 -0.00000000000E+00  0.00000000000E+00  0.14678953540E+03  0.14678953540E+03  0.00000000000E+00 0.  1.
          1   -1    0    0  501    0  0.00000000000E+00 -0.00000000000E+00 -0.15285493347E+03  0.15285493347E+03  0.00000000000E+00 0. -1.
          5    1    1    2  502    0 -0.77586853570E+02 -0.27669063994E+02 -0.10182649534E+03  0.13105732373E+03  0.47000000000E+01 0. -1.
         -5    1    1    2    0  502  0.33640262219E+02 -0.56100116202E+01  0.18334449187E+02  0.39004890713E+02  0.47000000000E+01 0.  1.
        -11    1    1    2    0    0  0.72207313017E+01  0.52264878493E+02  0.69871614668E+02  0.87554548830E+02  0.00000000000E+00 0. -1.
         11    1    1    2    0    0  0.36725860050E+02 -0.18985802879E+02  0.75550334179E+01  0.42027705592E+02  0.00000000000E+00 0.  1.
<mgrwt>
<rscale>  0 0.13558166E+03</rscale>
<asrwt>0</asrwt>
<pdfrwt beam="2">  1        1 0.23516144E-01 0.14815612E+03</pdfrwt>
<pdfrwt beam="1">  1       -1 0.22583005E-01 0.14815612E+03</pdfrwt>
<totfact> 0.33081522E+03</totfact>
</mgrwt>
</event>
<event>
 7    1  0.5928109E-006  0.1401145E+03  0.7546771E-02  0.1219424E+00
          2   -1    0    0  501    0  0.00000000000E+00  0.00000000000E+00  0.18937155237E+04  0.18937155237E+04  0.00000000000E+00 0. -1.
         -2   -1    0    0    0  501 -0.00000000000E+00 -0.00000000000E+00 -0.97076170954E+01  0.97076170954E+01  0.00000000000E+00 0.  1.
         23    2    1    2    0    0  0.28238575195E+02 -0.56654544595E+02  0.12331597994E+04  0.12410943430E+04  0.12499969106E+03 0.  0.
          5    1    3    3  502    0  0.29262736698E+02  0.34656958089E+02  0.29712501892E+03  0.30060402421E+03  0.47000000000E+01 0. -1.
         -5    1    3    3    0  502 -0.10241615027E+01 -0.91311502684E+02  0.93603478051E+03  0.94049031880E+03  0.47000000000E+01 0. -1.
        -11    1    1    2    0    0  0.38492328246E+02  0.36223178707E+02  0.29627088382E+03  0.30094885714E+03  0.00000000000E+00 0.  1.
         11    1    1    2    0    0 -0.66730903442E+02  0.20431365888E+02  0.35457722336E+03  0.36137994066E+03  0.00000000000E+00 0. -1.
<mgrwt>
<rscale>  0 0.13556537E+03</rscale>
<asrwt>0</asrwt>
<pdfrwt beam="1">  1        2 0.29134056E+00 0.14011452E+03</pdfrwt>
<pdfrwt beam="2">  1       -2 0.14934811E-02 0.14011452E+03</pdfrwt>
<totfact> 0.98574409E+03</totfact>
</mgrwt>
</event>
<event>
 7    1  0.5928109E-006  0.1206516E+03  0.7546771E-02  0.1253152E+00
         -3   -1    0    0    0  501 -0.00000000000E+00  0.00000000000E+00  0.18157632418E+02  0.18157632418E+02  0.00000000000E+00 0.  1.
          3   -1    0    0  501    0  0.00000000000E+00 -0.00000000000E+00 -0.75270193896E+03  0.75270193896E+03  0.00000000000E+00 0. -1.
         23    2    1    2    0    0  0.26437537639E+02 -0.11654782134E+02 -0.54453100177E+03  0.55773723312E+03  0.11714107720E+03 0.  0.
          5    1    3    3  502    0  0.47968538515E+02 -0.32533815057E+02 -0.50269494814E+03  0.50604716252E+03  0.47000000000E+01 0. -1.
         -5    1    3    3    0  502 -0.21531000875E+02  0.20879032923E+02 -0.41836053629E+02  0.51690070591E+02  0.47000000000E+01 0.  1.
        -11    1    1    2    0    0 -0.36537583422E+02  0.38937563221E+02 -0.61902942650E+02  0.81750248567E+02  0.00000000000E+00 0.  1.
         11    1    1    2    0    0  0.10100045783E+02 -0.27282781087E+02 -0.12811036212E+03  0.13137208970E+03  0.00000000000E+00 0. -1.
<mgrwt>
<rscale>  0 0.11410481E+03</rscale>
<asrwt>0</asrwt>
<pdfrwt beam="2">  1        3 0.11580029E+00 0.12065160E+03</pdfrwt>
<pdfrwt beam="1">  1       -3 0.27934822E-02 0.12065160E+03</pdfrwt>
<totfact> 0.83364904E+02</totfact>
</mgrwt>
</event>
<event>
 7    1  0.5928109E-006  0.1323845E+03  0.7546771E-02  0.1237471E+00
          2   -1    0    0  501    0  0.00000000000E+00  0.00000000000E+00  0.38863201943E+03  0.38863201943E+03  0.00000000000E+00 0. -1.
         -2   -1    0    0    0  501 -0.00000000000E+00 -0.00000000000E+00 -0.35050187501E+02  0.35050187501E+02  0.00000000000E+00 0.  1.
         23    2    1    2    0    0  0.15538443223E+02  0.40741009208E+02  0.21898521543E+03  0.25589094642E+03  0.12499751533E+03 0.  0.
          5    1    3    3  502    0 -0.17163226848E+02 -0.16690276425E+02 -0.26719844346E+01  0.24543251288E+02  0.47000000000E+01 0. -1.
         -5    1    3    3    0  502  0.32701670071E+02  0.57431285633E+02  0.22165719986E+03  0.23134769514E+03  0.47000000000E+01 0. -1.
        -11    1    1    2    0    0 -0.33416560746E+02 -0.29421068830E+02  0.13919049563E+03  0.14613781131E+03  0.00000000000E+00 0. -1.
         11    1    1    2    0    0  0.17878117523E+02 -0.11319940378E+02 -0.45938791263E+01  0.21653449188E+02  0.00000000000E+00 0.  1.
<mgrwt>
<rscale>  0 0.12347581E+03</rscale>
<asrwt>0</asrwt>
<pdfrwt beam="1">  1        2 0.59789539E-01 0.13238449E+03</pdfrwt>
<pdfrwt beam="2">  1       -2 0.53923368E-02 0.13238449E+03</pdfrwt>
<totfact> 0.13539256E+04</totfact>
</mgrwt>
</event>
<event>
 7    1  0.5928109E-006  0.2168377E+03  0.7546771E-02  0.1141040E+00
         -2   -1    0    0    0  501 -0.00000000000E+00  0.00000000000E+00  0.91058832698E+02  0.91058832698E+02  0.00000000000E+00 0.  1.
          2   -1    0    0  501    0  0.00000000000E+00 -0.00000000000E+00 -0.94488080168E+03  0.94488080168E+03  0.00000000000E+00 0. -1.
         23    2    1    2    0    0  0.10296395426E+03  0.14418626329E+03 -0.80909075430E+03  0.83764338009E+03  0.12500931614E+03 0.  0.
          5    1    3    3  502    0  0.11591110197E+03  0.11406994341E+03 -0.47859197706E+03  0.50548957067E+03  0.47000000000E+01 0. -1.
         -5    1    3    3    0  502 -0.12947147715E+02  0.30116319886E+02 -0.33049877724E+03  0.33215380942E+03  0.47000000000E+01 0. -1.
        -11    1    1    2    0    0 -0.36857040685E+02 -0.56819020703E+02 -0.56376578160E+02  0.88120151650E+02  0.00000000000E+00 0. -1.
         11    1    1    2    0    0 -0.66106913574E+02 -0.87367242590E+02  0.11645363484E+02  0.11017610263E+03  0.00000000000E+00 0.  1.
<mgrwt>
<rscale>  0 0.21066605E+03</rscale>
<asrwt>0</asrwt>
<pdfrwt beam="2">  1        2 0.14536628E+00 0.21683769E+03</pdfrwt>
<pdfrwt beam="1">  1       -2 0.14009051E-01 0.21683769E+03</pdfrwt>
<totfact> 0.10929267E+03</totfact>
</mgrwt>
</event>
<event>
 7    1  0.5928109E-006  0.1296754E+03  0.7546771E-02  0.1231984E+00
          1   -1    0    0  501    0  0.00000000000E+00  0.00000000000E+00  0.63833387048E+03  0.63833387048E+03  0.00000000000E+00 0. -1.
         -1   -1    0    0    0  501 -0.00000000000E+00 -0.00000000000E+00 -0.69641219792E+02  0.69641219792E+02  0.00000000000E+00 0.  1.
         23    2    1    2    0    0 -0.57533365740E+02  0.24111352474E+02  0.57410735820E+03  0.58857026598E+03  0.11368488804E+03 0.  0.
          5    1    3    3  502    0 -0.39037772233E+02  0.69634987512E+02  0.33379699143E+03  0.34324262648E+03  0.47000000000E+01 0. -1.
         -5    1    3    3    0  502 -0.18495593508E+02 -0.45523635038E+02  0.24031036677E+03  0.24532763950E+03  0.47000000000E+01 0.  1.
        -11    1    1    2    0    0  0.69958986810E+02 -0.50327637030E+02 -0.17562913111E+02  0.87952184746E+02  0.00000000000E+00 0.  1.
         11    1    1    2    0    0 -0.12425621070E+02  0.26216284556E+02  0.12148205599E+02  0.31452639542E+02  0.00000000000E+00 0. -1.
<mgrwt>
<rscale>  0 0.12699506E+03</rscale>
<asrwt>0</asrwt>
<pdfrwt beam="1">  1        1 0.98205207E-01 0.12967536E+03</pdfrwt>
<pdfrwt beam="2">  1       -1 0.10714034E-01 0.12967536E+03</pdfrwt>
<totfact> 0.17407551E+03</totfact>
</mgrwt>
</event>
<event>
 7    1  0.5928109E-006  0.1955824E+03  0.7546771E-02  0.1158085E+00
          2   -1    0    0  501    0  0.00000000000E+00  0.00000000000E+00  0.54796756369E+03  0.54796756369E+03  0.00000000000E+00 0. -1.
         -2   -1    0    0    0  501 -0.00000000000E+00 -0.00000000000E+00 -0.65749997119E+02  0.65749997119E+02  0.00000000000E+00 0.  1.
         23    2    1    2    0    0  0.25109037440E+02  0.14832172476E+03  0.31722478090E+03  0.37267148883E+03  0.12499071635E+03 0.  0.
          5    1    3    3  502    0  0.26506426048E+02  0.58780303986E+02  0.25612650441E+03  0.26416016168E+03  0.47000000000E+01 0. -1.
         -5    1    3    3    0  502 -0.13973886075E+01  0.89541420775E+02  0.61098276484E+02  0.10851132714E+03  0.47000000000E+01 0. -1.
        -11    1    1    2    0    0 -0.20946021809E+02 -0.61393636218E+02  0.13384252676E+02  0.66234829337E+02  0.00000000000E+00 0.  1.
         11    1    1    2    0    0 -0.41630156312E+01 -0.86928088542E+02  0.15160853300E+03  0.17481124265E+03  0.00000000000E+00 0. -1.
<mgrwt>
<rscale>  0 0.19041802E+03</rscale>
<asrwt>0</asrwt>
<pdfrwt beam="1">  1        2 0.84302699E-01 0.19558240E+03</pdfrwt>
<pdfrwt beam="2">  1       -2 0.10115385E-01 0.19558240E+03</pdfrwt>
<totfact> 0.36001460E+03</totfact>
</mgrwt>
</event>
<event>
 7    1  0.5928109E-006  0.1436763E+03  0.7546771E-02  0.1214312E+00
         -1   -1    0    0    0  501 -0.00000000000E+00  0.00000000000E+00  0.12101783914E+03  0.12101783914E+03  0.00000000000E+00 0.  1.
          1   -1    0    0  501    0  0.00000000000E+00 -0.00000000000E+00 -0.15611441672E+03  0.15611441672E+03  0.00000000000E+00 0. -1.
         23    2    1    2    0    0  0.16944734708E+02  0.88643051489E+02 -0.43171483509E+02  0.15002220976E+03  0.11179522271E+03 0.  0.
          5    1    3    3  502    0 -0.36192039925E+02  0.80153240204E+02 -0.15834856080E+02  0.89483173481E+02  0.47000000000E+01 0. -1.
         -5    1    3    3    0  502  0.53136774633E+02  0.84898112846E+01 -0.27336627429E+02  0.60539036276E+02  0.47000000000E+01 0.  1.
        -11    1    1    2    0    0 -0.48844832483E+02 -0.66761551059E+02 -0.11900313279E+02  0.83573559313E+02  0.00000000000E+00 0.  1.
         11    1    1    2    0    0  0.31900097775E+02 -0.21881500430E+02  0.19975219213E+02  0.43536486786E+02  0.00000000000E+00 0. -1.
<mgrwt>
<rscale>  0 0.13927217E+03</rscale>
<asrwt>0</asrwt>
<pdfrwt beam="2">  1        1 0.24017603E-01 0.14367633E+03</pdfrwt>
<pdfrwt beam="1">  1       -1 0.18618129E-01 0.14367633E+03</pdfrwt>
<totfact> 0.43906213E+03</totfact>
</mgrwt>
</event>
<event>
 7    1  0.5928109E-006  0.1276600E+03  0.7546771E-02  0.1248179E+00
          2   -1    0    0  501    0  0.00000000000E+00  0.00000000000E+00  0.66035395910E+03  0.66035395910E+03  0.00000000000E+00 0. -1.
         -2   -1    0    0    0  501 -0.00000000000E+00 -0.00000000000E+00 -0.18193796679E+02  0.18193796679E+02  0.00000000000E+00 0.  1.
         23    2    1    2    0    0  0.11089686582E+02 -0.23426656668E+02  0.41590569062E+03  0.43505703282E+03  0.12500115568E+03 0.  0.
          5    1    3    3  502    0 -0.14737677076E+02 -0.67239472438E+02  0.30855869101E+03  0.31617859127E+03  0.47000000000E+01 0. -1.
         -5    1    3    3    0  502  0.25827363659E+02  0.43812815770E+02  0.10734699961E+03  0.11887844154E+03  0.47000000000E+01 0. -1.
        -11    1    1    2    0    0  0.34281894379E+02  0.11335364506E+02  0.54062817354E+02  0.65011745023E+02  0.00000000000E+00 0.  1.
         11    1    1    2    0    0 -0.45371580961E+02  0.12091292162E+02  0.17219165445E+03  0.17847897794E+03  0.00000000000E+00 0. -1.
<mgrwt>
<rscale>  0 0.11697130E+03</rscale>
<asrwt>0</asrwt>
<pdfrwt beam="1">  1        2 0.10159290E+00 0.12766001E+03</pdfrwt>
<pdfrwt beam="2">  1       -2 0.27990462E-02 0.12766001E+03</pdfrwt>
<totfact> 0.19888057E+04</totfact>
</mgrwt>
</event>
<event>
 6    1  0.5928109E-006  0.6126883E+03  0.7546771E-02  0.9879426E-01
         -2   -1    0    0    0  501 -0.00000000000E+00  0.00000000000E+00  0.23944859778E+03  0.23944859778E+03  0.00000000000E+00 0.  1.
          2   -1    0    0  501    0  0.00000000000E+00 -0.00000000000E+00 -0.39192849111E+03  0.39192849111E+03  0.00000000000E+00 0. -1.
          5    1    1    2  502    0 -0.52485158431E+02 -0.72885080920E+01 -0.14510691858E+03  0.15455071021E+03  0.47000000000E+01 0. -1.
         -5    1    1    2    0  502  0.36030618815E+02  0.74775738801E+02 -0.72092079608E+02  0.11004078584E+03  0.47000000000E+01 0.  1.
        -11    1    1    2    0    0 -0.24717860945E+02 -0.46924368629E+02  0.20885340082E+03  0.21548227782E+03  0.00000000000E+00 0.  1.
         11    1    1    2    0    0  0.41172400562E+02 -0.20562862080E+02 -0.14413429596E+03  0.15130331502E+03  0.00000000000E+00 0. -1.
<mgrwt>
<rscale>  0 0.61268827E+03</rscale>
<asrwt>0</asrwt>
<pdfrwt beam="2">  1        2 0.60296691E-01 0.61268827E+03</pdfrwt>
<pdfrwt beam="1">  1       -2 0.36838246E-01 0.61268827E+03</pdfrwt>
<totfact> 0.56895244E+02</totfact>
</mgrwt>
</event>
<event>
 7    1  0.5928109E-006  0.1313240E+03  0.7546771E-02  0.1230338E+00
          1   -1    0    0  501    0  0.00000000000E+00  0.00000000000E+00  0.20352969888E+03  0.20352969888E+03  0.00000000000E+00 0. -1.
         -1   -1    0    0    0  501 -0.00000000000E+00 -0.00000000000E+00 -0.81132861457E+02  0.81132861457E+02  0.00000000000E+00 0.  1.
         23    2    1    2    0    0  0.19187726676E+02  0.35365843114E+02  0.96759730212E+02  0.16312092173E+03  0.12500831172E+03 0.  0.
          5    1    3    3  502    0 -0.49973276698E+02  0.43217006730E+01  0.17472958215E+02  0.53323538418E+02  0.47000000000E+01 0. -1.
         -5    1    3    3    0  502  0.69161003373E+02  0.31044142441E+02  0.79286771997E+02  0.10979738331E+03  0.47000000000E+01 0. -1.
        -11    1    1    2    0    0 -0.42243416137E+02 -0.10022286560E+02 -0.32381533192E+02  0.54161943527E+02  0.00000000000E+00 0.  1.
         11    1    1    2    0    0  0.23055689461E+02 -0.25343556554E+02  0.58018640399E+02  0.67379695080E+02  0.00000000000E+00 0. -1.
<mgrwt>
<rscale>  0 0.12807624E+03</rscale>
<asrwt>0</asrwt>
<pdfrwt beam="1">  1        1 0.31312261E-01 0.13132399E+03</pdfrwt>
<pdfrwt beam="2">  1       -1 0.12481979E-01 0.13132399E+03</pdfrwt>
<totfact> 0.58731691E+03</totfact>
</mgrwt>
</event>
<event>
 7    1  0.5928109E-006  0.1524707E+03  0.7546771E-02  0.1205967E+00
         -2   -1    0    0    0  501 -0.00000000000E+00  0.00000000000E+00  0.70505436184E+02  0.70505436184E+02  0.00000000000E+00 0.  1.
          2   -1    0    0  501    0  0.00000000000E+00 -0.00000000000E+00 -0.44392427105E+03  0.44392427105E+03  0.00000000000E+00 0. -1.
         23    2    1    2    0    0 -0.40331993875E+01  0.87211857027E+02 -0.35486988807E+03  0.38623818849E+03  0.12500050435E+03 0.  0.
          5    1    3    3  502    0 -0.63963846447E+02  0.36483611955E+02 -0.16824482011E+03  0.18371400896E+03  0.47000000000E+01 0.  1.
         -5    1    3    3    0  502  0.59930647059E+02  0.50728245072E+02 -0.18662506796E+03  0.20252417953E+03  0.47000000000E+01 0.  1.
        -11    1    1    2    0    0  0.46394210627E+02 -0.53050650671E+02  0.66902519496E+00  0.70478662807E+02  0.00000000000E+00 0. -1.
         11    1    1    2    0    0 -0.42361011239E+02 -0.34161206356E+02 -0.19217971993E+02  0.57712855937E+02  0.00000000000E+00 0.  1.
<mgrwt>
<rscale>  0 0.14561491E+03</rscale>
<asrwt>0</asrwt>
<pdfrwt beam="2">  1        2 0.68296040E-01 0.15247066E+03</pdfrwt>
<pdfrwt beam="1">  1       -2 0.10846990E-01 0.15247066E+03</pdfrwt>
<totfact> 0.40271801E+03</totfact>
</mgrwt>
</event>
<event>
 7    1  0.5928109E-006  0.1306736E+03  0.7546771E-02  0.1239747E+00
         -3   -1    0    0    0  501 -0.00000000000E+00  0.00000000000E+00  0.59425308299E+02  0.59425308299E+02  0.00000000000E+00 0.  1.
          3   -1    0    0  501    0  0.00000000000E+00 -0.00000000000E+00 -0.25273629035E+03  0.25273629035E+03  0.00000000000E+00 0. -1.
         23    2    1    2    0    0  0.27810079133E+02 -0.26010756049E+02 -0.16148998196E+03  0.20773686597E+03  0.12500252508E+03 0.  0.
          5    1    3    3  502    0 -0.16790760658E+02 -0.31415177499E+01  0.15614965908E+02  0.23616010195E+02  0.47000000000E+01 0. -1.
         -5    1    3    3    0  502  0.44600839791E+02 -0.22869238299E+02 -0.17710494787E+03  0.18412085577E+03  0.47000000000E+01 0. -1.
        -11    1    1    2    0    0  0.87636144880E+01  0.35104247778E+02  0.19226365810E+02  0.40972701806E+02  0.00000000000E+00 0.  1.
         11    1    1    2    0    0 -0.36573693621E+02 -0.90934917294E+01 -0.51047365892E+02  0.63452030869E+02  0.00000000000E+00 0. -1.
<mgrwt>
<rscale>  0 0.12205375E+03</rscale>
<asrwt>0</asrwt>
<pdfrwt beam="2">  1        3 0.38882506E-01 0.13067361E+03</pdfrwt>
<pdfrwt beam="1">  1       -3 0.91423551E-02 0.13067361E+03</pdfrwt>
<totfact> 0.12851477E+03</totfact>
</mgrwt>
</event>
<event>
 7    1  0.5928109E-006  0.1353825E+03  0.7546771E-02  0.1231543E+00
          2   -1    0    0  501    0  0.00000000000E+00  0.00000000000E+00  0.62958853283E+02  0.62958853283E+02  0.00000000000E+00 0. -1.
         -2   -1    0    0    0  501 -0.00000000000E+00 -0.00000000000E+00 -0.30932734724E+03  0.30932734724E+03  0.00000000000E+00 0.  1.
         23    2    1    2    0    0 -0.51808661079E+02  0.44769091053E+01 -0.41297885400E+02  0.14154131065E+03  0.12499698878E+03 0.  0.
          5    1    3    3  502    0 -0.42559758490E+02 -0.42314406005E+02  0.20267936843E+02  0.63519455777E+02  0.47000000000E+01 0. -1.
         -5    1    3    3    0  502 -0.92489025886E+01  0.46791315111E+02 -0.61565822243E+02  0.78021854870E+02  0.47000000000E+01 0. -1.
        -11    1    1    2    0    0  0.74983981391E+01 -0.27134201763E+02 -0.16348291965E+03  0.16588898667E+03  0.00000000000E+00 0. -1.
         11    1    1    2    0    0  0.44310262940E+02  0.22657292658E+02 -0.41587688906E+02  0.64855903208E+02  0.00000000000E+00 0.  1.
<mgrwt>
<rscale>  0 0.12728349E+03</rscale>
<asrwt>0</asrwt>
<pdfrwt beam="1">  1        2 0.96859775E-02 0.13538252E+03</pdfrwt>
<pdfrwt beam="2">  1       -2 0.47588822E-01 0.13538252E+03</pdfrwt>
<totfact> 0.27179346E+03</totfact>
</mgrwt>
</event>
<event>
 7    1  0.5928109E-006  0.2351439E+03  0.7546771E-02  0.1124927E+00
          3   -1    0    0  501    0  0.00000000000E+00  0.00000000000E+00  0.16409477647E+03  0.16409477647E+03  0.00000000000E+00 0.  1.
         -3   -1    0    0    0  501 -0.00000000000E+00 -0.00000000000E+00 -0.33651996623E+03  0.33651996623E+03  0.00000000000E+00 0. -1.
         23    2    1    2    0    0 -0.16720237239E+03  0.82751620875E+02 -0.32247444253E+02  0.22685858758E+03  0.12498182671E+03 0.  0.
          5    1    3    3  502    0 -0.92575163790E+02  0.10611043801E+03 -0.44082232882E+02  0.14763102405E+03  0.47000000000E+01 0.  1.
         -5    1    3    3    0  502 -0.74627208602E+02 -0.23358817137E+02  0.11834788629E+02  0.79227563535E+02  0.47000000000E+01 0.  1.
        -11    1    1    2    0    0 -0.24328486339E+02 -0.25012279112E+02 -0.24988670884E+02  0.42917630719E+02  0.00000000000E+00 0.  1.
         11    1    1    2    0    0  0.19153085873E+03 -0.57739341763E+02 -0.11518907462E+03  0.23083852440E+03  0.00000000000E+00 0. -1.
<mgrwt>
<rscale>  0 0.23245071E+03</rscale>
<asrwt>0</asrwt>
<pdfrwt beam="1">  1        3 0.25245350E-01 0.23514385E+03</pdfrwt>
<pdfrwt beam="2">  1       -3 0.51772302E-01 0.23514385E+03</pdfrwt>
<totfact> 0.13624872E+02</totfact>
</mgrwt>
</event>
<event>
 7    1  0.5928109E-006  0.2089861E+03  0.7546771E-02  0.1146190E+00
         -1   -1    0    0    0  501 -0.00000000000E+00  0.00000000000E+00  0.94059801398E+02  0.94059801398E+02  0.00000000000E+00 0.  1.
          1   -1    0    0  501    0  0.00000000000E+00 -0.00000000000E+00 -0.43898188641E+03  0.43898188641E+03  0.00000000000E+00 0. -1.
         23    2    1    2    0    0 -0.55506121347E+02  0.15800786293E+03 -0.22817738316E+03  0.30941901521E+03  0.12501117762E+03 0.  0.
          5    1    3    3  502    0  0.30928841024E+02  0.79132057860E+02 -0.58535345742E+02  0.10328093962E+03  0.47000000000E+01 0. -1.
         -5    1    3    3    0  502 -0.86434962372E+02  0.78875805069E+02 -0.16964203742E+03  0.20613807558E+03  0.47000000000E+01 0. -1.
        -11    1    1    2    0    0  0.23641351273E+02 -0.14075986884E+02  0.99349665960E+01  0.29253212781E+02  0.00000000000E+00 0.  1.
         11    1    1    2    0    0  0.31864770075E+02 -0.14393187604E+03 -0.12667966845E+03  0.19436945982E+03  0.00000000000E+00 0. -1.
<mgrwt>
<rscale>  0 0.20426438E+03</rscale>
<asrwt>0</asrwt>
<pdfrwt beam="2">  1        1 0.67535675E-01 0.20898614E+03</pdfrwt>
<pdfrwt beam="1">  1       -1 0.14470739E-01 0.20898614E+03</pdfrwt>
<totfact> 0.18150453E+03</totfact>
</mgrwt>
</event>
<event>
 7    1  0.5928109E-006  0.1369892E+03  0.7546771E-02  0.1229790E+00
         -3   -1    0    0    0  501 -0.00000000000E+00  0.00000000000E+00  0.10303339612E+03  0.10303339612E+03  0.00000000000E+00 0.  1.
          3   -1    0    0  501    0  0.00000000000E+00 -0.00000000000E+00 -0.17161757274E+03  0.17161757274E+03  0.00000000000E+00 0. -1.
         23    2    1    2    0    0 -0.55376603918E+02  0.86692050877E+01 -0.93553687097E+02  0.16588653256E+03  0.12499730372E+03 0.  0.
          5    1    3    3  502    0  0.19937279257E+02 -0.27192982117E+02 -0.71937759253E+02  0.79586962418E+02  0.47000000000E+01 0. -1.
         -5    1    3    3    0  502 -0.75313883176E+02  0.35862187205E+02 -0.21615927844E+02  0.86299570142E+02  0.47000000000E+01 0. -1.
        -11    1    1    2    0    0 -0.19309918669E+02  0.59222502323E+01  0.25669143272E+02  0.32662683955E+02  0.00000000000E+00 0.  1.
         11    1    1    2    0    0  0.74686522587E+02 -0.14591455320E+02 -0.69963279951E+00  0.76101752349E+02  0.00000000000E+00 0. -1.
<mgrwt>
<rscale>  0 0.12843910E+03</rscale>
<asrwt>0</asrwt>
<pdfrwt beam="2">  1        3 0.26402703E-01 0.13698923E+03</pdfrwt>
<pdfrwt beam="1">  1       -3 0.15851292E-01 0.13698923E+03</pdfrwt>
<totfact> 0.10589767E+03</totfact>
</mgrwt>
</event>
<event>
 7    1  0.5928109E-006  0.1252285E+03  0.7546771E-02  0.1252054E+00
         -1   -1    0    0    0  501 -0.00000000000E+00  0.00000000000E+00  0.20204140572E+02  0.20204140572E+02  0.00000000000E+00 0.  1.
          1   -1    0    0  501    0  0.00000000000E+00 -0.00000000000E+00 -0.59887894254E+03  0.59887894254E+03  0.00000000000E+00 0. -1.
         23    2    1    2    0    0 -0.49296571787E+01 -0.56695967312E+01 -0.41042726967E+03  0.42910688058E+03  0.12500290166E+03 0.  0.
          5    1    3    3  502    0  0.28958248594E+02  0.47150183324E+02 -0.12430165754E+03  0.13614224920E+03  0.47000000000E+01 0. -1.
         -5    1    3    3    0  502 -0.33887905773E+02 -0.52819780055E+02 -0.28612561213E+03  0.29296463138E+03  0.47000000000E+01 0. -1.
        -11    1    1    2    0    0 -0.30426004968E+02 -0.20883748444E+02 -0.40494005560E+02  0.54787199360E+02  0.00000000000E+00 0.  1.
         11    1    1    2    0    0  0.35355662147E+02  0.26553345175E+02 -0.12775352674E+03  0.13518900318E+03  0.00000000000E+00 0. -1.
<mgrwt>
<rscale>  0 0.11472967E+03</rscale>
<asrwt>0</asrwt>
<pdfrwt beam="2">  1        1 0.92135215E-01 0.12522848E+03</pdfrwt>
<pdfrwt beam="1">  1       -1 0.31083295E-02 0.12522848E+03</pdfrwt>
<totfact> 0.11947486E+04</totfact>
</mgrwt>
</event>
<event>
 7    1  0.5928109E-006  0.1646202E+03  0.7546771E-02  0.1190374E+00
          1   -1    0    0  501    0  0.00000000000E+00  0.00000000000E+00  0.52162689414E+03  0.52162689414E+03  0.00000000000E+00 0. -1.
         -1   -1    0    0    0  501 -0.00000000000E+00 -0.00000000000E+00 -0.59668626590E+02  0.59668626590E+02  0.00000000000E+00 0.  1.
         23    2    1    2    0    0 -0.10514446892E+03 -0.20494549125E+02  0.38823518844E+03  0.42169465685E+03  0.12499774470E+03 0.  0.
          5    1    3    3  502    0  0.11621205086E+02  0.17877154106E+01 -0.27956763227E+01  0.12967426119E+02  0.47000000000E+01 0.  1.
         -5    1    3    3    0  502 -0.11676567401E+03 -0.22282264536E+02  0.39103086477E+03  0.40872723073E+03  0.47000000000E+01 0.  1.
        -11    1    1    2    0    0  0.39670127397E+00  0.19144109522E+02 -0.13382336292E+02  0.23361104981E+02  0.00000000000E+00 0.  1.
         11    1    1    2    0    0  0.10474776765E+03  0.13504396028E+01  0.87105415404E+02  0.13623975891E+03  0.00000000000E+00 0. -1.
<mgrwt>
<rscale>  0 0.15852305E+03</rscale>
<asrwt>0</asrwt>
<pdfrwt beam="1">  1        1 0.80250288E-01 0.16462024E+03</pdfrwt>
<pdfrwt beam="2">  1       -1 0.91797891E-02 0.16462024E+03</pdfrwt>
<totfact> 0.29159025E+03</totfact>
</mgrwt>
</event>
<event>
 7    1  0.5928109E-006  0.1725439E+03  0.7546771E-02  0.1181470E+00
          1   -1    0    0  501    0  0.00000000000E+00  0.00000000000E+00  0.46289663387E+03  0.46289663387E+03  0.00000000000E+00 0. -1.
         -1   -1    0    0    0  501 -0.00000000000E+00 -0.00000000000E+00 -0.57835420615E+02  0.57835420615E+02  0.00000000000E+00 0.  1.
         23    2    1    2    0    0  0.11514901629E+03 -0.29807790851E+02  0.26081615317E+03  0.31272423935E+03  0.12499433496E+03 0.  0.
          5    1    3    3  502    0  0.67641365855E+02  0.32089119639E+01  0.29110905824E+02  0.73859233198E+02  0.47000000000E+01 0. -1.
         -5    1    3    3    0  502  0.47507650432E+02 -0.33016702815E+02  0.23170524735E+03  0.23886500615E+03  0.47000000000E+01 0. -1.
        -11    1    1    2    0    0 -0.25709499809E+02 -0.27042145042E+02  0.13441415493E+02  0.39660151781E+02  0.00000000000E+00 0. -1.
         11    1    1    2    0    0 -0.89439516479E+02  0.56849935892E+02  0.13080364458E+03  0.16834766335E+03  0.00000000000E+00 0.  1.
<mgrwt>
<rscale>  0 0.16657213E+03</rscale>
<asrwt>0</asrwt>
<pdfrwt beam="1">  1        1 0.71214864E-01 0.17254386E+03</pdfrwt>
<pdfrwt beam="2">  1       -1 0.88977573E-02 0.17254386E+03</pdfrwt>
<totfact> 0.35822266E+03</totfact>
</mgrwt>
</event>
<event>
 7    1  0.5928109E-006  0.1324836E+03  0.7546771E-02  0.1235316E+00
         -2   -1    0    0    0  501 -0.00000000000E+00  0.00000000000E+00  0.18746904149E+02  0.18746904149E+02  0.00000000000E+00 0.  1.
          2   -1    0    0  501    0  0.00000000000E+00 -0.00000000000E+00 -0.84694058061E+03  0.84694058061E+03  0.00000000000E+00 0. -1.
         23    2    1    2    0    0 -0.34787062612E+02  0.26764954102E+02 -0.60388921181E+03  0.61825082370E+03  0.12500159346E+03 0.  0.
          5    1    3    3  502    0 -0.51625970922E+02  0.50438121366E+02 -0.18975243345E+03  0.20306974408E+03  0.47000000000E+01 0. -1.
         -5    1    3    3    0  502  0.16838908310E+02 -0.23673167264E+02 -0.41413677836E+03  0.41518107962E+03  0.47000000000E+01 0. -1.
        -11    1    1    2    0    0  0.20138296392E+01 -0.46316918471E+02 -0.19175147654E+03  0.19727630675E+03  0.00000000000E+00 0. -1.
         11    1    1    2    0    0  0.32773232973E+02  0.19551964368E+02 -0.32552988101E+02  0.50160354309E+02  0.00000000000E+00 0.  1.
<mgrwt>
<rscale>  0 0.12484226E+03</rscale>
<asrwt>0</asrwt>
<pdfrwt beam="2">  1        2 0.13029858E+00 0.13248359E+03</pdfrwt>
<pdfrwt beam="1">  1       -2 0.28841385E-02 0.13248359E+03</pdfrwt>
<totfact> 0.14114166E+04</totfact>
</mgrwt>
</event>
<event>
 7    1  0.5928109E-006  0.1763001E+03  0.7546771E-02  0.1177412E+00
         -2   -1    0    0    0  501 -0.00000000000E+00  0.00000000000E+00  0.42665411189E+02  0.42665411189E+02  0.00000000000E+00 0.  1.
          2   -1    0    0  501    0  0.00000000000E+00 -0.00000000000E+00 -0.26400114000E+04  0.26400114000E+04  0.00000000000E+00 0. -1.
         23    2    1    2    0    0  0.12064591077E+03 -0.30025024800E+02 -0.24871058415E+04  0.24933465862E+04  0.12499917730E+03 0.  0.
          5    1    3    3  502    0  0.88155467620E+02  0.37976608811E+02 -0.11013579433E+04  0.11055428615E+04  0.47000000000E+01 0. -1.
         -5    1    3    3    0  502  0.32490443150E+02 -0.68001633612E+02 -0.13857478982E+04  0.13878037247E+04  0.47000000000E+01 0. -1.
        -11    1    1    2    0    0 -0.54392098385E+02  0.18208040745E+02 -0.10765393150E+03  0.12198115462E+03  0.00000000000E+00 0.  1.
         11    1    1    2    0    0 -0.66253812386E+02  0.11816984055E+02 -0.25862158395E+01  0.67349070373E+02  0.00000000000E+00 0. -1.
<mgrwt>
<rscale>  0 0.17041863E+03</rscale>
<asrwt>0</asrwt>
<pdfrwt beam="2">  1        2 0.40615578E+00 0.17630012E+03</pdfrwt>
<pdfrwt beam="1">  1       -2 0.65639065E-02 0.17630012E+03</pdfrwt>
<totfact> 0.44410892E+02</totfact>
</mgrwt>
</event>
<event>
 7    1  0.5928109E-006  0.1356861E+03  0.7546771E-02  0.1234863E+00
          1   -1    0    0  501    0  0.00000000000E+00  0.00000000000E+00  0.40577014913E+03  0.40577014913E+03  0.00000000000E+00 0. -1.
         -1   -1    0    0    0  501 -0.00000000000E+00 -0.00000000000E+00 -0.50193281667E+02  0.50193281667E+02  0.00000000000E+00 0.  1.
         23    2    1    2    0    0 -0.26394904490E+02  0.45697404489E+02  0.32654704159E+03  0.35361518681E+03  0.12500314481E+03 0.  0.
          5    1    3    3  502    0  0.44000877750E+02 -0.10508886617E+02  0.10940824272E+03  0.11848530506E+03  0.47000000000E+01 0.  1.
         -5    1    3    3    0  502 -0.70395782240E+02  0.56206291106E+02  0.21713879887E+03  0.23512988175E+03  0.47000000000E+01 0.  1.
        -11    1    1    2    0    0 -0.74017516523E+00 -0.36394165102E+02  0.53455151190E+02  0.64672531275E+02  0.00000000000E+00 0. -1.
         11    1    1    2    0    0  0.27135079655E+02 -0.93032393862E+01 -0.24425325320E+02  0.37675712707E+02  0.00000000000E+00 0.  1.
<mgrwt>
<rscale>  0 0.12513207E+03</rscale>
<asrwt>0</asrwt>
<pdfrwt beam="1">  1        1 0.62426175E-01 0.13568615E+03</pdfrwt>
<pdfrwt beam="2">  1       -1 0.77220436E-02 0.13568615E+03</pdfrwt>
<totfact> 0.51959240E+03</totfact>
</mgrwt>
</event>
<event>
 7    1  0.5928109E-006  0.1455506E+03  0.7546771E-02  0.1213098E+00
         -2   -1    0    0    0  501 -0.00000000000E+00  0.00000000000E+00  0.71587220499E+02  0.71587220499E+02  0.00000000000E+00 0.  1.
          2   -1    0    0  501    0  0.00000000000E+00 -0.00000000000E+00 -0.39013678612E+03  0.39013678612E+03  0.00000000000E+00 0. -1.
         23    2    1    2    0    0  0.61908372766E+02  0.62353258156E+02 -0.30224806671E+03  0.33546812885E+03  0.11603618497E+03 0.  0.
          5    1    3    3  502    0  0.63571626394E+02  0.51716938555E+01 -0.24931804536E+03  0.25739012382E+03  0.47000000000E+01 0. -1.
         -5    1    3    3    0  502 -0.16632536284E+01  0.57181564301E+02 -0.52930021351E+02  0.78078005025E+02  0.47000000000E+01 0.  1.
        -11    1    1    2    0    0 -0.20319534628E+02 -0.77888117878E+02 -0.14736303546E+02  0.81832762609E+02  0.00000000000E+00 0. -1.
         11    1    1    2    0    0 -0.41588838138E+02  0.15534859722E+02 -0.15651953647E+01  0.44423115163E+02  0.00000000000E+00 0.  1.
<mgrwt>
<rscale>  0 0.14017183E+03</rscale>
<asrwt>0</asrwt>
<pdfrwt beam="2">  1        2 0.60021046E-01 0.14555058E+03</pdfrwt>
<pdfrwt beam="1">  1       -2 0.11013418E-01 0.14555058E+03</pdfrwt>
<totfact> 0.45072038E+03</totfact>
</mgrwt>
</event>
<event>
 7    1  0.5928109E-006  0.1793678E+03  0.7546771E-02  0.1175561E+00
          1   -1    0    0  501    0  0.00000000000E+00  0.00000000000E+00  0.52007411992E+03  0.52007411992E+03  0.00000000000E+00 0. -1.
         -1   -1    0    0    0  501 -0.00000000000E+00 -0.00000000000E+00 -0.68091831636E+02  0.68091831636E+02  0.00000000000E+00 0.  1.
         23    2    1    2    0    0  0.70421608985E+02  0.10764805574E+03  0.37874788457E+03  0.41907368622E+03  0.12500195001E+03 0.  0.
          5    1    3    3  502    0  0.36835985991E+02  0.33217381583E+02  0.24529158651E+02  0.55534259042E+02  0.47000000000E+01 0. -1.
         -5    1    3    3    0  502  0.33585622994E+02  0.74430674156E+02  0.35421872591E+03  0.36353942718E+03  0.47000000000E+01 0. -1.
        -11    1    1    2    0    0 -0.64209165460E+02 -0.59158429001E+02  0.81409047901E+01  0.87685865347E+02  0.00000000000E+00 0.  1.
         11    1    1    2    0    0 -0.62124435257E+01 -0.48489626738E+02  0.65093498926E+02  0.81406399983E+02  0.00000000000E+00 0. -1.
<mgrwt>
<rscale>  0 0.17221141E+03</rscale>
<asrwt>0</asrwt>
<pdfrwt beam="1">  1        1 0.80011400E-01 0.17936776E+03</pdfrwt>
<pdfrwt beam="2">  1       -1 0.10475667E-01 0.17936776E+03</pdfrwt>
<totfact> 0.23970323E+03</totfact>
</mgrwt>
</event>
<event>
 7    1  0.5928109E-006  0.1440342E+03  0.7546771E-02  0.1218065E+00
          1   -1    0    0  501    0  0.00000000000E+00  0.00000000000E+00  0.56741135195E+03  0.56741135195E+03  0.00000000000E+00 0. -1.
         -1   -1    0    0    0  501 -0.00000000000E+00 -0.00000000000E+00 -0.30128389112E+02  0.30128389112E+02  0.00000000000E+00 0.  1.
         23    2    1    2    0    0 -0.29355112592E+02  0.65268441076E+02  0.32488105285E+03  0.35537804984E+03  0.12499667103E+03 0.  0.
          5    1    3    3  502    0  0.19476796273E+02  0.82191964861E+02  0.25265138293E+03  0.26643887850E+03  0.47000000000E+01 0. -1.
         -5    1    3    3    0  502 -0.48831908865E+02 -0.16923523785E+02  0.72229669925E+02  0.88939171337E+02  0.47000000000E+01 0. -1.
        -11    1    1    2    0    0  0.46774031707E+01 -0.67531228001E+02  0.20560985229E+03  0.21646652447E+03  0.00000000000E+00 0. -1.
         11    1    1    2    0    0  0.24677709421E+02  0.22627869248E+01  0.67920576921E+01  0.25695166756E+02  0.00000000000E+00 0.  1.
<mgrwt>
<rscale>  0 0.13653762E+03</rscale>
<asrwt>0</asrwt>
<pdfrwt beam="1">  1        1 0.87294046E-01 0.14403423E+03</pdfrwt>
<pdfrwt beam="2">  1       -1 0.46351372E-02 0.14403423E+03</pdfrwt>
<totfact> 0.72210975E+03</totfact>
</mgrwt>
</event>
<event>
 7    1  0.5928109E-006  0.1348291E+03  0.7546771E-02  0.1234379E+00
         -2   -1    0    0    0  501 -0.00000000000E+00  0.00000000000E+00  0.18600544770E+02  0.18600544770E+02  0.00000000000E+00 0.  1.
          2   -1    0    0  501    0  0.00000000000E+00 -0.00000000000E+00 -0.97016526098E+03  0.97016526098E+03  0.00000000000E+00 0. -1.
         23    2    1    2    0    0  0.48281332783E+02 -0.14870917409E+02 -0.76321244017E+03  0.77503040095E+03  0.12500664900E+03 0.  0.
          5    1    3    3  502    0  0.39434068324E+02 -0.61002281786E+02 -0.27256211336E+03  0.28211437355E+03  0.47000000000E+01 0.  1.
         -5    1    3    3    0  502  0.88472644589E+01  0.46131364377E+02 -0.49065032681E+03  0.49291602740E+03  0.47000000000E+01 0.  1.
        -11    1    1    2    0    0 -0.42842928385E+02 -0.22556753861E+02 -0.47251265517E+02  0.67653571600E+02  0.00000000000E+00 0.  1.
         11    1    1    2    0    0 -0.54384043983E+01  0.37427671271E+02 -0.14110101052E+03  0.14608183319E+03  0.00000000000E+00 0. -1.
<mgrwt>
<rscale>  0 0.12544288E+03</rscale>
<asrwt>0</asrwt>
<pdfrwt beam="2">  1        2 0.14925621E+00 0.13482913E+03</pdfrwt>
<pdfrwt beam="1">  1       -2 0.28616220E-02 0.13482913E+03</pdfrwt>
<totfact> 0.11962002E+04</totfact>
</mgrwt>
</event>
<event>
 7    1  0.5928109E-006  0.3020791E+03  0.7546771E-02  0.1085765E+00
          1   -1    0    0  501    0  0.00000000000E+00  0.00000000000E+00  0.48203336943E+03  0.48203336943E+03  0.00000000000E+00 0. -1.
         -1   -1    0    0    0  501 -0.00000000000E+00 -0.00000000000E+00 -0.18276664392E+03  0.18276664392E+03  0.00000000000E+00 0.  1.
         23    2    1    2    0    0  0.85765907244E+02 -0.26127973595E+03  0.17845107863E+03  0.35085116900E+03  0.12501545530E+03 0.  0.
          5    1    3    3  502    0  0.36479920181E+02 -0.51002020202E+02 -0.10617199928E+02  0.63771510688E+02  0.47000000000E+01 0.  1.
         -5    1    3    3    0  502  0.49285987062E+02 -0.21027771575E+03  0.18906827856E+03  0.28707965831E+03  0.47000000000E+01 0.  1.
        -11    1    1    2    0    0 -0.21823422149E+02  0.64934979975E+02 -0.10402861391E+02  0.69289486243E+02  0.00000000000E+00 0.  1.
         11    1    1    2    0    0 -0.63942485094E+02  0.19634475597E+03  0.13121850827E+03  0.24465935811E+03  0.00000000000E+00 0. -1.
<mgrwt>
<rscale>  0 0.29895398E+03</rscale>
<asrwt>0</asrwt>
<pdfrwt beam="1">  1        1 0.74158979E-01 0.30207905E+03</pdfrwt>
<pdfrwt beam="2">  1       -1 0.28117945E-01 0.30207905E+03</pdfrwt>
<totfact> 0.54333894E+02</totfact>
</mgrwt>
</event>
<event>
 7    1  0.5928109E-006  0.2065817E+03  0.7546771E-02  0.1150689E+00
          2   -1    0    0  501    0  0.00000000000E+00  0.00000000000E+00  0.14196433836E+03  0.14196433836E+03  0.00000000000E+00 0. -1.
         -2   -1    0    0    0  501 -0.00000000000E+00 -0.00000000000E+00 -0.26893234743E+03  0.26893234743E+03  0.00000000000E+00 0.  1.
         23    2    1    2    0    0  0.16402548548E+03 -0.12089074052E+02 -0.10607256686E+03  0.23222271473E+03  0.12500197677E+03 0.  0.
          5    1    3    3  502    0  0.10214154157E+03 -0.60707778110E+02 -0.29939378393E+02  0.12262457019E+03  0.47000000000E+01 0. -1.
         -5    1    3    3    0  502  0.61883943916E+02  0.48618704058E+02 -0.76133188470E+02  0.10959814454E+03  0.47000000000E+01 0. -1.
        -11    1    1    2    0    0 -0.39430224415E+02 -0.11985098977E+02  0.19373655133E+02  0.45538156617E+02  0.00000000000E+00 0. -1.
         11    1    1    2    0    0 -0.12459526107E+03  0.24074173028E+02 -0.40269097334E+02  0.13313581444E+03  0.00000000000E+00 0.  1.
<mgrwt>
<rscale>  0 0.19887795E+03</rscale>
<asrwt>0</asrwt>
<pdfrwt beam="1">  1        2 0.21840668E-01 0.20658170E+03</pdfrwt>
<pdfrwt beam="2">  1       -2 0.41374207E-01 0.20658170E+03</pdfrwt>
<totfact> 0.13885859E+03</totfact>
</mgrwt>
</event>
<event>
 7    1  0.5928109E-006  0.1706619E+03  0.7546771E-02  0.1183651E+00
         -1   -1    0    0    0  501 -0.00000000000E+00  0.00000000000E+00  0.32485677418E+02  0.32485677418E+02  0.00000000000E+00 0.  1.
          1   -1    0    0  501    0  0.00000000000E+00 -0.00000000000E+00 -0.93133753543E+03  0.93133753543E+03  0.00000000000E+00 0. -1.
         23    2    1    2    0    0  0.82221952787E+02  0.82094152503E+02 -0.67123494041E+03  0.69259067230E+03  0.12500237894E+03 0.  0.
          5    1    3    3  502    0  0.10870302579E+03  0.48271772276E+02 -0.38113358687E+03  0.39928863352E+03  0.47000000000E+01 0. -1.
         -5    1    3    3    0  502 -0.26481073005E+02  0.33822380226E+02 -0.29010135354E+03  0.29330203879E+03  0.47000000000E+01 0. -1.
        -11    1    1    2    0    0 -0.70749957788E+01 -0.17265969042E+02  0.41456002260E+01  0.19114268321E+02  0.00000000000E+00 0.  1.
         11    1    1    2    0    0 -0.75146957008E+02 -0.64828183461E+02 -0.23176251783E+03  0.25211827223E+03  0.00000000000E+00 0. -1.
<mgrwt>
<rscale>  0 0.16455229E+03</rscale>
<asrwt>0</asrwt>
<pdfrwt beam="2">  1        1 0.14328268E+00 0.17066193E+03</pdfrwt>
<pdfrwt beam="1">  1       -1 0.49977970E-02 0.17066193E+03</pdfrwt>
<totfact> 0.31426109E+03</totfact>
</mgrwt>
</event>
<event>
 7    1  0.5928109E-006  0.1291095E+03  0.7546771E-02  0.1243557E+00
         -2   -1    0    0    0  501 -0.00000000000E+00  0.00000000000E+00  0.25967699520E+03  0.25967699520E+03  0.00000000000E+00 0.  1.
          2   -1    0    0  501    0  0.00000000000E+00 -0.00000000000E+00 -0.49762474157E+02  0.49762474157E+02  0.00000000000E+00 0. -1.
         23    2    1    2    0    0 -0.28303837858E+02  0.15569342997E+02  0.96434977956E+02  0.16114891234E+03  0.12500302115E+03 0.  0.
          5    1    3    3  502    0 -0.43752022552E+02 -0.43889611862E+02  0.71357592092E+02  0.94628396668E+02  0.47000000000E+01 0. -1.
         -5    1    3    3    0  502  0.15448184695E+02  0.59458954859E+02  0.25077385864E+02  0.66520515671E+02  0.47000000000E+01 0. -1.
        -11    1    1    2    0    0 -0.26348806080E+02  0.10201838523E+02  0.13137192081E+02  0.31159635859E+02  0.00000000000E+00 0. -1.
         11    1    1    2    0    0  0.54652643938E+02 -0.25771181520E+02  0.10034235101E+03  0.11713092116E+03  0.00000000000E+00 0.  1.
<mgrwt>
<rscale>  0 0.11972181E+03</rscale>
<asrwt>0</asrwt>
<pdfrwt beam="2">  1        2 0.76557654E-02 0.12910952E+03</pdfrwt>
<pdfrwt beam="1">  1       -2 0.39950306E-01 0.12910952E+03</pdfrwt>
<totfact> 0.50838819E+03</totfact>
</mgrwt>
</event>
<event>
 6    1  0.5928109E-006  0.1444911E+03  0.7546771E-02  0.1249753E+00
         -1   -1    0    0    0  501 -0.00000000000E+00  0.00000000000E+00  0.39673459509E+02  0.39673459509E+02  0.00000000000E+00 0.  1.
          1   -1    0    0  501    0  0.00000000000E+00 -0.00000000000E+00 -0.27466793640E+03  0.27466793640E+03  0.00000000000E+00 0. -1.
          5    1    1    2  502    0 -0.24169564537E+02  0.49570177117E+02 -0.60648011924E+02  0.82107500629E+02  0.47000000000E+01 0. -1.
         -5    1    1    2    0  502  0.77862949513E+02 -0.40982710859E+02 -0.13191432411E+03  0.15863700829E+03  0.47000000000E+01 0.  1.
        -11    1    1    2    0    0 -0.10040024800E+02 -0.16609026259E+01 -0.23317202969E+02  0.25441160544E+02  0.00000000000E+00 0. -1.
         11    1    1    2    0    0 -0.43653360177E+02 -0.69265636325E+01 -0.19114937893E+02  0.48155726442E+02  0.00000000000E+00 0.  1.
<mgrwt>
<rscale>  0 0.11605384E+03</rscale>
<asrwt>0</asrwt>
<pdfrwt beam="2">  1        1 0.42256607E-01 0.14449106E+03</pdfrwt>
<pdfrwt beam="1">  1       -1 0.61036089E-02 0.14449106E+03</pdfrwt>
<totfact> 0.12075555E+04</totfact>
</mgrwt>
</event>
<event>
 7    1  0.5928109E-006  0.1311723E+03  0.7546771E-02  0.1239362E+00
          1   -1    0    0  501    0  0.00000000000E+00  0.00000000000E+00  0.10789864468E+04  0.10789864468E+04  0.00000000000E+00 0. -1.
         -1   -1    0    0    0  501 -0.00000000000E+00 -0.00000000000E+00 -0.16942867290E+02  0.16942867290E+02  0.00000000000E+00 0.  1.
         23    2    1    2    0    0  0.13046068156E+02 -0.37566578850E+02  0.86990561053E+03  0.87973970010E+03  0.12499888386E+03 0.  0.
          5    1    3    3  502    0  0.20188899029E+02 -0.82341576417E+02  0.52208526223E+03  0.52894502350E+03  0.47000000000E+01 0.  1.
         -5    1    3    3    0  502 -0.71428308734E+01  0.44774997567E+02  0.34782034830E+03  0.35079467660E+03  0.47000000000E+01 0.  1.
        -11    1    1    2    0    0  0.30019577086E+02  0.39879452920E+02  0.13937218396E+03  0.14804104645E+03  0.00000000000E+00 0.  1.
         11    1    1    2    0    0 -0.43065645242E+02 -0.23128740695E+01  0.52765784977E+02  0.68148567489E+02  0.00000000000E+00 0. -1.
<mgrwt>
<rscale>  0 0.12229276E+03</rscale>
<asrwt>0</asrwt>
<pdfrwt beam="1">  1        1 0.16599786E+00 0.13117229E+03</pdfrwt>
<pdfrwt beam="2">  1       -1 0.26065958E-02 0.13117229E+03</pdfrwt>
<totfact> 0.63085417E+03</totfact>
</mgrwt>
</event>
<event>
 7    1  0.5928109E-006  0.1477347E+03  0.7546771E-02  0.1215121E+00
          1   -1    0    0  501    0  0.00000000000E+00  0.00000000000E+00  0.29749071392E+03  0.29749071392E+03  0.00000000000E+00 0. -1.
         -1   -1    0    0    0  501 -0.00000000000E+00 -0.00000000000E+00 -0.12008514869E+03  0.12008514869E+03  0.00000000000E+00 0.  1.
         23    2    1    2    0    0  0.20836619938E+02  0.75944693381E+02  0.24378367253E+03  0.28505440485E+03  0.12499509410E+03 0.  0.
          5    1    3    3  502    0  0.34311486068E+02  0.74930729822E+02  0.25425859336E+03  0.26732267888E+03  0.47000000000E+01 0.  1.
         -5    1    3    3    0  502 -0.13474866129E+02  0.10139635583E+01 -0.10474920832E+02  0.17731725966E+02  0.47000000000E+01 0.  1.
        -11    1    1    2    0    0 -0.16698340297E+02 -0.11945873325E+02 -0.65223407822E+02  0.68378588652E+02  0.00000000000E+00 0.  1.
         11    1    1    2    0    0 -0.41382796419E+01 -0.63998820056E+02 -0.11546994800E+01  0.64142869111E+02  0.00000000000E+00 0. -1.
<mgrwt>
<rscale>  0 0.13867617E+03</rscale>
<asrwt>0</asrwt>
<pdfrwt beam="1">  1        1 0.45767802E-01 0.14773468E+03</pdfrwt>
<pdfrwt beam="2">  1       -1 0.18474638E-01 0.14773468E+03</pdfrwt>
<totfact> 0.19942901E+03</totfact>
</mgrwt>
</event>
<event>
 7    1  0.5928109E-006  0.1529818E+03  0.7546771E-02  0.1205425E+00
          1   -1    0    0  501    0  0.00000000000E+00  0.00000000000E+00  0.51500344498E+03  0.51500344498E+03  0.00000000000E+00 0. -1.
         -1   -1    0    0    0  501 -0.00000000000E+00 -0.00000000000E+00 -0.54468740104E+02  0.54468740104E+02  0.00000000000E+00 0.  1.
         23    2    1    2    0    0  0.24217835020E+02 -0.84806213440E+02  0.40095103036E+03  0.42914467505E+03  0.12499930403E+03 0.  0.
          5    1    3    3  502    0  0.68374389177E+00 -0.14447279457E+02 -0.53327527343E+01  0.16115819593E+02  0.47000000000E+01 0.  1.
         -5    1    3    3    0  502  0.23534091129E+02 -0.70358933983E+02  0.40628378310E+03  0.41302885546E+03  0.47000000000E+01 0.  1.
        -11    1    1    2    0    0 -0.37641133143E+02  0.60931904595E+02 -0.33426726149E+01  0.71698851888E+02  0.00000000000E+00 0.  1.
         11    1    1    2    0    0  0.13423298122E+02  0.23874308845E+02  0.62926347124E+02  0.68628658137E+02  0.00000000000E+00 0. -1.
<mgrwt>
<rscale>  0 0.14604042E+03</rscale>
<asrwt>0</asrwt>
<pdfrwt beam="1">  1        1 0.79231296E-01 0.15298177E+03</pdfrwt>
<pdfrwt beam="2">  1       -1 0.83798065E-02 0.15298177E+03</pdfrwt>
<totfact> 0.33976618E+03</totfact>
</mgrwt>
</event>
<event>
 7    1  0.5928109E-006  0.1254996E+03  0.7546771E-02  0.1245658E+00
          2   -1    0    0  501    0  0.00000000000E+00  0.00000000000E+00  0.16413110215E+03  0.16413110215E+03  0.00000000000E+00 0. -1.
         -2   -1    0    0    0  501 -0.00000000000E+00 -0.00000000000E+00 -0.81063161192E+02  0.81063161192E+02  0.00000000000E+00 0.  1.
         23    2    1    2    0    0  0.25110058609E+01  0.10921359741E+02  0.72688155200E+02  0.14503004880E+03  0.12499826358E+03 0.  0.
          5    1    3    3  502    0  0.36290583299E+02  0.38766351769E+02  0.84076311364E+02  0.99552762886E+02  0.47000000000E+01 0.  1.
         -5    1    3    3    0  502 -0.33779577438E+02 -0.27844992028E+02 -0.11388156164E+02  0.45477285910E+02  0.47000000000E+01 0.  1.
        -11    1    1    2    0    0  0.41389756476E+01  0.17597204290E+02 -0.38868905407E+02  0.42867056416E+02  0.00000000000E+00 0.  1.
         11    1    1    2    0    0 -0.66499815085E+01 -0.28518564031E+02  0.49248691165E+02  0.57297158131E+02  0.00000000000E+00 0. -1.
<mgrwt>
<rscale>  0 0.11846055E+03</rscale>
<asrwt>0</asrwt>
<pdfrwt beam="1">  1        2 0.25250939E-01 0.12549959E+03</pdfrwt>
<pdfrwt beam="2">  1       -2 0.12471256E-01 0.12549959E+03</pdfrwt>
<totfact> 0.92565922E+03</totfact>
</mgrwt>
</event>
<event>
 6    1  0.5928109E-006  0.4938828E+03  0.7546771E-02  0.1078911E+00
         -1   -1    0    0    0  501 -0.00000000000E+00  0.00000000000E+00  0.16374449482E+03  0.16374449482E+03  0.00000000000E+00 0.  1.
          1   -1    0    0  501    0  0.00000000000E+00 -0.00000000000E+00 -0.54929594776E+03  0.54929594776E+03  0.00000000000E+00 0. -1.
          5    1    1    2  502    0  0.18576316213E+03 -0.18791488132E+03 -0.17622532752E+03  0.31764352833E+03  0.47000000000E+01 0. -1.
         -5    1    1    2    0  502 -0.15028512284E+03  0.16907474525E+03 -0.21929141560E+03  0.31509157809E+03  0.47000000000E+01 0.  1.
        -11    1    1    2    0    0 -0.26040949413E+00  0.17446032533E+02 -0.25112773158E+02  0.30579130791E+02  0.00000000000E+00 0. -1.
         11    1    1    2    0    0 -0.35217629799E+02  0.13941035442E+01  0.35078063335E+02  0.49726205371E+02  0.00000000000E+00 0.  1.
<mgrwt>
<rscale>  0 0.31301242E+03</rscale>
<asrwt>0</asrwt>
<pdfrwt beam="2">  1        1 0.84507071E-01 0.49388280E+03</pdfrwt>
<pdfrwt beam="1">  1       -1 0.25191460E-01 0.49388280E+03</pdfrwt>
<totfact> 0.54433834E+02</totfact>
</mgrwt>
</event>
<event>
 7    1  0.5928109E-006  0.1864364E+03  0.7546771E-02  0.1166824E+00
         -2   -1    0    0    0  501 -0.00000000000E+00  0.00000000000E+00  0.27645828931E+03  0.27645828931E+03  0.00000000000E+00 0.  1.
          2   -1    0    0  501    0  0.00000000000E+00 -0.00000000000E+00 -0.12704035643E+03  0.12704035643E+03  0.00000000000E+00 0. -1.
         23    2    1    2    0    0 -0.13148508042E+03  0.42947323701E+02  0.95599439233E+01  0.18668129323E+03  0.12500285488E+03 0.  0.
          5    1    3    3  502    0 -0.82978554537E+02  0.80011675676E+02  0.34732967374E+02  0.12048144164E+03  0.47000000000E+01 0.  1.
         -5    1    3    3    0  502 -0.48506525881E+02 -0.37064351975E+02 -0.25173023451E+02  0.66199851586E+02  0.47000000000E+01 0.  1.
        -11    1    1    2    0    0  0.74814251753E+02 -0.68206788104E+02  0.10407607641E+03  0.14519355320E+03  0.00000000000E+00 0.  1.
         11    1    1    2    0    0  0.56670828665E+02  0.25259464404E+02  0.35781912544E+02  0.71623799318E+02  0.00000000000E+00 0. -1.
<mgrwt>
<rscale>  0 0.18101508E+03</rscale>
<asrwt>0</asrwt>
<pdfrwt beam="2">  1        2 0.19544670E-01 0.18643635E+03</pdfrwt>
<pdfrwt beam="1">  1       -2 0.42532045E-01 0.18643635E+03</pdfrwt>
<totfact> 0.14895603E+03</totfact>
</mgrwt>
</event>
<event>
 7    1  0.5928109E-006  0.1641162E+03  0.7546771E-02  0.1190812E+00
          2   -1    0    0  501    0  0.00000000000E+00  0.00000000000E+00  0.19474946331E+04  0.19474946331E+04  0.00000000000E+00 0. -1.
         -2   -1    0    0    0  501 -0.00000000000E+00 -0.00000000000E+00 -0.15017396799E+02  0.15017396799E+02  0.00000000000E+00 0.  1.
         23    2    1    2    0    0  0.93026569081E+02  0.51532594166E+02  0.14630373907E+04  0.14722134865E+04  0.12499837004E+03 0.  0.
          5    1    3    3  502    0  0.12204281877E+03  0.40097261869E+02  0.10225409348E+04  0.10305892943E+04  0.47000000000E+01 0.  1.
         -5    1    3    3    0  502 -0.29016249684E+02  0.11435332298E+02  0.44049645588E+03  0.44162419229E+03  0.47000000000E+01 0.  1.
        -11    1    1    2    0    0 -0.48884192466E+02 -0.75360730454E+02  0.33397574076E+03  0.34584490655E+03  0.00000000000E+00 0. -1.
         11    1    1    2    0    0 -0.44142376615E+02  0.23828136287E+02  0.13546410486E+03  0.14445363684E+03  0.00000000000E+00 0.  1.
<mgrwt>
<rscale>  0 0.15814071E+03</rscale>
<asrwt>0</asrwt>
<pdfrwt beam="1">  1        2 0.29961436E+00 0.16411625E+03</pdfrwt>
<pdfrwt beam="2">  1       -2 0.23103703E-02 0.16411625E+03</pdfrwt>
<totfact> 0.49234554E+03</totfact>
</mgrwt>
</event>
<event>
 7    1  0.5928109E-006  0.1683982E+03  0.7546771E-02  0.1186009E+00
          2   -1    0    0  501    0  0.00000000000E+00  0.00000000000E+00  0.82359022772E+03  0.82359022772E+03  0.00000000000E+00 0. -1.
         -2   -1    0    0    0  501 -0.00000000000E+00 -0.00000000000E+00 -0.49335303336E+02  0.49335303336E+02  0.00000000000E+00 0.  1.
         23    2    1    2    0    0  0.24915047504E+02 -0.11006251253E+03  0.67734100417E+03  0.69796045848E+03  0.12499379751E+03 0.  0.
          5    1    3    3  502    0  0.63725713099E+02 -0.47099798909E+02  0.49179878018E+03  0.49816411729E+03  0.47000000000E+01 0. -1.
         -5    1    3    3    0  502 -0.38810665594E+02 -0.62962713623E+02  0.18554222399E+03  0.19979634119E+03  0.47000000000E+01 0. -1.
        -11    1    1    2    0    0  0.17446751474E+02  0.50090514376E+02  0.85560413215E+02  0.10066793470E+03  0.00000000000E+00 0. -1.
         11    1    1    2    0    0 -0.42361798978E+02  0.59971998156E+02  0.11353507001E+02  0.74297137877E+02  0.00000000000E+00 0.  1.
<mgrwt>
<rscale>  0 0.16240430E+03</rscale>
<asrwt>0</asrwt>
<pdfrwt beam="1">  1        2 0.12670618E+00 0.16839824E+03</pdfrwt>
<pdfrwt beam="2">  1       -2 0.75900473E-02 0.16839824E+03</pdfrwt>
<totfact> 0.34576572E+03</totfact>
</mgrwt>
</event>
<event>
 7    1  0.5928109E-006  0.1461470E+03  0.7546771E-02  0.1215776E+00
          1   -1    0    0  501    0  0.00000000000E+00  0.00000000000E+00  0.11562709935E+03  0.11562709935E+03  0.00000000000E+00 0.  1.
         -1   -1    0    0    0  501 -0.00000000000E+00 -0.00000000000E+00 -0.18504615487E+03  0.18504615487E+03  0.00000000000E+00 0. -1.
         23    2    1    2    0    0 -0.54202441711E+02  0.52893463505E+02  0.27681529901E+02  0.14874544135E+03  0.12499326404E+03 0.  0.
          5    1    3    3  502    0 -0.56997930503E+02 -0.26160170067E+01  0.61092920172E+02  0.83725996690E+02  0.47000000000E+01 0.  1.
         -5    1    3    3    0  502  0.27954887924E+01  0.55509480512E+02 -0.33411390271E+02  0.65019444662E+02  0.47000000000E+01 0.  1.
        -11    1    1    2    0    0  0.25892108720E+02 -0.28992629645E+02  0.86952780534E+01  0.39831918459E+02  0.00000000000E+00 0.  1.
         11    1    1    2    0    0  0.28310332991E+02 -0.23900833860E+02 -0.10579586348E+03  0.11209589441E+03  0.00000000000E+00 0. -1.
<mgrwt>
<rscale>  0 0.13819681E+03</rscale>
<asrwt>0</asrwt>
<pdfrwt beam="1">  1        1 0.17788785E-01 0.14614698E+03</pdfrwt>
<pdfrwt beam="2">  1       -1 0.28468639E-01 0.14614698E+03</pdfrwt>
<totfact> 0.32185922E+03</totfact>
</mgrwt>
</event>
<event>
 7    1  0.5928109E-006  0.1255864E+03  0.7546771E-02  0.1251099E+00
         -1   -1    0    0    0  501 -0.00000000000E+00  0.00000000000E+00  0.59665498417E+02  0.59665498417E+02  0.00000000000E+00 0.  1.
          1   -1    0    0  501    0  0.00000000000E+00 -0.00000000000E+00 -0.19603377711E+03  0.19603377711E+03  0.00000000000E+00 0. -1.
         23    2    1    2    0    0 -0.71468298365E+01 -0.97695884054E+01 -0.64474762104E+02  0.14116988492E+03  0.12500167770E+03 0.  0.
          5    1    3    3  502    0  0.31251697003E+02 -0.46470234520E+02  0.16507901091E+01  0.56222472108E+02  0.47000000000E+01 0. -1.
         -5    1    3    3    0  502 -0.38398526840E+02  0.36700646115E+02 -0.66125552214E+02  0.84947412817E+02  0.47000000000E+01 0. -1.
        -11    1    1    2    0    0  0.11209685619E+02  0.30325866927E+02  0.68470820062E+01  0.33048415825E+02  0.00000000000E+00 0.  1.
         11    1    1    2    0    0 -0.40628557822E+01 -0.20556278521E+02 -0.78740598595E+02  0.81480974779E+02  0.00000000000E+00 0. -1.
<mgrwt>
<rscale>  0 0.11527662E+03</rscale>
<asrwt>0</asrwt>
<pdfrwt beam="2">  1        1 0.30159042E-01 0.12558639E+03</pdfrwt>
<pdfrwt beam="1">  1       -1 0.91793075E-02 0.12558639E+03</pdfrwt>
<totfact> 0.98152582E+03</totfact>
</mgrwt>
</event>
<event>
 7    1  0.5928109E-006  0.2346468E+03  0.7546771E-02  0.1126567E+00
         -1   -1    0    0    0  501 -0.00000000000E+00  0.00000000000E+00  0.17074579178E+03  0.17074579178E+03  0.00000000000E+00 0.  1.
          1   -1    0    0  501    0  0.00000000000E+00 -0.00000000000E+00 -0.30666857600E+03  0.30666857600E+03  0.00000000000E+00 0. -1.
         23    2    1    2    0    0  0.33342149811E+02 -0.19575862011E+03 -0.32005657541E+02  0.23681947696E+03  0.12500386495E+03 0.  0.
          5    1    3    3  502    0  0.99527816811E+01 -0.12559056215E+03 -0.79266149644E+02  0.14892031307E+03  0.47000000000E+01 0.  1.
         -5    1    3    3    0  502  0.23389368129E+02 -0.70168057960E+02  0.47260492103E+02  0.87899163894E+02  0.47000000000E+01 0.  1.
        -11    1    1    2    0    0 -0.21752510720E+02  0.75318525512E+01 -0.30529256843E+02  0.38235272313E+02  0.00000000000E+00 0. -1.
         11    1    1    2    0    0 -0.11589639091E+02  0.18822676756E+03 -0.73387869836E+02  0.20235961850E+03  0.00000000000E+00 0.  1.
<mgrwt>
<rscale>  0 0.23010375E+03</rscale>
<asrwt>0</asrwt>
<pdfrwt beam="2">  1        1 0.47179781E-01 0.23464676E+03</pdfrwt>
<pdfrwt beam="1">  1       -1 0.26268583E-01 0.23464676E+03</pdfrwt>
<totfact> 0.10908985E+03</totfact>
</mgrwt>
</event>
<event>
 7    1  0.5928109E-006  0.1252386E+03  0.7546771E-02  0.1248627E+00
         -2   -1    0    0    0  501 -0.00000000000E+00  0.00000000000E+00  0.24307238668E+02  0.24307238668E+02  0.00000000000E+00 0.  1.
          2   -1    0    0  501    0  0.00000000000E+00 -0.00000000000E+00 -0.87462796066E+03  0.87462796066E+03  0.00000000000E+00 0. -1.
         23    2    1    2    0    0  0.11688317120E+02 -0.27178820414E+02 -0.75290233028E+03  0.76324742142E+03  0.12169388775E+03 0.  0.
          5    1    3    3  502    0 -0.27559170122E+02  0.30615592321E+02 -0.13071171316E+03  0.13712937070E+03  0.47000000000E+01 0.  1.
         -5    1    3    3    0  502  0.39247487242E+02 -0.57794412735E+02 -0.62219061712E+03  0.62611805072E+03  0.47000000000E+01 0.  1.
        -11    1    1    2    0    0  0.18648837073E+02  0.21776678313E+02 -0.10069740259E+03  0.10469942565E+03  0.00000000000E+00 0. -1.
         11    1    1    2    0    0 -0.30337154193E+02  0.54021421011E+01  0.32790108793E+01  0.30988352266E+02  0.00000000000E+00 0.  1.
<mgrwt>
<rscale>  0 0.11670899E+03</rscale>
<asrwt>0</asrwt>
<pdfrwt beam="2">  1        2 0.13455817E+00 0.12523860E+03</pdfrwt>
<pdfrwt beam="1">  1       -2 0.37395745E-02 0.12523860E+03</pdfrwt>
<totfact> 0.92067653E+03</totfact>
</mgrwt>
</event>
<event>
 7    1  0.5928109E-006  0.1251124E+03  0.7546771E-02  0.1251225E+00
          2   -1    0    0  501    0  0.00000000000E+00  0.00000000000E+00  0.19236226076E+03  0.19236226076E+03  0.00000000000E+00 0. -1.
         -2   -1    0    0    0  501 -0.00000000000E+00 -0.00000000000E+00 -0.60114471498E+02  0.60114471498E+02  0.00000000000E+00 0.  1.
         23    2    1    2    0    0 -0.43353754512E+01  0.29503421031E+01  0.78294418529E+02  0.14759110319E+03  0.12500247105E+03 0.  0.
          5    1    3    3  502    0 -0.59410913930E+02  0.23993251635E+02  0.52911235350E+02  0.83228730882E+02  0.47000000000E+01 0.  1.
         -5    1    3    3    0  502  0.55075538478E+02 -0.21042909532E+02  0.25383183179E+02  0.64362372303E+02  0.47000000000E+01 0.  1.
        -11    1    1    2    0    0  0.33285766393E+02 -0.33796126689E+02  0.32050765270E+02  0.57248336028E+02  0.00000000000E+00 0.  1.
         11    1    1    2    0    0 -0.28950390941E+02  0.30845784586E+02  0.21902605458E+02  0.47637293040E+02  0.00000000000E+00 0. -1.
<mgrwt>
<rscale>  0 0.11520440E+03</rscale>
<asrwt>0</asrwt>
<pdfrwt beam="1">  1        2 0.29594194E-01 0.12511242E+03</pdfrwt>
<pdfrwt beam="2">  1       -2 0.92483803E-02 0.12511242E+03</pdfrwt>
<totfact> 0.12476571E+04</totfact>
</mgrwt>
</event>
<event>
 7    1  0.5928109E-006  0.1393115E+03  0.7546771E-02  0.1224750E+00
         -4   -1    0    0    0  501 -0.00000000000E+00  0.00000000000E+00  0.56264395054E+02  0.56264395054E+02  0.00000000000E+00 0.  1.
          4   -1    0    0  501    0  0.00000000000E+00 -0.00000000000E+00 -0.30576027135E+03  0.30576027135E+03  0.00000000000E+00 0. -1.
         23    2    1    2    0    0 -0.44773009315E+02  0.45208077165E+02 -0.18947639458E+03  0.23517867475E+03  0.12393269283E+03 0.  0.
          5    1    3    3  502    0 -0.69694901964E+02  0.42079109531E+02 -0.55156726607E+02  0.98449912690E+02  0.47000000000E+01 0.  1.
         -5    1    3    3    0  502  0.24921892650E+02  0.31289676343E+01 -0.13431966797E+03  0.13672876206E+03  0.47000000000E+01 0.  1.
        -11    1    1    2    0    0  0.47446682845E+02 -0.54973406846E+02 -0.70964287843E+01  0.72963158338E+02  0.00000000000E+00 0.  1.
         11    1    1    2    0    0 -0.26736735302E+01  0.97653296806E+01 -0.52923052938E+02  0.53882833316E+02  0.00000000000E+00 0. -1.
<mgrwt>
<rscale>  0 0.13184087E+03</rscale>
<asrwt>0</asrwt>
<pdfrwt beam="2">  1        4 0.47040042E-01 0.13931154E+03</pdfrwt>
<pdfrwt beam="1">  1       -4 0.86560607E-02 0.13931154E+03</pdfrwt>
<totfact> 0.70770690E+02</totfact>
</mgrwt>
</event>
<event>
 7    1  0.5928109E-006  0.1280474E+03  0.7546771E-02  0.1244707E+00
         -3   -1    0    0    0  501 -0.00000000000E+00  0.00000000000E+00  0.66513829238E+02  0.66513829238E+02  0.00000000000E+00 0.  1.
          3   -1    0    0  501    0  0.00000000000E+00 -0.00000000000E+00 -0.24866372847E+03  0.24866372847E+03  0.00000000000E+00 0. -1.
         23    2    1    2    0    0 -0.24181557382E+02  0.13655534528E+02 -0.17826694879E+03  0.21948856681E+03  0.12499961835E+03 0.  0.
          5    1    3    3  502    0  0.12957847249E+02  0.51622833544E+02 -0.28592666355E+02  0.60600769943E+02  0.47000000000E+01 0.  1.
         -5    1    3    3    0  502 -0.37139404631E+02 -0.37967299015E+02 -0.14967428243E+03  0.15888779687E+03  0.47000000000E+01 0.  1.
        -11    1    1    2    0    0  0.57089753832E+02 -0.20806144581E+02 -0.96444371959E+01  0.61523579331E+02  0.00000000000E+00 0. -1.
         11    1    1    2    0    0 -0.32908196449E+02  0.71506100523E+01  0.57614867575E+01  0.34165411564E+02  0.00000000000E+00 0.  1.
<mgrwt>
<rscale>  0 0.11902933E+03</rscale>
<asrwt>0</asrwt>
<pdfrwt beam="2">  1        3 0.38255959E-01 0.12804736E+03</pdfrwt>
<pdfrwt beam="1">  1       -3 0.10232897E-01 0.12804736E+03</pdfrwt>
<totfact> 0.10974133E+03</totfact>
</mgrwt>
</event>
<event>
 6    1  0.5928109E-006  0.3595806E+03  0.7546771E-02  0.1079857E+00
          2   -1    0    0  501    0  0.00000000000E+00  0.00000000000E+00  0.29707293174E+03  0.29707293174E+03  0.00000000000E+00 0. -1.
         -2   -1    0    0    0  501 -0.00000000000E+00 -0.00000000000E+00 -0.56038304546E+03  0.56038304546E+03  0.00000000000E+00 0.  1.
          5    1    1    2  502    0  0.39762069608E+02  0.26142452379E+03  0.88352147884E+02  0.27884044874E+03  0.47000000000E+01 0. -1.
         -5    1    1    2    0  502 -0.37738467744E+02 -0.82223301347E+02  0.67940852097E+02  0.11323830013E+03  0.47000000000E+01 0.  1.
        -11    1    1    2    0    0 -0.41230487998E+02 -0.13942979656E+03 -0.30630714729E+03  0.33906443310E+03  0.00000000000E+00 0.  1.
         11    1    1    2    0    0  0.39206886134E+02 -0.39771425876E+02 -0.11329596641E+03  0.12631279524E+03  0.00000000000E+00 0. -1.
<mgrwt>
<rscale>  0 0.31102223E+03</rscale>
<asrwt>0</asrwt>
<pdfrwt beam="1">  1        2 0.45703528E-01 0.35958065E+03</pdfrwt>
<pdfrwt beam="2">  1       -2 0.86212776E-01 0.35958065E+03</pdfrwt>
<totfact> 0.13335110E+02</totfact>
</mgrwt>
</event>
<event>
 7    1  0.5928109E-006  0.1268488E+03  0.7546771E-02  0.1246241E+00
          2   -1    0    0  501    0  0.00000000000E+00  0.00000000000E+00  0.71882990382E+03  0.71882990382E+03  0.00000000000E+00 0. -1.
         -2   -1    0    0    0  501 -0.00000000000E+00 -0.00000000000E+00 -0.17935546545E+02  0.17935546545E+02  0.00000000000E+00 0.  1.
         23    2    1    2    0    0 -0.44854695968E+01  0.21116063100E+02  0.47327796800E+03  0.48998230892E+03  0.12499848199E+03 0.  0.
          5    1    3    3  502    0  0.13827142690E+02  0.53260784180E+02  0.42696203444E+03  0.43051895412E+03  0.47000000000E+01 0. -1.
         -5    1    3    3    0  502 -0.18312612287E+02 -0.32144721080E+02  0.46315933564E+02  0.59463354799E+02  0.47000000000E+01 0. -1.
        -11    1    1    2    0    0  0.57376716801E+01 -0.57038903934E+02  0.11376615566E+03  0.12739346770E+03  0.00000000000E+00 0.  1.
         11    1    1    2    0    0 -0.12522020833E+01  0.35922840834E+02  0.11385023361E+03  0.11938967374E+03  0.00000000000E+00 0. -1.
<mgrwt>
<rscale>  0 0.11811403E+03</rscale>
<asrwt>0</asrwt>
<pdfrwt beam="1">  1        2 0.11058919E+00 0.12684884E+03</pdfrwt>
<pdfrwt beam="2">  1       -2 0.27593154E-02 0.12684884E+03</pdfrwt>
<totfact> 0.18366479E+04</totfact>
</mgrwt>
</event>
<event>
 7    1  0.5928109E-006  0.1335724E+03  0.7546771E-02  0.1234903E+00
         -2   -1    0    0    0  501 -0.00000000000E+00  0.00000000000E+00  0.14303307034E+02  0.14303307034E+02  0.00000000000E+00 0. -1.
          2   -1    0    0  501    0  0.00000000000E+00 -0.00000000000E+00 -0.13125135465E+04  0.13125135465E+04  0.00000000000E+00 0.  1.
         23    2    1    2    0    0 -0.20061471293E+02  0.42572897330E+02 -0.10455309703E+04  0.10540287417E+04  0.12500665691E+03 0.  0.
          5    1    3    3  502    0 -0.38096476380E+02  0.62887613416E+02 -0.98217437109E+03  0.98493389558E+03  0.47000000000E+01 0.  1.
         -5    1    3    3    0  502  0.18035005087E+02 -0.20314716086E+02 -0.63356599205E+02  0.69094846124E+02  0.47000000000E+01 0.  1.
        -11    1    1    2    0    0  0.64730159628E+01  0.26529653321E+02 -0.11432099229E+03  0.11753727800E+03  0.00000000000E+00 0.  1.
         11    1    1    2    0    0  0.13588455330E+02 -0.69102550650E+02 -0.13835827688E+03  0.15525083384E+03  0.00000000000E+00 0. -1.
<mgrwt>
<rscale>  0 0.12510627E+03</rscale>
<asrwt>0</asrwt>
<pdfrwt beam="2">  1        2 0.20192517E+00 0.13357237E+03</pdfrwt>
<pdfrwt beam="1">  1       -2 0.22005087E-02 0.13357237E+03</pdfrwt>
<totfact> 0.11230219E+04</totfact>
</mgrwt>
</event>
<event>
 7    1  0.5928109E-006  0.1250325E+03  0.7546771E-02  0.1249938E+00
          2   -1    0    0  501    0  0.00000000000E+00  0.00000000000E+00  0.78623465977E+03  0.78623465977E+03  0.00000000000E+00 0. -1.
         -2   -1    0    0    0  501 -0.00000000000E+00 -0.00000000000E+00 -0.22755391543E+02  0.22755391543E+02  0.00000000000E+00 0.  1.
         23    2    1    2    0    0  0.11499895772E+01  0.26687413270E+01  0.65328805981E+03  0.66514540389E+03  0.12499869826E+03 0.  0.
          5    1    3    3  502    0 -0.61024826348E+02 -0.64635895204E+01  0.35159494862E+03  0.35694103899E+03  0.47000000000E+01 0. -1.
         -5    1    3    3    0  502  0.62174815925E+02  0.91323308474E+01  0.30169311118E+03  0.30820436489E+03  0.47000000000E+01 0. -1.
        -11    1    1    2    0    0 -0.29361069723E+02 -0.22513125348E+01  0.11177223516E+03  0.11558621620E+03  0.00000000000E+00 0. -1.
         11    1    1    2    0    0  0.28211080146E+02 -0.41742879216E+00 -0.15810267395E+01  0.28258431226E+02  0.00000000000E+00 0.  1.
<mgrwt>
<rscale>  0 0.11594651E+03</rscale>
<asrwt>0</asrwt>
<pdfrwt beam="1">  1        2 0.12095916E+00 0.12503247E+03</pdfrwt>
<pdfrwt beam="2">  1       -2 0.35008301E-02 0.12503247E+03</pdfrwt>
<totfact> 0.11602675E+04</totfact>
</mgrwt>
</event>
<event>
 7    1  0.5928109E-006  0.1389999E+03  0.7546771E-02  0.1220451E+00
          1   -1    0    0  501    0  0.00000000000E+00  0.00000000000E+00  0.91202206543E+02  0.91202206543E+02  0.00000000000E+00 0. -1.
         -1   -1    0    0    0  501 -0.00000000000E+00 -0.00000000000E+00 -0.19510398118E+03  0.19510398118E+03  0.00000000000E+00 0.  1.
         23    2    1    2    0    0  0.37449569782E+02  0.74360817570E+02 -0.28270202245E+02  0.14184561027E+03  0.11130575615E+03 0.  0.
          5    1    3    3  502    0 -0.71477628129E+01  0.67370823134E+02  0.24542553352E+02  0.72210423403E+02  0.47000000000E+01 0. -1.
         -5    1    3    3    0  502  0.44597332595E+02  0.69899944357E+01 -0.52812755597E+02  0.69635186871E+02  0.47000000000E+01 0.  1.
        -11    1    1    2    0    0  0.22077412108E+02 -0.45578406321E+02 -0.55964577144E+02  0.75477394914E+02  0.00000000000E+00 0. -1.
         11    1    1    2    0    0 -0.59526981890E+02 -0.28782411249E+02 -0.19666995245E+02  0.68983182532E+02  0.00000000000E+00 0.  1.
<mgrwt>
<rscale>  0 0.13483663E+03</rscale>
<asrwt>0</asrwt>
<pdfrwt beam="1">  1        1 0.14031109E-01 0.13899990E+03</pdfrwt>
<pdfrwt beam="2">  1       -1 0.30015997E-01 0.13899990E+03</pdfrwt>
<totfact> 0.39912927E+03</totfact>
</mgrwt>
</event>
<event>
 7    1  0.5928109E-006  0.1395236E+03  0.7546771E-02  0.1225033E+00
          2   -1    0    0  501    0  0.00000000000E+00  0.00000000000E+00  0.67455485012E+02  0.67455485012E+02  0.00000000000E+00 0. -1.
         -2   -1    0    0    0  501 -0.00000000000E+00 -0.00000000000E+00 -0.23891819436E+03  0.23891819436E+03  0.00000000000E+00 0.  1.
         23    2    1    2    0    0 -0.33566634927E+02 -0.52348962618E+02 -0.69149495191E+02  0.15571926263E+03  0.12489877182E+03 0.  0.
          5    1    3    3  502    0 -0.75813428079E+02 -0.36386814572E+02 -0.71171642721E+02  0.11026862146E+03  0.47000000000E+01 0. -1.
         -5    1    3    3    0  502  0.42246793151E+02 -0.15962148046E+02  0.20221475293E+01  0.45450641166E+02  0.47000000000E+01 0. -1.
        -11    1    1    2    0    0 -0.16305227384E+02  0.57416810812E+02 -0.46718974694E+02  0.75797184646E+02  0.00000000000E+00 0. -1.
         11    1    1    2    0    0  0.49871862311E+02 -0.50678481943E+01 -0.55594239458E+02  0.74857232093E+02  0.00000000000E+00 0.  1.
<mgrwt>
<rscale>  0 0.13164627E+03</rscale>
<asrwt>0</asrwt>
<pdfrwt beam="1">  1        2 0.10377767E-01 0.13952360E+03</pdfrwt>
<pdfrwt beam="2">  1       -2 0.36756645E-01 0.13952360E+03</pdfrwt>
<totfact> 0.40970429E+03</totfact>
</mgrwt>
</event>
<event>
 6    1  0.5928109E-006  0.6887108E+03  0.7546771E-02  0.1004593E+00
         -2   -1    0    0    0  501 -0.00000000000E+00  0.00000000000E+00  0.20747058276E+03  0.20747058276E+03  0.00000000000E+00 0.  1.
          2   -1    0    0  501    0  0.00000000000E+00 -0.00000000000E+00 -0.14524926663E+04  0.14524926663E+04  0.00000000000E+00 0. -1.
          5    1    1    2  502    0 -0.11731974295E+03 -0.25889676913E+03 -0.12653383781E+04  0.12968788533E+04  0.47000000000E+01 0. -1.
         -5    1    1    2    0  502  0.97315408752E+02  0.22790035615E+02  0.40791693600E+02  0.10805427697E+03  0.47000000000E+01 0.  1.
        -11    1    1    2    0    0  0.39030928255E+02  0.21575780016E+03  0.19480108501E+01  0.21926841185E+03  0.00000000000E+00 0.  1.
         11    1    1    2    0    0 -0.19026594062E+02  0.20348933354E+02 -0.22423409938E+02  0.35761706944E+02  0.00000000000E+00 0. -1.
<mgrwt>
<rscale>  0 0.53681478E+03</rscale>
<asrwt>0</asrwt>
<pdfrwt beam="2">  1        2 0.22346042E+00 0.68871077E+03</pdfrwt>
<pdfrwt beam="1">  1       -2 0.31918550E-01 0.68871077E+03</pdfrwt>
<totfact> 0.12596062E+02</totfact>
</mgrwt>
</event>
<event>
 7    1  0.5928109E-006  0.1480820E+03  0.7546771E-02  0.1210033E+00
         -1   -1    0    0    0  501 -0.00000000000E+00  0.00000000000E+00  0.88840676874E+03  0.88840676874E+03  0.00000000000E+00 0.  1.
          1   -1    0    0  501    0  0.00000000000E+00 -0.00000000000E+00 -0.21721176298E+02  0.21721176298E+02  0.00000000000E+00 0. -1.
         23    2    1    2    0    0 -0.17184643242E+02 -0.77512376462E+02  0.40130503185E+03  0.42775461688E+03  0.12499921279E+03 0.  0.
          5    1    3    3  502    0 -0.12406844116E+02 -0.36356685936E+02  0.18877029073E+02  0.43060081511E+02  0.47000000000E+01 0. -1.
         -5    1    3    3    0  502 -0.47777991258E+01 -0.41155690527E+02  0.38242800278E+03  0.38469453536E+03  0.47000000000E+01 0. -1.
        -11    1    1    2    0    0  0.50642586108E+02  0.37403488918E+02  0.14968762226E+03  0.16238865961E+03  0.00000000000E+00 0. -1.
         11    1    1    2    0    0 -0.33457942866E+02  0.40108887544E+02  0.31569293833E+03  0.31998466856E+03  0.00000000000E+00 0.  1.
<mgrwt>
<rscale>  0 0.14247764E+03</rscale>
<asrwt>0</asrwt>
<pdfrwt beam="2">  1        1 0.33417201E-02 0.14808202E+03</pdfrwt>
<pdfrwt beam="1">  1       -1 0.13667794E+00 0.14808202E+03</pdfrwt>
<totfact> 0.13783766E+03</totfact>
</mgrwt>
</event>
<event>
 7    1  0.5928109E-006  0.1456535E+03  0.7546771E-02  0.1215503E+00
          2   -1    0    0  501    0  0.00000000000E+00  0.00000000000E+00  0.97700414385E+02  0.97700414385E+02  0.00000000000E+00 0. -1.
         -2   -1    0    0    0  501 -0.00000000000E+00 -0.00000000000E+00 -0.17899115000E+03  0.17899115000E+03  0.00000000000E+00 0.  1.
         23    2    1    2    0    0  0.44653661386E+02 -0.59983306260E+02 -0.48619492076E+02  0.15355392150E+03  0.12499202092E+03 0.  0.
          5    1    3    3  502    0  0.25585131491E+02  0.13568109978E+02 -0.68801502237E+02  0.74795917481E+02  0.47000000000E+01 0. -1.
         -5    1    3    3    0  502  0.19068529896E+02 -0.73551416239E+02  0.20182010161E+02  0.78758004020E+02  0.47000000000E+01 0. -1.
        -11    1    1    2    0    0 -0.43645471082E+02  0.80813655639E+02 -0.41126822062E+02  0.10063393849E+03  0.00000000000E+00 0.  1.
         11    1    1    2    0    0 -0.10081903039E+01 -0.20830349379E+02  0.84555785260E+01  0.22503704387E+02  0.00000000000E+00 0. -1.
<mgrwt>
<rscale>  0 0.13839669E+03</rscale>
<asrwt>0</asrwt>
<pdfrwt beam="1">  1        2 0.15030833E-01 0.14565353E+03</pdfrwt>
<pdfrwt beam="2">  1       -2 0.27537099E-01 0.14565353E+03</pdfrwt>
<totfact> 0.44564665E+03</totfact>
</mgrwt>
</event>
<event>
 7    1  0.5928109E-006  0.1334079E+03  0.7546771E-02  0.1236179E+00
         -2   -1    0    0    0  501 -0.00000000000E+00  0.00000000000E+00  0.17758659278E+02  0.17758659278E+02  0.00000000000E+00 0.  1.
          2   -1    0    0  501    0  0.00000000000E+00 -0.00000000000E+00 -0.87753947993E+03  0.87753947993E+03  0.00000000000E+00 0. -1.
         23    2    1    2    0    0  0.46164326671E+02  0.64549436694E+01 -0.63805166729E+03  0.65184936172E+03  0.12499939556E+03 0.  0.
          5    1    3    3  502    0 -0.41153433438E+02 -0.13756022685E+02 -0.21305363680E+03  0.21747821821E+03  0.47000000000E+01 0.  1.
         -5    1    3    3    0  502  0.87317760109E+02  0.20210966354E+02 -0.42499803049E+03  0.43437114351E+03  0.47000000000E+01 0.  1.
        -11    1    1    2    0    0 -0.18867430452E+02  0.17044235779E+02 -0.79258768188E+01  0.26632788597E+02  0.00000000000E+00 0.  1.
         11    1    1    2    0    0 -0.27296896220E+02 -0.23499179448E+02 -0.21380327655E+03  0.21681598890E+03  0.00000000000E+00 0. -1.
<mgrwt>
<rscale>  0 0.12429253E+03</rscale>
<asrwt>0</asrwt>
<pdfrwt beam="2">  1        2 0.13500609E+00 0.13340787E+03</pdfrwt>
<pdfrwt beam="1">  1       -2 0.27321012E-02 0.13340787E+03</pdfrwt>
<totfact> 0.14607755E+04</totfact>
</mgrwt>
</event>
<event>
 7    1  0.5928109E-006  0.1659906E+03  0.7546771E-02  0.1188669E+00
         -2   -1    0    0    0  501 -0.00000000000E+00  0.00000000000E+00  0.35782380073E+02  0.35782380073E+02  0.00000000000E+00 0.  1.
          2   -1    0    0  501    0  0.00000000000E+00 -0.00000000000E+00 -0.68965546764E+03  0.68965546764E+03  0.00000000000E+00 0. -1.
         23    2    1    2    0    0 -0.77232038453E+02 -0.77216970957E+02 -0.41314588794E+03  0.44524419028E+03  0.12500246354E+03 0.  0.
          5    1    3    3  502    0 -0.62526988238E+02 -0.10447352476E+03 -0.38243418910E+03  0.40137556058E+03  0.47000000000E+01 0.  1.
         -5    1    3    3    0  502 -0.14705050216E+02  0.27256553800E+02 -0.30711698839E+02  0.43868629708E+02  0.47000000000E+01 0.  1.
        -11    1    1    2    0    0  0.88075119501E+02  0.36268291162E+02 -0.12639521950E+03  0.15826675940E+03  0.00000000000E+00 0. -1.
         11    1    1    2    0    0 -0.10843081048E+02  0.40948679795E+02 -0.11433198013E+03  0.12192689803E+03  0.00000000000E+00 0.  1.
<mgrwt>
<rscale>  0 0.16002488E+03</rscale>
<asrwt>0</asrwt>
<pdfrwt beam="2">  1        2 0.10610084E+00 0.16599055E+03</pdfrwt>
<pdfrwt beam="1">  1       -2 0.55049817E-02 0.16599055E+03</pdfrwt>
<totfact> 0.70271022E+03</totfact>
</mgrwt>
</event>
<event>
 7    1  0.5928109E-006  0.1235647E+03  0.7546771E-02  0.1248002E+00
          1   -1    0    0  501    0  0.00000000000E+00  0.00000000000E+00  0.19216867293E+03  0.19216867293E+03  0.00000000000E+00 0. -1.
         -1   -1    0    0    0  501 -0.00000000000E+00 -0.00000000000E+00 -0.12060037119E+03  0.12060037119E+03  0.00000000000E+00 0.  1.
         23    2    1    2    0    0 -0.39680962983E+02  0.19971387898E+02  0.14391478032E+03  0.18968314926E+03  0.11530307004E+03 0.  0.
          5    1    3    3  502    0 -0.31332950684E+02  0.65469544769E+01  0.16200480035E+03  0.16520369774E+03  0.47000000000E+01 0. -1.
         -5    1    3    3    0  502 -0.83480122992E+01  0.13424433421E+02 -0.18090020030E+02  0.24479451519E+02  0.47000000000E+01 0.  1.
        -11    1    1    2    0    0  0.45840795328E+02 -0.36292426776E+02 -0.83826417121E+02  0.10220267592E+03  0.00000000000E+00 0.  1.
         11    1    1    2    0    0 -0.61598323450E+01  0.16321038879E+02  0.11479938545E+02  0.20883218947E+02  0.00000000000E+00 0. -1.
<mgrwt>
<rscale>  0 0.11707483E+03</rscale>
<asrwt>0</asrwt>
<pdfrwt beam="1">  1        1 0.29564411E-01 0.12356469E+03</pdfrwt>
<pdfrwt beam="2">  1       -1 0.18553903E-01 0.12356469E+03</pdfrwt>
<totfact> 0.33768786E+03</totfact>
</mgrwt>
</event>
<event>
 7    1  0.5928109E-006  0.1265137E+03  0.7546771E-02  0.1245194E+00
          2   -1    0    0  501    0  0.00000000000E+00  0.00000000000E+00  0.42621681729E+03  0.42621681729E+03  0.00000000000E+00 0. -1.
         -2   -1    0    0    0  501 -0.00000000000E+00 -0.00000000000E+00 -0.30025662077E+02  0.30025662077E+02  0.00000000000E+00 0.  1.
         23    2    1    2    0    0  0.16293712982E+00  0.19489871648E+02  0.19608291611E+03  0.23335430370E+03  0.12500335764E+03 0.  0.
          5    1    3    3  502    0 -0.80960135127E+01 -0.52784601652E+02  0.84464527041E+02  0.10004052146E+03  0.47000000000E+01 0.  1.
         -5    1    3    3    0  502  0.82589506425E+01  0.72274473300E+02  0.11161838906E+03  0.13331378224E+03  0.47000000000E+01 0.  1.
        -11    1    1    2    0    0  0.42344025817E+02 -0.32361907643E+02  0.11973296639E+03  0.13105835658E+03  0.00000000000E+00 0.  1.
         11    1    1    2    0    0 -0.42506962947E+02  0.12872035995E+02  0.80375272718E+02  0.91829819090E+02  0.00000000000E+00 0. -1.
<mgrwt>
<rscale>  0 0.11873790E+03</rscale>
<asrwt>0</asrwt>
<pdfrwt beam="1">  1        2 0.65571814E-01 0.12651372E+03</pdfrwt>
<pdfrwt beam="2">  1       -2 0.46193329E-02 0.12651372E+03</pdfrwt>
<totfact> 0.15412653E+04</totfact>
</mgrwt>
</event>
<event>
 7    1  0.5928109E-006  0.1446734E+03  0.7546771E-02  0.1217801E+00
          1   -1    0    0  501    0  0.00000000000E+00  0.00000000000E+00  0.24002074227E+03  0.24002074227E+03  0.00000000000E+00 0. -1.
         -1   -1    0    0    0  501 -0.00000000000E+00 -0.00000000000E+00 -0.71736543516E+02  0.71736543516E+02  0.00000000000E+00 0.  1.
         23    2    1    2    0    0 -0.65477441342E+02  0.32091482155E+02  0.11412021483E+03  0.18426559286E+03  0.12495289804E+03 0.  0.
          5    1    3    3  502    0 -0.94887400032E+02 -0.55871403413E+00  0.52836796011E+02  0.10870946536E+03  0.47000000000E+01 0. -1.
         -5    1    3    3    0  502  0.29409958690E+02  0.32650196189E+02  0.61283418815E+02  0.75556127501E+02  0.47000000000E+01 0. -1.
        -11    1    1    2    0    0 -0.13519292376E+02 -0.20839840141E+01 -0.13512729827E+02  0.19227795586E+02  0.00000000000E+00 0.  1.
         11    1    1    2    0    0  0.78996733718E+02 -0.30007498141E+02  0.67676713758E+02  0.10826389734E+03  0.00000000000E+00 0. -1.
<mgrwt>
<rscale>  0 0.13672757E+03</rscale>
<asrwt>0</asrwt>
<pdfrwt beam="1">  1        1 0.36926268E-01 0.14467337E+03</pdfrwt>
<pdfrwt beam="2">  1       -1 0.11036391E-01 0.14467337E+03</pdfrwt>
<totfact> 0.58223275E+03</totfact>
</mgrwt>
</event>
<event>
 7    1  0.5928109E-006  0.1257577E+03  0.7546771E-02  0.1249473E+00
         -2   -1    0    0    0  501 -0.00000000000E+00  0.00000000000E+00  0.30314598072E+03  0.30314598072E+03  0.00000000000E+00 0. -1.
          2   -1    0    0  501    0  0.00000000000E+00 -0.00000000000E+00 -0.40733141330E+02  0.40733141330E+02  0.00000000000E+00 0.  1.
         23    2    1    2    0    0 -0.11998054141E+02  0.68543758128E+01  0.11586913448E+03  0.17099898079E+03  0.12499623729E+03 0.  0.
          5    1    3    3  502    0 -0.13114793511E+02  0.43763278859E+02  0.12457446249E+03  0.13277088947E+03  0.47000000000E+01 0.  1.
         -5    1    3    3    0  502  0.11167393706E+01 -0.36908903046E+02 -0.87053280052E+01  0.38228091328E+02  0.47000000000E+01 0.  1.
        -11    1    1    2    0    0  0.41935628970E+02  0.12915995640E+02  0.36308403696E+02  0.56953666251E+02  0.00000000000E+00 0.  1.
         11    1    1    2    0    0 -0.29937574830E+02 -0.19770371453E+02  0.11023530121E+03  0.11592647501E+03  0.00000000000E+00 0. -1.
<mgrwt>
<rscale>  0 0.11621614E+03</rscale>
<asrwt>0</asrwt>
<pdfrwt beam="2">  1        2 0.62666373E-02 0.12575768E+03</pdfrwt>
<pdfrwt beam="1">  1       -2 0.46637842E-01 0.12575768E+03</pdfrwt>
<totfact> 0.48616575E+03</totfact>
</mgrwt>
</event>
<event>
 7    1  0.5928109E-006  0.1302500E+03  0.7546771E-02  0.1242288E+00
         -4   -1    0    0    0  501 -0.00000000000E+00  0.00000000000E+00  0.17013127219E+03  0.17013127219E+03  0.00000000000E+00 0. -1.
          4   -1    0    0  501    0  0.00000000000E+00 -0.00000000000E+00 -0.83154105403E+02  0.83154105403E+02  0.00000000000E+00 0.  1.
         23    2    1    2    0    0  0.62620822687E+01  0.36075465578E+02  0.98589445452E+01  0.13062255070E+03  0.12499759626E+03 0.  0.
          5    1    3    3  502    0 -0.25617558394E+02 -0.21144425616E+02  0.45010097333E+02  0.56136840797E+02  0.47000000000E+01 0.  1.
         -5    1    3    3    0  502  0.31879640663E+02  0.57219891194E+02 -0.35151152788E+02  0.74485709900E+02  0.47000000000E+01 0.  1.
        -11    1    1    2    0    0  0.24496166360E+02 -0.38477001701E+02  0.79566982953E+02  0.91713938976E+02  0.00000000000E+00 0. -1.
         11    1    1    2    0    0 -0.30758248629E+02  0.24015361232E+01 -0.24487607104E+01  0.30948887920E+02  0.00000000000E+00 0.  1.
<mgrwt>
<rscale>  0 0.12049169E+03</rscale>
<asrwt>0</asrwt>
<pdfrwt beam="2">  1        4 0.12792939E-01 0.13024996E+03</pdfrwt>
<pdfrwt beam="1">  1       -4 0.26174042E-01 0.13024996E+03</pdfrwt>
<totfact> 0.11189473E+03</totfact>
</mgrwt>
</event>
<event>
 7    1  0.5928109E-006  0.1267939E+03  0.7546771E-02  0.1245615E+00
          1   -1    0    0  501    0  0.00000000000E+00  0.00000000000E+00  0.55786112598E+02  0.55786112598E+02  0.00000000000E+00 0. -1.
         -1   -1    0    0    0  501 -0.00000000000E+00 -0.00000000000E+00 -0.24403081487E+03  0.24403081487E+03  0.00000000000E+00 0.  1.
         23    2    1    2    0    0  0.19600443656E+02 -0.81831287601E+01 -0.62974844534E+02  0.14157160311E+03  0.12500218708E+03 0.  0.
          5    1    3    3  502    0  0.19298162343E+02  0.34776093087E+02 -0.84337534705E+02  0.93363298358E+02  0.47000000000E+01 0. -1.
         -5    1    3    3    0  502  0.30228131336E+00 -0.42959221847E+02  0.21362690171E+02  0.48208304752E+02  0.47000000000E+01 0. -1.
        -11    1    1    2    0    0 -0.20075539591E+01  0.26916822421E+02 -0.12942724515E+03  0.13221178990E+03  0.00000000000E+00 0.  1.
         11    1    1    2    0    0 -0.17592889697E+02 -0.18733693661E+02  0.41573874124E+01  0.26033534454E+02  0.00000000000E+00 0. -1.
<mgrwt>
<rscale>  0 0.11848671E+03</rscale>
<asrwt>0</asrwt>
<pdfrwt beam="1">  1        1 0.85824789E-02 0.12679388E+03</pdfrwt>
<pdfrwt beam="2">  1       -1 0.37543202E-01 0.12679388E+03</pdfrwt>
<totfact> 0.51783787E+03</totfact>
</mgrwt>
</event>
<event>
 7    1  0.5928109E-006  0.2129050E+03  0.7546771E-02  0.1143037E+00
          1   -1    0    0  501    0  0.00000000000E+00  0.00000000000E+00  0.11815519240E+03  0.11815519240E+03  0.00000000000E+00 0. -1.
         -1   -1    0    0    0  501 -0.00000000000E+00 -0.00000000000E+00 -0.36825087086E+03  0.36825087086E+03  0.00000000000E+00 0.  1.
         23    2    1    2    0    0 -0.10747801698E+03 -0.13472946190E+03 -0.78196752568E+02  0.22681113106E+03  0.12500002010E+03 0.  0.
          5    1    3    3  502    0  0.21722380219E+02 -0.29006370695E+02 -0.42462646130E+02  0.56021403585E+02  0.47000000000E+01 0. -1.
         -5    1    3    3    0  502 -0.12920039719E+03 -0.10572309121E+03 -0.35734106438E+02  0.17078972748E+03  0.47000000000E+01 0. -1.
        -11    1    1    2    0    0  0.63850883817E+02  0.56831399964E+02 -0.14143246492E+03  0.16525702866E+03  0.00000000000E+00 0.  1.
         11    1    1    2    0    0  0.43627133158E+02  0.77898061939E+02 -0.30466460964E+02  0.94337903544E+02  0.00000000000E+00 0. -1.
<mgrwt>
<rscale>  0 0.20815352E+03</rscale>
<asrwt>0</asrwt>
<pdfrwt beam="1">  1        1 0.18177722E-01 0.21290504E+03</pdfrwt>
<pdfrwt beam="2">  1       -1 0.56653980E-01 0.21290504E+03</pdfrwt>
<totfact> 0.93644236E+02</totfact>
</mgrwt>
</event>
<event>
 7    1  0.5928109E-006  0.1281111E+03  0.7546771E-02  0.1245007E+00
          1   -1    0    0  501    0  0.00000000000E+00  0.00000000000E+00  0.29031303461E+03  0.29031303461E+03  0.00000000000E+00 0. -1.
         -1   -1    0    0    0  501 -0.00000000000E+00 -0.00000000000E+00 -0.43919483388E+02  0.43919483388E+02  0.00000000000E+00 0.  1.
         23    2    1    2    0    0  0.26330793752E+02  0.96685692358E+01  0.16718488854E+03  0.21062581916E+03  0.12500262720E+03 0.  0.
          5    1    3    3  502    0 -0.28758607299E+02  0.28829537502E+02  0.14041786011E+03  0.14627872424E+03  0.47000000000E+01 0.  1.
         -5    1    3    3    0  502  0.55089401051E+02 -0.19160968266E+02  0.26767028430E+02  0.64347094915E+02  0.47000000000E+01 0.  1.
        -11    1    1    2    0    0  0.16851932615E+02  0.27755904347E+02  0.49506053491E+02  0.59204959178E+02  0.00000000000E+00 0. -1.
         11    1    1    2    0    0 -0.43182726367E+02 -0.37424473583E+02  0.29702609190E+02  0.64401739667E+02  0.00000000000E+00 0.  1.
<mgrwt>
<rscale>  0 0.11884970E+03</rscale>
<asrwt>0</asrwt>
<pdfrwt beam="1">  1        1 0.44663543E-01 0.12811108E+03</pdfrwt>
<pdfrwt beam="2">  1       -1 0.67568438E-02 0.12811108E+03</pdfrwt>
<totfact> 0.95975390E+03</totfact>
</mgrwt>
</event>
<event>
 6    1  0.5928109E-006  0.2060110E+03  0.7546771E-02  0.1151930E+00
         -1   -1    0    0    0  501 -0.00000000000E+00  0.00000000000E+00  0.11196156053E+04  0.11196156053E+04  0.00000000000E+00 0.  1.
          1   -1    0    0  501    0  0.00000000000E+00 -0.00000000000E+00 -0.49085131484E+02  0.49085131484E+02  0.00000000000E+00 0. -1.
          5    1    1    2  502    0 -0.10584059603E+03  0.68106146108E+02  0.61139477241E+02  0.14000287348E+03  0.47000000000E+01 0. -1.
         -5    1    1    2    0  502 -0.10648815829E+02  0.20255941004E+02  0.16207080965E+03  0.16374595495E+03  0.47000000000E+01 0.  1.
        -11    1    1    2    0    0  0.11823576757E+03 -0.42465327765E+02  0.67640540108E+03  0.68797330428E+03  0.00000000000E+00 0.  1.
         11    1    1    2    0    0 -0.17463557084E+01 -0.45896759346E+02  0.17091478587E+03  0.17697860409E+03  0.00000000000E+00 0. -1.
<mgrwt>
<rscale>  0 0.19742457E+03</rscale>
<asrwt>0</asrwt>
<pdfrwt beam="2">  1        1 0.75515595E-02 0.20601097E+03</pdfrwt>
<pdfrwt beam="1">  1       -1 0.17224854E+00 0.20601097E+03</pdfrwt>
<totfact> 0.24513612E+02</totfact>
</mgrwt>
</event>
<event>
 7    1  0.5928109E-006  0.1577004E+03  0.7546771E-02  0.1199224E+00
         -2   -1    0    0    0  501 -0.00000000000E+00  0.00000000000E+00  0.55539130046E+02  0.55539130046E+02  0.00000000000E+00 0. -1.
          2   -1    0    0  501    0  0.00000000000E+00 -0.00000000000E+00 -0.39006435219E+03  0.39006435219E+03  0.00000000000E+00 0.  1.
         23    2    1    2    0    0  0.41029030808E+02 -0.86953733149E+02 -0.21795666937E+03  0.26902513053E+03  0.12500031224E+03 0.  0.
          5    1    3    3  502    0  0.78269040347E+02 -0.83037879732E+02 -0.12840747456E+03  0.17184848463E+03  0.47000000000E+01 0.  1.
         -5    1    3    3    0  502 -0.37240009538E+02 -0.39158534172E+01 -0.89549194804E+02  0.97176645900E+02  0.47000000000E+01 0.  1.
        -11    1    1    2    0    0 -0.43809607099E+01  0.94495728930E+02 -0.90990136067E+02  0.13125486834E+03  0.00000000000E+00 0. -1.
         11    1    1    2    0    0 -0.36648070098E+02 -0.75419957810E+01 -0.25578416714E+02  0.45323483360E+02  0.00000000000E+00 0.  1.
<mgrwt>
<rscale>  0 0.15102123E+03</rscale>
<asrwt>0</asrwt>
<pdfrwt beam="2">  1        2 0.60009901E-01 0.15770038E+03</pdfrwt>
<pdfrwt beam="1">  1       -2 0.85444815E-02 0.15770038E+03</pdfrwt>
<totfact> 0.67481204E+03</totfact>
</mgrwt>
</event>
<event>
 7    1  0.5928109E-006  0.1718518E+03  0.7546771E-02  0.1183529E+00
          1   -1    0    0  501    0  0.00000000000E+00  0.00000000000E+00  0.49417279085E+03  0.49417279085E+03  0.00000000000E+00 0. -1.
         -1   -1    0    0    0  501 -0.00000000000E+00 -0.00000000000E+00 -0.51306914513E+02  0.51306914513E+02  0.00000000000E+00 0.  1.
         23    2    1    2    0    0 -0.70206558144E+02 -0.94756358172E+02  0.26857796772E+03  0.31885291703E+03  0.12500131892E+03 0.  0.
          5    1    3    3  502    0 -0.57236113628E+02 -0.81543791727E+02  0.27956022611E+03  0.29681875395E+03  0.47000000000E+01 0.  1.
         -5    1    3    3    0  502 -0.12970444516E+02 -0.13212566445E+02 -0.10982258393E+02  0.22034163075E+02  0.47000000000E+01 0.  1.
        -11    1    1    2    0    0 -0.11475371937E+02  0.48624164113E+02  0.74172865130E+02  0.89429343161E+02  0.00000000000E+00 0.  1.
         11    1    1    2    0    0  0.81681930081E+02  0.46132194059E+02  0.10011504349E+03  0.13719744518E+03  0.00000000000E+00 0. -1.
<mgrwt>
<rscale>  0 0.16466459E+03</rscale>
<asrwt>0</asrwt>
<pdfrwt beam="1">  1        1 0.76026580E-01 0.17185185E+03</pdfrwt>
<pdfrwt beam="2">  1       -1 0.78933718E-02 0.17185185E+03</pdfrwt>
<totfact> 0.39461267E+03</totfact>
</mgrwt>
</event>
<event>
 7    1  0.5928109E-006  0.1281862E+03  0.7546771E-02  0.1244682E+00
         -2   -1    0    0    0  501 -0.00000000000E+00  0.00000000000E+00  0.13279918369E+03  0.13279918369E+03  0.00000000000E+00 0.  1.
          2   -1    0    0  501    0  0.00000000000E+00 -0.00000000000E+00 -0.11381830486E+03  0.11381830486E+03  0.00000000000E+00 0. -1.
         23    2    1    2    0    0 -0.20310024440E+02  0.19826807225E+02 -0.40265461448E+02  0.13436146752E+03  0.12500438869E+03 0.  0.
          5    1    3    3  502    0  0.33060082180E+02  0.16427755646E+02  0.28677454042E+02  0.46982194070E+02  0.47000000000E+01 0. -1.
         -5    1    3    3    0  502 -0.53370106620E+02  0.33990515793E+01 -0.68942915490E+02  0.87379273450E+02  0.47000000000E+01 0. -1.
        -11    1    1    2    0    0 -0.32741663260E+02  0.10211052441E+02  0.19056069856E+02  0.39235390954E+02  0.00000000000E+00 0. -1.
         11    1    1    2    0    0  0.53051687700E+02 -0.30037859666E+02  0.40190270420E+02  0.73020630082E+02  0.00000000000E+00 0.  1.
<mgrwt>
<rscale>  0 0.11904443E+03</rscale>
<asrwt>0</asrwt>
<pdfrwt beam="2">  1        2 0.17510508E-01 0.12818618E+03</pdfrwt>
<pdfrwt beam="1">  1       -2 0.20430644E-01 0.12818618E+03</pdfrwt>
<totfact> 0.62103108E+03</totfact>
</mgrwt>
</event>
<event>
 7    1  0.5928109E-006  0.1360053E+03  0.7546771E-02  0.1231017E+00
         -4   -1    0    0    0  501 -0.00000000000E+00  0.00000000000E+00  0.36468092450E+03  0.36468092450E+03  0.00000000000E+00 0.  1.
          4   -1    0    0  501    0  0.00000000000E+00 -0.00000000000E+00 -0.42961430983E+02  0.42961430983E+02  0.00000000000E+00 0. -1.
         23    2    1    2    0    0  0.51477796565E+02 -0.14892911576E+02  0.23313768110E+03  0.26990854292E+03  0.12500272331E+03 0.  0.
          5    1    3    3  502    0  0.66541662787E+02 -0.59051406064E+02  0.15039926444E+03  0.17480529222E+03  0.47000000000E+01 0.  1.
         -5    1    3    3    0  502 -0.15063866222E+02  0.44158494488E+02  0.82738416669E+02  0.95103250701E+02  0.47000000000E+01 0.  1.
        -11    1    1    2    0    0  0.16276183786E+02  0.20531198868E+02  0.57072459835E+02  0.62798964619E+02  0.00000000000E+00 0.  1.
         11    1    1    2    0    0 -0.67753980351E+02 -0.56382872925E+01  0.31509352581E+02  0.74934847948E+02  0.00000000000E+00 0. -1.
<mgrwt>
<rscale>  0 0.12762885E+03</rscale>
<asrwt>0</asrwt>
<pdfrwt beam="2">  1        4 0.66094512E-02 0.13600531E+03</pdfrwt>
<pdfrwt beam="1">  1       -4 0.56104756E-01 0.13600531E+03</pdfrwt>
<totfact> 0.76654592E+02</totfact>
</mgrwt>
</event>
<event>
 6    1  0.5928109E-006  0.1688188E+03  0.7546771E-02  0.1199595E+00
          2   -1    0    0  501    0  0.00000000000E+00  0.00000000000E+00  0.30327586312E+04  0.30327586312E+04  0.00000000000E+00 0. -1.
         -2   -1    0    0    0  501 -0.00000000000E+00 -0.00000000000E+00 -0.39711186374E+02  0.39711186374E+02  0.00000000000E+00 0.  1.
          5    1    1    2  502    0 -0.77810259650E+02  0.24023472841E+02  0.19484809242E+04  0.19501875719E+04  0.47000000000E+01 0. -1.
         -5    1    1    2    0  502  0.70503757061E+02  0.35717203715E+02  0.10047796165E+04  0.10078941740E+04  0.47000000000E+01 0.  1.
        -11    1    1    2    0    0 -0.22282190447E+02  0.11960935857E+02 -0.35475731685E+01  0.25537135178E+02  0.00000000000E+00 0. -1.
         11    1    1    2    0    0  0.29588693035E+02 -0.71701612413E+02  0.43334477334E+02  0.88850936427E+02  0.00000000000E+00 0.  1.
<mgrwt>
<rscale>  0 0.15071643E+03</rscale>
<asrwt>0</asrwt>
<pdfrwt beam="1">  1        2 0.46657807E+00 0.16881882E+03</pdfrwt>
<pdfrwt beam="2">  1       -2 0.61094157E-02 0.16881882E+03</pdfrwt>
<totfact> 0.29767465E+02</totfact>
</mgrwt>
</event>
<event>
 6    1  0.5928109E-006  0.1617408E+03  0.7546771E-02  0.1207814E+00
         -3   -1    0    0    0  501 -0.00000000000E+00  0.00000000000E+00  0.46056808817E+02  0.46056808817E+02  0.00000000000E+00 0.  1.
          3   -1    0    0  501    0  0.00000000000E+00 -0.00000000000E+00 -0.43954592893E+03  0.43954592893E+03  0.00000000000E+00 0. -1.
          5    1    1    2  502    0 -0.30009348873E+02  0.55518065670E+02 -0.72375737335E+02  0.96141323011E+02  0.47000000000E+01 0. -1.
         -5    1    1    2    0  502 -0.32238131389E+01 -0.86055353901E+02 -0.25146641227E+03  0.26584462268E+03  0.47000000000E+01 0.  1.
        -11    1    1    2    0    0 -0.25046591347E+02  0.16382540402E+02 -0.53832594700E+02  0.61592756232E+02  0.00000000000E+00 0. -1.
         11    1    1    2    0    0  0.58279753358E+02  0.14154747829E+02 -0.15814375803E+02  0.62024035822E+02  0.00000000000E+00 0.  1.
<mgrwt>
<rscale>  0 0.14417912E+03</rscale>
<asrwt>0</asrwt>
<pdfrwt beam="2">  1        3 0.67622447E-01 0.16174080E+03</pdfrwt>
<pdfrwt beam="1">  1       -3 0.70856632E-02 0.16174080E+03</pdfrwt>
<totfact> 0.66195248E+02</totfact>
</mgrwt>
</event>
<event>
 7    1  0.5928109E-006  0.1317422E+03  0.7546771E-02  0.1238731E+00
         -2   -1    0    0    0  501 -0.00000000000E+00  0.00000000000E+00  0.39075961855E+02  0.39075961855E+02  0.00000000000E+00 0.  1.
          2   -1    0    0  501    0  0.00000000000E+00 -0.00000000000E+00 -0.34110440397E+03  0.34110440397E+03  0.00000000000E+00 0. -1.
         23    2    1    2    0    0  0.28684044487E+02  0.30108424630E+02 -0.16754199208E+03  0.21313455573E+03  0.12500691217E+03 0.  0.
          5    1    3    3  502    0  0.70598858719E+02 -0.11818742092E+02 -0.10109545292E+03  0.12396072813E+03  0.47000000000E+01 0.  1.
         -5    1    3    3    0  502 -0.41914814232E+02  0.41927166723E+02 -0.66446539169E+02  0.89173827601E+02  0.47000000000E+01 0.  1.
        -11    1    1    2    0    0 -0.17752612176E+02  0.60238733982E+01  0.74516941829E+01  0.20173498358E+02  0.00000000000E+00 0.  1.
         11    1    1    2    0    0 -0.10931432311E+02 -0.36132298029E+02 -0.14193814422E+03  0.14687231175E+03  0.00000000000E+00 0. -1.
<mgrwt>
<rscale>  0 0.12268600E+03</rscale>
<asrwt>0</asrwt>
<pdfrwt beam="2">  1        2 0.52477601E-01 0.13174225E+03</pdfrwt>
<pdfrwt beam="1">  1       -2 0.60116864E-02 0.13174225E+03</pdfrwt>
<totfact> 0.13191719E+04</totfact>
</mgrwt>
</event>
<event>
 7    1  0.5928109E-006  0.1630404E+03  0.7546771E-02  0.1192245E+00
          2   -1    0    0  501    0  0.00000000000E+00  0.00000000000E+00  0.13829947297E+04  0.13829947297E+04  0.00000000000E+00 0. -1.
         -2   -1    0    0    0  501 -0.00000000000E+00 -0.00000000000E+00 -0.27920541013E+02  0.27920541013E+02  0.00000000000E+00 0.  1.
         23    2    1    2    0    0 -0.79444647035E+02  0.68141189609E+02  0.11571800045E+04  0.11686093165E+04  0.12500999137E+03 0.  0.
          5    1    3    3  502    0 -0.35225218759E+02 -0.27378887577E+02  0.59161857791E+03  0.59331699053E+03  0.47000000000E+01 0.  1.
         -5    1    3    3    0  502 -0.44219428276E+02  0.95520077186E+02  0.56556142664E+03  0.57529232594E+03  0.47000000000E+01 0.  1.
        -11    1    1    2    0    0  0.74610852290E+02 -0.31933154842E+02  0.63533202023E+02  0.10306780980E+03  0.00000000000E+00 0.  1.
         11    1    1    2    0    0  0.48337947448E+01 -0.36208034766E+02  0.13436098208E+03  0.13923814441E+03  0.00000000000E+00 0. -1.
<mgrwt>
<rscale>  0 0.15689711E+03</rscale>
<asrwt>0</asrwt>
<pdfrwt beam="1">  1        2 0.21276837E+00 0.16304040E+03</pdfrwt>
<pdfrwt beam="2">  1       -2 0.42954689E-02 0.16304040E+03</pdfrwt>
<totfact> 0.38652141E+03</totfact>
</mgrwt>
</event>
<event>
 6    1  0.5928109E-006  0.3663311E+03  0.7546771E-02  0.1069864E+00
          1   -1    0    0  501    0  0.00000000000E+00  0.00000000000E+00  0.99567758057E+03  0.99567758057E+03  0.00000000000E+00 0. -1.
         -1   -1    0    0    0  501 -0.00000000000E+00 -0.00000000000E+00 -0.11079402318E+03  0.11079402318E+03  0.00000000000E+00 0.  1.
          5    1    1    2  502    0  0.47727593494E+02 -0.11225853355E+03  0.63244964425E+03  0.64412308145E+03  0.47000000000E+01 0. -1.
         -5    1    1    2    0  502  0.13239029680E+03 -0.36788674550E+02  0.85550676011E+02  0.16193086620E+03  0.47000000000E+01 0.  1.
        -11    1    1    2    0    0  0.63442309035E+01  0.94640656649E+01 -0.34002230295E+01  0.11890303668E+02  0.00000000000E+00 0. -1.
         11    1    1    2    0    0 -0.18646212120E+03  0.13958314244E+03  0.17028346016E+03  0.28852735243E+03  0.00000000000E+00 0.  1.
<mgrwt>
<rscale>  0 0.33289258E+03</rscale>
<asrwt>0</asrwt>
<pdfrwt beam="1">  1        1 0.15318116E+00 0.36633114E+03</pdfrwt>
<pdfrwt beam="2">  1       -1 0.17045235E-01 0.36633114E+03</pdfrwt>
<totfact> 0.42012845E+02</totfact>
</mgrwt>
</event>
<event>
 6    1  0.5928109E-006  0.1741996E+03  0.7546771E-02  0.1194257E+00
         -2   -1    0    0    0  501 -0.00000000000E+00  0.00000000000E+00  0.82080567337E+03  0.82080567337E+03  0.00000000000E+00 0.  1.
          2   -1    0    0  501    0  0.00000000000E+00 -0.00000000000E+00 -0.24551995795E+02  0.24551995795E+02  0.00000000000E+00 0. -1.
          5    1    1    2  502    0  0.70947721922E+02 -0.58835817270E+02  0.19153183774E+03  0.21260707304E+03  0.47000000000E+01 0. -1.
         -5    1    1    2    0  502 -0.74517466219E+02 -0.19703485706E+01  0.29004867894E+03  0.29951137074E+03  0.47000000000E+01 0.  1.
        -11    1    1    2    0    0 -0.90751687018E+01  0.57132229740E+02  0.31479971616E+03  0.32007079163E+03  0.00000000000E+00 0.  1.
         11    1    1    2    0    0  0.12644912999E+02  0.36739361003E+01 -0.12655526780E+00  0.13168433751E+02  0.00000000000E+00 0. -1.
<mgrwt>
<rscale>  0 0.15517256E+03</rscale>
<asrwt>0</asrwt>
<pdfrwt beam="2">  1        2 0.37772307E-02 0.17419962E+03</pdfrwt>
<pdfrwt beam="1">  1       -2 0.12627778E+00 0.17419962E+03</pdfrwt>
<totfact> 0.10998942E+03</totfact>
</mgrwt>
</event>
<event>
 7    1  0.5928109E-006  0.1474622E+03  0.7546771E-02  0.1212858E+00
          2   -1    0    0  501    0  0.00000000000E+00  0.00000000000E+00  0.85451504546E+03  0.85451504546E+03  0.00000000000E+00 0. -1.
         -2   -1    0    0    0  501 -0.00000000000E+00 -0.00000000000E+00 -0.21414835063E+02  0.21414835063E+02  0.00000000000E+00 0.  1.
         23    2    1    2    0    0  0.33939243523E+02 -0.70488197186E+02  0.40303090876E+03  0.42916083420E+03  0.12499859998E+03 0.  0.
          5    1    3    3  502    0 -0.24343353967E+02 -0.67024276350E+02  0.11624680273E+03  0.13645607956E+03  0.47000000000E+01 0.  1.
         -5    1    3    3    0  502  0.58282597490E+02 -0.34639208369E+01  0.28678410603E+03  0.29270475464E+03  0.47000000000E+01 0.  1.
        -11    1    1    2    0    0  0.25698265513E+02  0.25375432320E+02  0.67353001623E+02  0.76424735809E+02  0.00000000000E+00 0.  1.
         11    1    1    2    0    0 -0.59637509036E+02  0.45112764867E+02  0.36271630001E+03  0.37034431052E+03  0.00000000000E+00 0. -1.
<mgrwt>
<rscale>  0 0.14035060E+03</rscale>
<asrwt>0</asrwt>
<pdfrwt beam="1">  1        2 0.13146383E+00 0.14746223E+03</pdfrwt>
<pdfrwt beam="2">  1       -2 0.32945907E-02 0.14746223E+03</pdfrwt>
<totfact> 0.11551238E+04</totfact>
</mgrwt>
</event>
<event>
 7    1  0.5928109E-006  0.1303912E+03  0.7546771E-02  0.1238960E+00
          1   -1    0    0  501    0  0.00000000000E+00  0.00000000000E+00  0.39576743068E+03  0.39576743068E+03  0.00000000000E+00 0. -1.
         -1   -1    0    0    0  501 -0.00000000000E+00 -0.00000000000E+00 -0.35145270278E+02  0.35145270278E+02  0.00000000000E+00 0.  1.
         23    2    1    2    0    0  0.13982794275E+02 -0.34372367046E+02  0.23992831922E+03  0.27307045089E+03  0.12499957853E+03 0.  0.
          5    1    3    3  502    0  0.37831490391E+02 -0.60347549546E+02  0.22207979789E+03  0.23326931867E+03  0.47000000000E+01 0. -1.
         -5    1    3    3    0  502 -0.23848696117E+02  0.25975182501E+02  0.17848521334E+02  0.39801132223E+02  0.47000000000E+01 0. -1.
        -11    1    1    2    0    0 -0.32588425632E+02 -0.17393264526E+02  0.17439166319E+02  0.40849181852E+02  0.00000000000E+00 0.  1.
         11    1    1    2    0    0  0.18605631357E+02  0.51765631572E+02  0.10325467486E+03  0.11699306822E+03  0.00000000000E+00 0. -1.
<mgrwt>
<rscale>  0 0.12254314E+03</rscale>
<asrwt>0</asrwt>
<pdfrwt beam="1">  1        1 0.60887294E-01 0.13039123E+03</pdfrwt>
<pdfrwt beam="2">  1       -1 0.54069649E-02 0.13039123E+03</pdfrwt>
<totfact> 0.91074854E+03</totfact>
</mgrwt>
</event>
<event>
 7    1  0.5928109E-006  0.1494390E+03  0.7546771E-02  0.1214048E+00
         -1   -1    0    0    0  501 -0.00000000000E+00  0.00000000000E+00  0.42321470244E+02  0.42321470244E+02  0.00000000000E+00 0.  1.
          1   -1    0    0  501    0  0.00000000000E+00 -0.00000000000E+00 -0.75232813349E+03  0.75232813349E+03  0.00000000000E+00 0. -1.
         23    2    1    2    0    0 -0.57438369763E+02 -0.58375743210E+02 -0.64885233305E+03  0.66583884404E+03  0.12500048965E+03 0.  0.
          5    1    3    3  502    0  0.23458491904E+02 -0.57364162617E+02 -0.19065788013E+03  0.20053295303E+03  0.47000000000E+01 0. -1.
         -5    1    3    3    0  502 -0.80896861667E+02 -0.10115805934E+01 -0.45819445292E+03  0.46530589101E+03  0.47000000000E+01 0. -1.
        -11    1    1    2    0    0  0.44260625117E+02  0.53244033759E+02 -0.79644342251E+02  0.10553270261E+03  0.00000000000E+00 0. -1.
         11    1    1    2    0    0  0.13177744646E+02  0.51317094513E+01  0.18490012056E+02  0.23278057086E+02  0.00000000000E+00 0.  1.
<mgrwt>
<rscale>  0 0.13946680E+03</rscale>
<asrwt>0</asrwt>
<pdfrwt beam="2">  1        1 0.11574279E+00 0.14943900E+03</pdfrwt>
<pdfrwt beam="1">  1       -1 0.65109956E-02 0.14943900E+03</pdfrwt>
<totfact> 0.29366811E+03</totfact>
</mgrwt>
</event>
<event>
 7    1  0.5928109E-006  0.1412956E+03  0.7546771E-02  0.1222043E+00
          2   -1    0    0  501    0  0.00000000000E+00  0.00000000000E+00  0.13735582489E+03  0.13735582489E+03  0.00000000000E+00 0.  1.
         -2   -1    0    0    0  501 -0.00000000000E+00 -0.00000000000E+00 -0.12423809715E+03  0.12423809715E+03  0.00000000000E+00 0. -1.
         23    2    1    2    0    0  0.37443785886E+02  0.54218668267E+02  0.36370239792E+02  0.14590149263E+03  0.12499100015E+03 0.  0.
          5    1    3    3  502    0 -0.41578077877E+02  0.19836206180E+02 -0.10795768677E+02  0.47548399099E+02  0.47000000000E+01 0.  1.
         -5    1    3    3    0  502  0.79021863762E+02  0.34382462087E+02  0.47166008469E+02  0.98353093528E+02  0.47000000000E+01 0.  1.
        -11    1    1    2    0    0 -0.66268426198E+02 -0.21751385498E+02 -0.17388925149E+02  0.71881860018E+02  0.00000000000E+00 0.  1.
         11    1    1    2    0    0  0.28824640312E+02 -0.32467282769E+02 -0.58635869022E+01  0.43810569396E+02  0.00000000000E+00 0. -1.
<mgrwt>
<rscale>  0 0.13371629E+03</rscale>
<asrwt>0</asrwt>
<pdfrwt beam="1">  1        2 0.21131665E-01 0.14129562E+03</pdfrwt>
<pdfrwt beam="2">  1       -2 0.19113553E-01 0.14129562E+03</pdfrwt>
<totfact> 0.56517014E+03</totfact>
</mgrwt>
</event>
<event>
 6    1  0.5928109E-006  0.2012833E+03  0.7546771E-02  0.1180562E+00
         -1   -1    0    0    0  501 -0.00000000000E+00  0.00000000000E+00  0.10044098594E+03  0.10044098594E+03  0.00000000000E+00 0.  1.
          1   -1    0    0  501    0  0.00000000000E+00 -0.00000000000E+00 -0.24039261887E+03  0.24039261887E+03  0.00000000000E+00 0. -1.
          5    1    1    2  502    0 -0.98163773853E+02 -0.53139493585E+01 -0.83809856594E+02  0.12926927948E+03  0.47000000000E+01 0. -1.
         -5    1    1    2    0  502  0.96887851956E+02  0.29054815244E+02 -0.54953922654E+02  0.11521051063E+03  0.47000000000E+01 0.  1.
        -11    1    1    2    0    0 -0.29009369675E+02  0.87227448455E+01 -0.30631843857E+02  0.43080618202E+02  0.00000000000E+00 0. -1.
         11    1    1    2    0    0  0.30285291572E+02 -0.32463610731E+02  0.29443990171E+02  0.53273196492E+02  0.00000000000E+00 0.  1.
<mgrwt>
<rscale>  0 0.16742289E+03</rscale>
<asrwt>0</asrwt>
<pdfrwt beam="2">  1        1 0.36983479E-01 0.20128334E+03</pdfrwt>
<pdfrwt beam="1">  1       -1 0.15452460E-01 0.20128334E+03</pdfrwt>
<totfact> 0.34955579E+03</totfact>
</mgrwt>
</event>
<event>
 7    1  0.5928109E-006  0.1294246E+03  0.7546771E-02  0.1243525E+00
          2   -1    0    0  501    0  0.00000000000E+00  0.00000000000E+00  0.39181775739E+02  0.39181775739E+02  0.00000000000E+00 0.  1.
         -2   -1    0    0    0  501 -0.00000000000E+00 -0.00000000000E+00 -0.32105955527E+03  0.32105955527E+03  0.00000000000E+00 0. -1.
         23    2    1    2    0    0  0.29057090575E+01  0.33408620716E+02 -0.15827409233E+03  0.20445392492E+03  0.12500456003E+03 0.  0.
          5    1    3    3  502    0  0.93998540146E+01  0.50924798352E+02 -0.17271890447E+03  0.18037627977E+03  0.47000000000E+01 0. -1.
         -5    1    3    3    0  502 -0.64941449571E+01 -0.17516177636E+02  0.14444812146E+02  0.24077645143E+02  0.47000000000E+01 0. -1.
        -11    1    1    2    0    0 -0.37891508247E+02 -0.28183000503E+02 -0.30567277991E+02  0.56253056791E+02  0.00000000000E+00 0.  1.
         11    1    1    2    0    0  0.34985799189E+02 -0.52256202130E+01 -0.93036409214E+02  0.99534349302E+02  0.00000000000E+00 0. -1.
<mgrwt>
<rscale>  0 0.11974121E+03</rscale>
<asrwt>0</asrwt>
<pdfrwt beam="1">  1        2 0.60279655E-02 0.12942457E+03</pdfrwt>
<pdfrwt beam="2">  1       -2 0.49393778E-01 0.12942457E+03</pdfrwt>
<totfact> 0.45765999E+03</totfact>
</mgrwt>
</event>
<event>
 7    1  0.5928109E-006  0.1140359E+03  0.7546771E-02  0.1318491E+00
          2   -1    0    0  501    0  0.00000000000E+00  0.00000000000E+00  0.32764632006E+03  0.32764632006E+03  0.00000000000E+00 0. -1.
         -2   -1    0    0    0  501 -0.00000000000E+00 -0.00000000000E+00 -0.19591197985E+02  0.19591197985E+02  0.00000000000E+00 0.  1.
         23    2    1    2    0    0  0.98426394799E+01 -0.25060310798E+02  0.28429639179E+03  0.30631457986E+03  0.11081194303E+03 0.  0.
          5    1    3    3  502    0 -0.23427912718E+02 -0.10305081307E+02  0.26217851669E+03  0.26346674631E+03  0.47000000000E+01 0. -1.
         -5    1    3    3    0  502  0.33270552198E+02 -0.14755229492E+02  0.22117875102E+02  0.42847833550E+02  0.47000000000E+01 0.  1.
        -11    1    1    2    0    0 -0.13857848830E+02  0.15522690172E+02  0.22252009036E+02  0.30465485233E+02  0.00000000000E+00 0. -1.
         11    1    1    2    0    0  0.40152093498E+01  0.95376206260E+01  0.15067212426E+01  0.10457452951E+02  0.00000000000E+00 0.  1.
<mgrwt>
<rscale>  0 0.83841064E+02</rscale>
<asrwt>0</asrwt>
<pdfrwt beam="1">  1        2 0.50407122E-01 0.11403589E+03</pdfrwt>
<pdfrwt beam="2">  1       -2 0.30140307E-02 0.11403589E+03</pdfrwt>
<totfact> 0.37896840E+04</totfact>
</mgrwt>
</event>
<event>
 7    1  0.5928109E-006  0.2366656E+03  0.7546771E-02  0.1125133E+00
         -1   -1    0    0    0  501 -0.00000000000E+00  0.00000000000E+00  0.91718674353E+02  0.91718674353E+02  0.00000000000E+00 0.  1.
          1   -1    0    0  501    0  0.00000000000E+00 -0.00000000000E+00 -0.98524445241E+03  0.98524445241E+03  0.00000000000E+00 0. -1.
         23    2    1    2    0    0 -0.12640476467E+03  0.15623112686E+03 -0.80764692782E+03  0.84160809181E+03  0.12499716255E+03 0.  0.
          5    1    3    3  502    0 -0.14557040025E+03  0.12207112035E+03 -0.57363197942E+03  0.60429118616E+03  0.47000000000E+01 0.  1.
         -5    1    3    3    0  502  0.19165635584E+02  0.34160006503E+02 -0.23401494840E+03  0.23731690565E+03  0.47000000000E+01 0.  1.
        -11    1    1    2    0    0  0.88611498707E+02 -0.44709164219E+02 -0.55635497003E+02  0.11378143783E+03  0.00000000000E+00 0. -1.
         11    1    1    2    0    0  0.37793265959E+02 -0.11152196264E+03 -0.30243353229E+02  0.12157359712E+03  0.00000000000E+00 0.  1.
<mgrwt>
<rscale>  0 0.23215367E+03</rscale>
<asrwt>0</asrwt>
<pdfrwt beam="2">  1        1 0.15157607E+00 0.23666563E+03</pdfrwt>
<pdfrwt beam="1">  1       -1 0.14110565E-01 0.23666563E+03</pdfrwt>
<totfact> 0.58533047E+02</totfact>
</mgrwt>
</event>
<event>
 7    1  0.5928109E-006  0.1252952E+03  0.7546771E-02  0.1249943E+00
          2   -1    0    0  501    0  0.00000000000E+00  0.00000000000E+00  0.73306454954E+03  0.73306454954E+03  0.00000000000E+00 0.  1.
         -2   -1    0    0    0  501 -0.00000000000E+00 -0.00000000000E+00 -0.17542816739E+02  0.17542816739E+02  0.00000000000E+00 0. -1.
         23    2    1    2    0    0  0.33524304927E+01 -0.79639001043E+01  0.51529743830E+03  0.53031154532E+03  0.12499689070E+03 0.  0.
          5    1    3    3  502    0  0.30848781780E+02 -0.69757992400E+01  0.49442520912E+03  0.49545805728E+03  0.47000000000E+01 0.  1.
         -5    1    3    3    0  502 -0.27496351287E+02 -0.98810086433E+00  0.20872229181E+02  0.34853488038E+02  0.47000000000E+01 0.  1.
        -11    1    1    2    0    0  0.23883366628E+02  0.37092869795E+02  0.59758981162E+02  0.74279418554E+02  0.00000000000E+00 0.  1.
         11    1    1    2    0    0 -0.27235797121E+02 -0.29128969690E+02  0.14046531333E+03  0.14601640240E+03  0.00000000000E+00 0. -1.
<mgrwt>
<rscale>  0 0.11594358E+03</rscale>
<asrwt>0</asrwt>
<pdfrwt beam="1">  1        2 0.11277914E+00 0.12529519E+03</pdfrwt>
<pdfrwt beam="2">  1       -2 0.26988955E-02 0.12529519E+03</pdfrwt>
<totfact> 0.18512114E+04</totfact>
</mgrwt>
</event>
<event>
 7    1  0.5928109E-006  0.1393051E+03  0.7546771E-02  0.1223817E+00
         -2   -1    0    0    0  501 -0.00000000000E+00  0.00000000000E+00  0.43162287246E+02  0.43162287246E+02  0.00000000000E+00 0.  1.
          2   -1    0    0  501    0  0.00000000000E+00 -0.00000000000E+00 -0.41235644996E+03  0.41235644996E+03  0.00000000000E+00 0. -1.
         23    2    1    2    0    0  0.53485511002E+02  0.35732026247E+02 -0.27259977961E+03  0.30613159452E+03  0.12356551191E+03 0.  0.
          5    1    3    3  502    0  0.74030718924E+02  0.65198190510E+02 -0.22937637131E+03  0.24973378047E+03  0.47000000000E+01 0. -1.
         -5    1    3    3    0  502 -0.20545207922E+02 -0.29466164263E+02 -0.43223408295E+02  0.56397814050E+02  0.47000000000E+01 0.  1.
        -11    1    1    2    0    0 -0.62097407167E+02 -0.48323116767E+02 -0.35329833598E+02  0.86252007124E+02  0.00000000000E+00 0.  1.
         11    1    1    2    0    0  0.86118961650E+01  0.12591090520E+02 -0.61264549510E+02  0.63135135564E+02  0.00000000000E+00 0. -1.
<mgrwt>
<rscale>  0 0.13248292E+03</rscale>
<asrwt>0</asrwt>
<pdfrwt beam="2">  1        2 0.63439456E-01 0.13930511E+03</pdfrwt>
<pdfrwt beam="1">  1       -2 0.66403516E-02 0.13930511E+03</pdfrwt>
<totfact> 0.93032134E+03</totfact>
</mgrwt>
</event>
<event>
 7    1  0.5928109E-006  0.1554733E+03  0.7546771E-02  0.1202321E+00
         -3   -1    0    0    0  501 -0.00000000000E+00  0.00000000000E+00  0.78590210927E+03  0.78590210927E+03  0.00000000000E+00 0.  1.
          3   -1    0    0  501    0  0.00000000000E+00 -0.00000000000E+00 -0.27685059484E+02  0.27685059484E+02  0.00000000000E+00 0. -1.
         23    2    1    2    0    0  0.88198031776E+02 -0.27703790000E+02  0.30624254900E+03  0.34344785681E+03  0.12500215494E+03 0.  0.
          5    1    3    3  502    0  0.72224762556E+02 -0.19213728060E+02  0.31429797816E+03  0.32309579500E+03  0.47000000000E+01 0. -1.
         -5    1    3    3    0  502  0.15973269220E+02 -0.84900619397E+01 -0.80554291508E+01  0.20352061815E+02  0.47000000000E+01 0. -1.
        -11    1    1    2    0    0 -0.28484079741E+02  0.40343276351E+02  0.86517275915E+02  0.99620087217E+02  0.00000000000E+00 0. -1.
         11    1    1    2    0    0 -0.59713952035E+02 -0.12639486351E+02  0.36545722487E+03  0.37051922472E+03  0.00000000000E+00 0.  1.
<mgrwt>
<rscale>  0 0.14850589E+03</rscale>
<asrwt>0</asrwt>
<pdfrwt beam="2">  1        3 0.42592405E-02 0.15547325E+03</pdfrwt>
<pdfrwt beam="1">  1       -3 0.12090800E+00 0.15547325E+03</pdfrwt>
<totfact> 0.40455776E+02</totfact>
</mgrwt>
</event>
<event>
 7    1  0.5928109E-006  0.1479137E+03  0.7546771E-02  0.1212477E+00
          3   -1    0    0  501    0  0.00000000000E+00  0.00000000000E+00  0.10143453284E+03  0.10143453284E+03  0.00000000000E+00 0. -1.
         -3   -1    0    0    0  501 -0.00000000000E+00 -0.00000000000E+00 -0.20078826138E+03  0.20078826138E+03  0.00000000000E+00 0.  1.
         23    2    1    2    0    0 -0.51198766780E+02  0.60295406254E+02 -0.10471069839E+03  0.18122584242E+03  0.12498650274E+03 0.  0.
          5    1    3    3  502    0 -0.55681530020E+02  0.59952965969E+02 -0.58647569948E+01  0.82166150503E+02  0.47000000000E+01 0. -1.
         -5    1    3    3    0  502  0.44827632403E+01  0.34244028586E+00 -0.98845941396E+02  0.99059691914E+02  0.47000000000E+01 0. -1.
        -11    1    1    2    0    0 -0.51624482852E+01 -0.27642929144E+02  0.38687605939E+02  0.47827954768E+02  0.00000000000E+00 0. -1.
         11    1    1    2    0    0  0.56361215065E+02 -0.32652477110E+02 -0.33330636086E+02  0.73168997034E+02  0.00000000000E+00 0.  1.
<mgrwt>
<rscale>  0 0.14063502E+03</rscale>
<asrwt>0</asrwt>
<pdfrwt beam="1">  1        3 0.15605313E-01 0.14791374E+03</pdfrwt>
<pdfrwt beam="2">  1       -3 0.30890502E-01 0.14791374E+03</pdfrwt>
<totfact> 0.82451401E+02</totfact>
</mgrwt>
</event>
<event>
 7    1  0.5928109E-006  0.1272778E+03  0.7546771E-02  0.1251373E+00
         -1   -1    0    0    0  501 -0.00000000000E+00  0.00000000000E+00  0.14362841639E+03  0.14362841639E+03  0.00000000000E+00 0.  1.
          1   -1    0    0  501    0  0.00000000000E+00 -0.00000000000E+00 -0.78878760718E+02  0.78878760718E+02  0.00000000000E+00 0. -1.
         23    2    1    2    0    0  0.22330181113E+02  0.87842833396E+01  0.45618585738E+02  0.13520613773E+03  0.12499537469E+03 0.  0.
          5    1    3    3  502    0 -0.45299088590E+02 -0.14215208307E+02  0.41942277019E+02  0.63524201497E+02  0.47000000000E+01 0. -1.
         -5    1    3    3    0  502  0.67629269703E+02  0.22999491647E+02  0.36763087191E+01  0.71681936235E+02  0.47000000000E+01 0. -1.
        -11    1    1    2    0    0 -0.13634892562E+02  0.31073904704E+02  0.29769489120E+02  0.45141115751E+02  0.00000000000E+00 0.  1.
         11    1    1    2    0    0 -0.86952885510E+01 -0.39858188043E+02 -0.10638419188E+02  0.42159923623E+02  0.00000000000E+00 0. -1.
<mgrwt>
<rscale>  0 0.11511920E+03</rscale>
<asrwt>0</asrwt>
<pdfrwt beam="2">  1        1 0.12135194E-01 0.12727782E+03</pdfrwt>
<pdfrwt beam="1">  1       -1 0.22096679E-01 0.12727782E+03</pdfrwt>
<totfact> 0.79436758E+03</totfact>
</mgrwt>
</event>
<event>
 7    1  0.6617109E-006  0.2060891E+03  0.7546771E-02  0.1148566E+00
          1   -1    0    0  501    0  0.00000000000E+00  0.00000000000E+00  0.16998143058E+03  0.16998143058E+03  0.00000000000E+00 0. -1.
         -1   -1    0    0    0  501 -0.00000000000E+00 -0.00000000000E+00 -0.23606572068E+03  0.23606572068E+03  0.00000000000E+00 0.  1.
         23    2    1    2    0    0 -0.83995440702E+02 -0.14068093172E+03  0.21334844189E+01  0.20610010494E+03  0.12500537146E+03 0.  0.
          5    1    3    3  502    0 -0.86142243051E+02 -0.64654826803E+02 -0.44643147709E+02  0.11668690288E+03  0.47000000000E+01 0.  1.
         -5    1    3    3    0  502  0.21468023488E+01 -0.76026104919E+02  0.46776632128E+02  0.89413202061E+02  0.47000000000E+01 0.  1.
        -11    1    1    2    0    0  0.22492377999E+02  0.11972791542E+03 -0.33822196614E+02  0.12643030405E+03  0.00000000000E+00 0. -1.
         11    1    1    2    0    0  0.61503062703E+02  0.20953016300E+02 -0.34395577906E+02  0.73516742266E+02  0.00000000000E+00 0.  1.
<mgrwt>
<rscale>  0 0.20139641E+03</rscale>
<asrwt>0</asrwt>
<pdfrwt beam="1">  1        1 0.26150989E-01 0.20608906E+03</pdfrwt>
<pdfrwt beam="2">  1       -1 0.36317803E-01 0.20608906E+03</pdfrwt>
<totfact> 0.13156984E+03</totfact>
</mgrwt>
</event>
<event>
 7    1  0.5928109E-006  0.1355107E+03  0.7546771E-02  0.1231403E+00
          1   -1    0    0  501    0  0.00000000000E+00  0.00000000000E+00  0.46806780109E+03  0.46806780109E+03  0.00000000000E+00 0. -1.
         -1   -1    0    0    0  501 -0.00000000000E+00 -0.00000000000E+00 -0.31152528578E+02  0.31152528578E+02  0.00000000000E+00 0.  1.
         23    2    1    2    0    0  0.42976186907E+02 -0.29861627277E+02  0.25573264143E+03  0.28941722007E+03  0.12499789582E+03 0.  0.
          5    1    3    3  502    0 -0.22429914000E+02  0.75103299820E+01  0.14393117683E+01  0.24159215981E+02  0.47000000000E+01 0. -1.
         -5    1    3    3    0  502  0.65406100907E+02 -0.37371957259E+02  0.25429332966E+03  0.26525800409E+03  0.47000000000E+01 0. -1.
        -11    1    1    2    0    0 -0.40545521973E+02 -0.19391627335E+02  0.39680204352E+02  0.59954092272E+02  0.00000000000E+00 0.  1.
         11    1    1    2    0    0 -0.24306649346E+01  0.49253254612E+02  0.14150242673E+03  0.14984901733E+03  0.00000000000E+00 0. -1.
<mgrwt>
<rscale>  0 0.12737519E+03</rscale>
<asrwt>0</asrwt>
<pdfrwt beam="1">  1        1 0.72010426E-01 0.13551068E+03</pdfrwt>
<pdfrwt beam="2">  1       -1 0.47926970E-02 0.13551068E+03</pdfrwt>
<totfact> 0.88180028E+03</totfact>
</mgrwt>
</event>
<event>
 7    1  0.5928109E-006  0.1732733E+03  0.7546771E-02  0.1181298E+00
          2   -1    0    0  501    0  0.00000000000E+00  0.00000000000E+00  0.69547477549E+03  0.69547477549E+03  0.00000000000E+00 0.  1.
         -2   -1    0    0    0  501 -0.00000000000E+00 -0.00000000000E+00 -0.58376766774E+02  0.58376766774E+02  0.00000000000E+00 0. -1.
         23    2    1    2    0    0  0.66931934468E+02 -0.99592763214E+02  0.56057789779E+03  0.58674628404E+03  0.12500008003E+03 0.  0.
          5    1    3    3  502    0 -0.14187439505E+02 -0.47994870538E+01  0.38125917727E+01  0.16153772677E+02  0.47000000000E+01 0. -1.
         -5    1    3    3    0  502  0.81119373973E+02 -0.94793276161E+02  0.55676530601E+03  0.57059251136E+03  0.47000000000E+01 0. -1.
        -11    1    1    2    0    0 -0.22184697118E+02  0.12408834986E+02  0.63309743638E+02  0.68222163638E+02  0.00000000000E+00 0.  1.
         11    1    1    2    0    0 -0.44747237350E+02  0.87183928228E+02  0.13210367293E+02  0.98883094590E+02  0.00000000000E+00 0. -1.
<mgrwt>
<rscale>  0 0.16673282E+03</rscale>
<asrwt>0</asrwt>
<pdfrwt beam="1">  1        2 0.10699611E+00 0.17327326E+03</pdfrwt>
<pdfrwt beam="2">  1       -2 0.89810416E-02 0.17327326E+03</pdfrwt>
<totfact> 0.32794201E+03</totfact>
</mgrwt>
</event>
<event>
 7    1  0.5928109E-006  0.1425416E+03  0.7546771E-02  0.1219422E+00
          1   -1    0    0  501    0  0.00000000000E+00  0.00000000000E+00  0.20378584286E+03  0.20378584286E+03  0.00000000000E+00 0. -1.
         -1   -1    0    0    0  501 -0.00000000000E+00 -0.00000000000E+00 -0.11364008449E+03  0.11364008449E+03  0.00000000000E+00 0.  1.
         23    2    1    2    0    0 -0.50542523113E+02  0.46236534283E+02  0.13125709931E+03  0.19376930377E+03  0.12500301284E+03 0.  0.
          5    1    3    3  502    0  0.35517194782E+02  0.15718807201E+02  0.79745966967E+02  0.88826016867E+02  0.47000000000E+01 0.  1.
         -5    1    3    3    0  502 -0.86059717896E+02  0.30517727082E+02  0.51511132339E+02  0.10494328690E+03  0.47000000000E+01 0.  1.
        -11    1    1    2    0    0 -0.11664705838E+02 -0.11210651182E+02  0.22719802661E+02  0.27891459179E+02  0.00000000000E+00 0. -1.
         11    1    1    2    0    0  0.62207228952E+02 -0.35025883101E+02 -0.63831143591E+02  0.95765164402E+02  0.00000000000E+00 0.  1.
<mgrwt>
<rscale>  0 0.13556636E+03</rscale>
<asrwt>0</asrwt>
<pdfrwt beam="1">  1        1 0.31351668E-01 0.14254163E+03</pdfrwt>
<pdfrwt beam="2">  1       -1 0.17483090E-01 0.14254163E+03</pdfrwt>
<totfact> 0.34757637E+03</totfact>
</mgrwt>
</event>
<event>
 7    1  0.5928109E-006  0.1554187E+03  0.7546771E-02  0.1202018E+00
         -4   -1    0    0    0  501 -0.00000000000E+00  0.00000000000E+00  0.11031071489E+03  0.11031071489E+03  0.00000000000E+00 0.  1.
          4   -1    0    0  501    0  0.00000000000E+00 -0.00000000000E+00 -0.19338669378E+03  0.19338669378E+03  0.00000000000E+00 0. -1.
         23    2    1    2    0    0  0.74827797739E+02 -0.54140399241E+02 -0.76227888467E+02  0.17310596223E+03  0.12499840413E+03 0.  0.
          5    1    3    3  502    0 -0.20652398332E+02 -0.35702112549E+01 -0.60023750709E+02  0.63751145985E+02  0.47000000000E+01 0. -1.
         -5    1    3    3    0  502  0.95480196071E+02 -0.50570187986E+02 -0.16204137759E+02  0.10935481624E+03  0.47000000000E+01 0. -1.
        -11    1    1    2    0    0 -0.96333134595E+02  0.38159316883E+02 -0.50877700673E+01  0.10374050169E+03  0.00000000000E+00 0.  1.
         11    1    1    2    0    0  0.21505336855E+02  0.15981082358E+02 -0.17603203640E+01  0.26850944758E+02  0.00000000000E+00 0. -1.
<mgrwt>
<rscale>  0 0.14874991E+03</rscale>
<asrwt>0</asrwt>
<pdfrwt beam="2">  1        4 0.29751799E-01 0.15541873E+03</pdfrwt>
<pdfrwt beam="1">  1       -4 0.16970879E-01 0.15541873E+03</pdfrwt>
<totfact> 0.55684743E+02</totfact>
</mgrwt>
</event>
<event>
 7    1  0.5928109E-006  0.2559036E+03  0.7546771E-02  0.1111970E+00
         -1   -1    0    0    0  501 -0.00000000000E+00  0.00000000000E+00  0.37824064494E+03  0.37824064494E+03  0.00000000000E+00 0.  1.
          1   -1    0    0  501    0  0.00000000000E+00 -0.00000000000E+00 -0.25590352855E+03  0.25590352855E+03  0.00000000000E+00 0. -1.
         23    2    1    2    0    0  0.81290905210E+02 -0.20797602114E+03 -0.12837837061E+03  0.28629992234E+03  0.12499761140E+03 0.  0.
          5    1    3    3  502    0  0.20476809198E+01 -0.37287128134E+02  0.23546170203E+02  0.44396340535E+02  0.47000000000E+01 0.  1.
         -5    1    3    3    0  502  0.79243224290E+02 -0.17068889300E+03 -0.15192454081E+03  0.24190358180E+03  0.47000000000E+01 0.  1.
        -11    1    1    2    0    0 -0.67116477856E+02  0.55283781024E+02  0.10468770365E+03  0.13608979881E+03  0.00000000000E+00 0. -1.
         11    1    1    2    0    0 -0.14174427354E+02  0.15269224011E+03  0.14602778335E+03  0.21175445235E+03  0.00000000000E+00 0.  1.
<mgrwt>
<rscale>  0 0.25212400E+03</rscale>
<asrwt>0</asrwt>
<pdfrwt beam="2">  1        1 0.39369774E-01 0.25590357E+03</pdfrwt>
<pdfrwt beam="1">  1       -1 0.58190868E-01 0.25590357E+03</pdfrwt>
<totfact> 0.33285182E+02</totfact>
</mgrwt>
</event>
<event>
 6    1  0.5928109E-006  0.1941205E+03  0.7546771E-02  0.1169346E+00
          2   -1    0    0  501    0  0.00000000000E+00  0.00000000000E+00  0.13809431908E+04  0.13809431908E+04  0.00000000000E+00 0. -1.
         -2   -1    0    0    0  501 -0.00000000000E+00 -0.00000000000E+00 -0.80171231304E+02  0.80171231304E+02  0.00000000000E+00 0.  1.
          5    1    1    2  502    0 -0.37803823623E+02 -0.29890324841E+02  0.10494258216E+04  0.10505423388E+04  0.47000000000E+01 0. -1.
         -5    1    1    2    0  502  0.37640033383E+02 -0.74623070981E+02  0.25865046102E+03  0.27185938612E+03  0.47000000000E+01 0.  1.
        -11    1    1    2    0    0  0.17602419285E+02  0.97662558828E+02 -0.35040792094E+02  0.10524104557E+03  0.00000000000E+00 0.  1.
         11    1    1    2    0    0 -0.17438629045E+02  0.68508369945E+01  0.27736469002E+02  0.33471651635E+02  0.00000000000E+00 0. -1.
<mgrwt>
<rscale>  0 0.17841519E+03</rscale>
<asrwt>0</asrwt>
<pdfrwt beam="1">  1        2 0.21245278E+00 0.19412048E+03</pdfrwt>
<pdfrwt beam="2">  1       -2 0.12334037E-01 0.19412048E+03</pdfrwt>
<totfact> 0.75652356E+02</totfact>
</mgrwt>
</event>
<event>
 7    1  0.5928109E-006  0.1295904E+03  0.7546771E-02  0.1241445E+00
         -1   -1    0    0    0  501 -0.00000000000E+00  0.00000000000E+00  0.15683610169E+03  0.15683610169E+03  0.00000000000E+00 0.  1.
          1   -1    0    0  501    0  0.00000000000E+00 -0.00000000000E+00 -0.83058614308E+02  0.83058614308E+02  0.00000000000E+00 0. -1.
         23    2    1    2    0    0 -0.45812331080E+01  0.33887821961E+02  0.37486652909E+02  0.13490337029E+03  0.12499719195E+03 0.  0.
          5    1    3    3  502    0 -0.13089478269E+02  0.79532976418E+02  0.35480217526E+02  0.88191635743E+02  0.47000000000E+01 0. -1.
         -5    1    3    3    0  502  0.85082451614E+01 -0.45645154457E+02  0.20064353828E+01  0.46711734544E+02  0.47000000000E+01 0. -1.
        -11    1    1    2    0    0  0.23786160450E+01  0.23400022294E+02 -0.15140454455E+02  0.27972347394E+02  0.00000000000E+00 0. -1.
         11    1    1    2    0    0  0.22026170630E+01 -0.57287844254E+02  0.51431288932E+02  0.77018998322E+02  0.00000000000E+00 0.  1.
<mgrwt>
<rscale>  0 0.12100701E+03</rscale>
<asrwt>0</asrwt>
<pdfrwt beam="2">  1        1 0.12778248E-01 0.12959039E+03</pdfrwt>
<pdfrwt beam="1">  1       -1 0.24128631E-01 0.12959039E+03</pdfrwt>
<totfact> 0.64442686E+03</totfact>
</mgrwt>
</event>
<event>
 7    1  0.5928109E-006  0.1360831E+03  0.7546771E-02  0.1229757E+00
          2   -1    0    0  501    0  0.00000000000E+00  0.00000000000E+00  0.97362323259E+03  0.97362323259E+03  0.00000000000E+00 0. -1.
         -2   -1    0    0    0  501 -0.00000000000E+00 -0.00000000000E+00 -0.16018457359E+02  0.16018457359E+02  0.00000000000E+00 0.  1.
         23    2    1    2    0    0 -0.53748305082E+02 -0.23748486341E+01  0.63502934009E+03  0.64944658200E+03  0.12499631951E+03 0.  0.
          5    1    3    3  502    0 -0.15691322911E+02  0.38803522352E+02  0.70525752210E+02  0.82145618790E+02  0.47000000000E+01 0.  1.
         -5    1    3    3    0  502 -0.38056982171E+02 -0.41178370986E+02  0.56450358788E+03  0.56730096321E+03  0.47000000000E+01 0.  1.
        -11    1    1    2    0    0  0.62707413461E+02 -0.15269878507E+02  0.31022725978E+03  0.31686959716E+03  0.00000000000E+00 0. -1.
         11    1    1    2    0    0 -0.89591083786E+01  0.17644727141E+02  0.12348175354E+02  0.23325510785E+02  0.00000000000E+00 0.  1.
<mgrwt>
<rscale>  0 0.12846156E+03</rscale>
<asrwt>0</asrwt>
<pdfrwt beam="1">  1        2 0.14978814E+00 0.13608306E+03</pdfrwt>
<pdfrwt beam="2">  1       -2 0.24643788E-02 0.13608306E+03</pdfrwt>
<totfact> 0.14823790E+04</totfact>
</mgrwt>
</event>
<event>
 7    1  0.5928109E-006  0.1296118E+03  0.7546771E-02  0.1242310E+00
          1   -1    0    0  501    0  0.00000000000E+00  0.00000000000E+00  0.36467673856E+03  0.36467673856E+03  0.00000000000E+00 0. -1.
         -1   -1    0    0    0  501 -0.00000000000E+00 -0.00000000000E+00 -0.35500277731E+02  0.35500277731E+02  0.00000000000E+00 0.  1.
         23    2    1    2    0    0 -0.15050410402E+02  0.30892958058E+02  0.20843671260E+03  0.24544875289E+03  0.12497334685E+03 0.  0.
          5    1    3    3  502    0  0.44460622112E+02  0.31979868394E+02  0.15800596461E+03  0.16729445225E+03  0.47000000000E+01 0. -1.
         -5    1    3    3    0  502 -0.59511032514E+02 -0.10869103359E+01  0.50430747987E+02  0.78154300634E+02  0.47000000000E+01 0. -1.
        -11    1    1    2    0    0 -0.12480199316E+02 -0.58571036270E+01 -0.11123972001E+02  0.17714507923E+02  0.00000000000E+00 0.  1.
         11    1    1    2    0    0  0.27530609718E+02 -0.25035854431E+02  0.13186372023E+03  0.13701375548E+03  0.00000000000E+00 0. -1.
<mgrwt>
<rscale>  0 0.12047832E+03</rscale>
<asrwt>0</asrwt>
<pdfrwt beam="1">  1        1 0.56104111E-01 0.12961183E+03</pdfrwt>
<pdfrwt beam="2">  1       -1 0.54615814E-02 0.12961183E+03</pdfrwt>
<totfact> 0.99368637E+03</totfact>
</mgrwt>
</event>
<event>
 7    1  0.5928109E-006  0.1325701E+03  0.7546771E-02  0.1237693E+00
         -1   -1    0    0    0  501 -0.00000000000E+00  0.00000000000E+00  0.26362379266E+03  0.26362379266E+03  0.00000000000E+00 0.  1.
          1   -1    0    0  501    0  0.00000000000E+00 -0.00000000000E+00 -0.51062709417E+02  0.51062709417E+02  0.00000000000E+00 0. -1.
         23    2    1    2    0    0 -0.38667801899E+02 -0.21316827130E+02  0.11573179410E+03  0.17597916457E+03  0.12500084869E+03 0.  0.
          5    1    3    3  502    0  0.14066320471E+02 -0.18529975167E+02 -0.19505682828E+02  0.30721051640E+02  0.47000000000E+01 0.  1.
         -5    1    3    3    0  502 -0.52734122369E+02 -0.27868519629E+01  0.13523747693E+03  0.14525811293E+03  0.47000000000E+01 0.  1.
        -11    1    1    2    0    0  0.57676030818E+02  0.34492108455E+02  0.93789249269E+02  0.11538047216E+03  0.00000000000E+00 0.  1.
         11    1    1    2    0    0 -0.19008228919E+02 -0.13175281325E+02  0.30400398736E+01  0.23326865350E+02  0.00000000000E+00 0. -1.
<mgrwt>
<rscale>  0 0.12333595E+03</rscale>
<asrwt>0</asrwt>
<pdfrwt beam="2">  1        1 0.78558016E-02 0.13257005E+03</pdfrwt>
<pdfrwt beam="1">  1       -1 0.40557506E-01 0.13257005E+03</pdfrwt>
<totfact> 0.51105443E+03</totfact>
</mgrwt>
</event>
<event>
 6    1  0.5928109E-006  0.1549964E+03  0.7546771E-02  0.1204241E+00
         -1   -1    0    0    0  501 -0.00000000000E+00  0.00000000000E+00  0.88092070163E+02  0.88092070163E+02  0.00000000000E+00 0.  1.
          1   -1    0    0  501    0  0.00000000000E+00 -0.00000000000E+00 -0.28504010239E+03  0.28504010239E+03  0.00000000000E+00 0. -1.
          5    1    1    2  502    0  0.30350203496E+02  0.18661057392E+02  0.82269082206E+01  0.36866542204E+02  0.47000000000E+01 0.  1.
         -5    1    1    2    0  502 -0.24162337172E+01  0.61955367471E+02 -0.20152365555E+03  0.21089850519E+03  0.47000000000E+01 0. -1.
        -11    1    1    2    0    0  0.10815412985E+02 -0.80845526321E+02 -0.18896421419E+02  0.83726023592E+02  0.00000000000E+00 0.  1.
         11    1    1    2    0    0 -0.38749382764E+02  0.22910145799E+00  0.15245136525E+02  0.41641101567E+02  0.00000000000E+00 0. -1.
<mgrwt>
<rscale>  0 0.14697419E+03</rscale>
<asrwt>0</asrwt>
<pdfrwt beam="2">  1        1 0.43852323E-01 0.15499641E+03</pdfrwt>
<pdfrwt beam="1">  1       -1 0.13552626E-01 0.15499641E+03</pdfrwt>
<totfact> 0.34356135E+03</totfact>
</mgrwt>
</event>
<event>
 7    1  0.5928109E-006  0.1402185E+03  0.7546771E-02  0.1224262E+00
         -2   -1    0    0    0  501 -0.00000000000E+00  0.00000000000E+00  0.78782862188E+02  0.78782862188E+02  0.00000000000E+00 0.  1.
          2   -1    0    0  501    0  0.00000000000E+00 -0.00000000000E+00 -0.39839688260E+03  0.39839688260E+03  0.00000000000E+00 0. -1.
         23    2    1    2    0    0 -0.61177416082E+02 -0.17106968233E+02 -0.33709672166E+03  0.36509646633E+03  0.12500362145E+03 0.  0.
          5    1    3    3  502    0 -0.83082893667E+02 -0.13574238532E+02 -0.11910755677E+03  0.14593055627E+03  0.47000000000E+01 0.  1.
         -5    1    3    3    0  502  0.21905477585E+02 -0.35327297015E+01 -0.21798916488E+03  0.21916591006E+03  0.47000000000E+01 0.  1.
        -11    1    1    2    0    0  0.37857984244E+01  0.13035956331E+02  0.45933590398E+02  0.47897423250E+02  0.00000000000E+00 0.  1.
         11    1    1    2    0    0  0.57391617658E+02  0.40710119024E+01 -0.28450889155E+02  0.64185855210E+02  0.00000000000E+00 0. -1.
<mgrwt>
<rscale>  0 0.13217585E+03</rscale>
<asrwt>0</asrwt>
<pdfrwt beam="2">  1        2 0.61291829E-01 0.14021851E+03</pdfrwt>
<pdfrwt beam="1">  1       -2 0.12120440E-01 0.14021851E+03</pdfrwt>
<totfact> 0.37768060E+03</totfact>
</mgrwt>
</event>
<event>
 7    1  0.5928109E-006  0.2055592E+03  0.7546771E-02  0.1149172E+00
          2   -1    0    0  501    0  0.00000000000E+00  0.00000000000E+00  0.65517669332E+02  0.65517669332E+02  0.00000000000E+00 0.  1.
         -2   -1    0    0    0  501 -0.00000000000E+00 -0.00000000000E+00 -0.62751418440E+03  0.62751418440E+03  0.00000000000E+00 0. -1.
         23    2    1    2    0    0 -0.16042625216E+03 -0.29880754835E+02 -0.20582489670E+03  0.29089252727E+03  0.12500052971E+03 0.  0.
          5    1    3    3  502    0 -0.56516213842E+01 -0.37682673599E+02 -0.74361185945E+01  0.39106400673E+02  0.47000000000E+01 0. -1.
         -5    1    3    3    0  502 -0.15477463078E+03  0.78019187637E+01 -0.19838877810E+03  0.25178612659E+03  0.47000000000E+01 0. -1.
        -11    1    1    2    0    0  0.59524894739E+02  0.78763001046E+01 -0.47228462442E+02  0.76392256555E+02  0.00000000000E+00 0.  1.
         11    1    1    2    0    0  0.10090135742E+03  0.22004454731E+02 -0.30894315593E+03  0.32574706991E+03  0.00000000000E+00 0. -1.
<mgrwt>
<rscale>  0 0.20067357E+03</rscale>
<asrwt>0</asrwt>
<pdfrwt beam="1">  1        2 0.10079641E-01 0.20555917E+03</pdfrwt>
<pdfrwt beam="2">  1       -2 0.96540643E-01 0.20555917E+03</pdfrwt>
<totfact> 0.58720020E+02</totfact>
</mgrwt>
</event>
<event>
 7    1  0.5928109E-006  0.1421063E+03  0.7546771E-02  0.1232433E+00
          2   -1    0    0  501    0  0.00000000000E+00  0.00000000000E+00  0.90383104399E+02  0.90383104399E+02  0.00000000000E+00 0. -1.
         -2   -1    0    0    0  501 -0.00000000000E+00 -0.00000000000E+00 -0.14877037837E+03  0.14877037837E+03  0.00000000000E+00 0.  1.
         23    2    1    2    0    0  0.41333267753E+02  0.53476827885E+02 -0.34943088564E+02  0.14633935966E+03  0.12500391435E+03 0.  0.
          5    1    3    3  502    0  0.47467959513E+02  0.39535011460E+02 -0.78473546573E+02  0.99982057506E+02  0.47000000000E+01 0. -1.
         -5    1    3    3    0  502 -0.61346917600E+01  0.13941816425E+02  0.43530458008E+02  0.46357302150E+02  0.47000000000E+01 0. -1.
        -11    1    1    2    0    0 -0.12607410503E+02 -0.15008778357E+02 -0.37905292623E+02  0.42673427753E+02  0.00000000000E+00 0.  1.
         11    1    1    2    0    0 -0.28725857250E+02 -0.38468049528E+02  0.14461107216E+02  0.50140695360E+02  0.00000000000E+00 0. -1.
<mgrwt>
<rscale>  0 0.12670225E+03</rscale>
<asrwt>0</asrwt>
<pdfrwt beam="1">  1        2 0.13905093E-01 0.14210626E+03</pdfrwt>
<pdfrwt beam="2">  1       -2 0.22887750E-01 0.14210626E+03</pdfrwt>
<totfact> 0.67395399E+03</totfact>
</mgrwt>
</event>
<event>
 6    1  0.5928109E-006  0.1465574E+03  0.7546771E-02  0.1222869E+00
         -1   -1    0    0    0  501 -0.00000000000E+00  0.00000000000E+00  0.12796406138E+02  0.12796406138E+02  0.00000000000E+00 0.  1.
          1   -1    0    0  501    0  0.00000000000E+00 -0.00000000000E+00 -0.27026961853E+04  0.27026961853E+04  0.00000000000E+00 0. -1.
          5    1    1    2  502    0  0.24843153374E+02 -0.45709700571E+02 -0.22950789436E+04  0.22956733230E+04  0.47000000000E+01 0. -1.
         -5    1    1    2    0  502 -0.35151169879E+02  0.63660400986E+01 -0.17090179060E+03  0.17465864777E+03  0.47000000000E+01 0.  1.
        -11    1    1    2    0    0 -0.16936745168E+01  0.66606560361E+02 -0.18136920084E+03  0.19322031319E+03  0.00000000000E+00 0.  1.
         11    1    1    2    0    0  0.12001691021E+02 -0.27262899888E+02 -0.42549844180E+02  0.51940307445E+02  0.00000000000E+00 0. -1.
<mgrwt>
<rscale>  0 0.13314042E+03</rscale>
<asrwt>0</asrwt>
<pdfrwt beam="2">  1        1 0.41579986E+00 0.14655738E+03</pdfrwt>
<pdfrwt beam="1">  1       -1 0.19686757E-02 0.14655738E+03</pdfrwt>
<totfact> 0.82964284E+02</totfact>
</mgrwt>
</event>
<event>
 7    1  0.5928109E-006  0.1597150E+03  0.7546771E-02  0.1196698E+00
          2   -1    0    0  501    0  0.00000000000E+00  0.00000000000E+00  0.16332232390E+04  0.16332232390E+04  0.00000000000E+00 0.  1.
         -2   -1    0    0    0  501 -0.00000000000E+00 -0.00000000000E+00 -0.15866210324E+02  0.15866210324E+02  0.00000000000E+00 0. -1.
         23    2    1    2    0    0 -0.98723046335E+02  0.11689593245E+02  0.11971943548E+04  0.12078009803E+04  0.12500399358E+03 0.  0.
          5    1    3    3  502    0  0.14774112115E+02  0.29680866673E+02  0.50570518385E+03  0.50681263916E+03  0.47000000000E+01 0. -1.
         -5    1    3    3    0  502 -0.11349715845E+03 -0.17991273428E+02  0.69148917091E+03  0.70098834112E+03  0.47000000000E+01 0. -1.
        -11    1    1    2    0    0  0.15963578173E+02  0.34786218553E+02  0.91187852927E+02  0.98894597177E+02  0.00000000000E+00 0.  1.
         11    1    1    2    0    0  0.82759468162E+02 -0.46475811798E+02  0.32897482100E+03  0.34239387188E+03  0.00000000000E+00 0. -1.
<mgrwt>
<rscale>  0 0.15311395E+03</rscale>
<asrwt>0</asrwt>
<pdfrwt beam="1">  1        2 0.25126498E+00 0.15971501E+03</pdfrwt>
<pdfrwt beam="2">  1       -2 0.24409567E-02 0.15971501E+03</pdfrwt>
<totfact> 0.65922865E+03</totfact>
</mgrwt>
</event>
<event>
 7    1  0.5928109E-006  0.1531547E+03  0.7546771E-02  0.1204659E+00
         -2   -1    0    0    0  501 -0.00000000000E+00  0.00000000000E+00  0.14690383845E+03  0.14690383845E+03  0.00000000000E+00 0.  1.
          2   -1    0    0  501    0  0.00000000000E+00 -0.00000000000E+00 -0.13612173916E+03  0.13612173916E+03  0.00000000000E+00 0. -1.
         23    2    1    2    0    0  0.47530795769E+02  0.74648294132E+02 -0.56375216009E+01  0.15325842636E+03  0.12499927694E+03 0.  0.
          5    1    3    3  502    0  0.67964150308E+02  0.65221033038E+02 -0.47424303353E+02  0.10556544618E+03  0.47000000000E+01 0.  1.
         -5    1    3    3    0  502 -0.20433354539E+02  0.94272610942E+01  0.41786781752E+02  0.47692980182E+02  0.47000000000E+01 0.  1.
        -11    1    1    2    0    0 -0.55513769202E+02 -0.51295466437E+02 -0.26635562187E+02  0.80140230977E+02  0.00000000000E+00 0. -1.
         11    1    1    2    0    0  0.79829734328E+01 -0.23352827695E+02  0.43055183081E+02  0.49626920279E+02  0.00000000000E+00 0.  1.
<mgrwt>
<rscale>  0 0.14664349E+03</rscale>
<asrwt>0</asrwt>
<pdfrwt beam="2">  1        2 0.20941806E-01 0.15315470E+03</pdfrwt>
<pdfrwt beam="1">  1       -2 0.22600591E-01 0.15315470E+03</pdfrwt>
<totfact> 0.43125026E+03</totfact>
</mgrwt>
</event>
<event>
 7    1  0.5928109E-006  0.1417101E+03  0.7546771E-02  0.1221572E+00
         -4   -1    0    0    0  501 -0.00000000000E+00  0.00000000000E+00  0.20219867718E+03  0.20219867718E+03  0.00000000000E+00 0.  1.
          4   -1    0    0  501    0  0.00000000000E+00 -0.00000000000E+00 -0.82054359060E+02  0.82054359060E+02  0.00000000000E+00 0. -1.
         23    2    1    2    0    0  0.59565371545E+02 -0.30147183150E+02  0.47161068708E+02  0.14935162071E+03  0.12499941627E+03 0.  0.
          5    1    3    3  502    0  0.75923354508E+02  0.61438361637E+01 -0.12643348782E+02  0.77356620602E+02  0.47000000000E+01 0. -1.
         -5    1    3    3    0  502 -0.16357982963E+02 -0.36291019314E+02  0.59804417490E+02  0.71995000109E+02  0.47000000000E+01 0. -1.
        -11    1    1    2    0    0 -0.46315570630E+02  0.25069560690E+02 -0.74826289698E+01  0.53194028728E+02  0.00000000000E+00 0. -1.
         11    1    1    2    0    0 -0.13249800915E+02  0.50776224599E+01  0.80465878377E+02  0.81707386797E+02  0.00000000000E+00 0.  1.
<mgrwt>
<rscale>  0 0.13404653E+03</rscale>
<asrwt>0</asrwt>
<pdfrwt beam="2">  1        4 0.12623748E-01 0.14171006E+03</pdfrwt>
<pdfrwt beam="1">  1       -4 0.31107489E-01 0.14171006E+03</pdfrwt>
<totfact> 0.84240337E+02</totfact>
</mgrwt>
</event>
<event>
 7    1  0.5928109E-006  0.1361676E+03  0.7546771E-02  0.1230333E+00
         -2   -1    0    0    0  501 -0.00000000000E+00  0.00000000000E+00  0.79543516208E+02  0.79543516208E+02  0.00000000000E+00 0.  1.
          2   -1    0    0  501    0  0.00000000000E+00 -0.00000000000E+00 -0.37056050872E+03  0.37056050872E+03  0.00000000000E+00 0. -1.
         23    2    1    2    0    0 -0.59298691992E+01 -0.53656328686E+02 -0.31294515969E+03  0.34128623437E+03  0.12500982297E+03 0.  0.
          5    1    3    3  502    0 -0.78644424312E+01 -0.34713679460E+02 -0.31880240240E+03  0.32081762852E+03  0.47000000000E+01 0. -1.
         -5    1    3    3    0  502  0.19345732320E+01 -0.18942649226E+02  0.58572427029E+01  0.20468605849E+02  0.47000000000E+01 0. -1.
        -11    1    1    2    0    0 -0.15188209810E+02  0.48910836384E+02  0.51196355596E+02  0.72415595415E+02  0.00000000000E+00 0.  1.
         11    1    1    2    0    0  0.21118079009E+02  0.47454923023E+01 -0.29268188417E+02  0.36402195146E+02  0.00000000000E+00 0. -1.
<mgrwt>
<rscale>  0 0.12807958E+03</rscale>
<asrwt>0</asrwt>
<pdfrwt beam="2">  1        2 0.57009308E-01 0.13616762E+03</pdfrwt>
<pdfrwt beam="1">  1       -2 0.12237464E-01 0.13616762E+03</pdfrwt>
<totfact> 0.40122797E+03</totfact>
</mgrwt>
</event>
<event>
 7    1  0.5928109E-006  0.1281552E+03  0.7546771E-02  0.1248450E+00
         -1   -1    0    0    0  501 -0.00000000000E+00  0.00000000000E+00  0.15197466360E+02  0.15197466360E+02  0.00000000000E+00 0.  1.
          1   -1    0    0  501    0  0.00000000000E+00 -0.00000000000E+00 -0.78640619425E+03  0.78640619425E+03  0.00000000000E+00 0. -1.
         23    2    1    2    0    0 -0.28018579385E+02  0.37130095967E+01 -0.50853909575E+03  0.52443852618E+03  0.12499971442E+03 0.  0.
          5    1    3    3  502    0  0.25955833137E+01 -0.30842369530E+02 -0.44316246117E+03  0.44426686327E+03  0.47000000000E+01 0. -1.
         -5    1    3    3    0  502 -0.30614162699E+02  0.34555379127E+02 -0.65376634578E+02  0.80171662906E+02  0.47000000000E+01 0. -1.
        -11    1    1    2    0    0 -0.18407171224E+01 -0.35097565017E+02 -0.56854743762E+02  0.66840774964E+02  0.00000000000E+00 0.  1.
         11    1    1    2    0    0  0.29859296508E+02  0.31384555420E+02 -0.20581488838E+03  0.21032435947E+03  0.00000000000E+00 0. -1.
<mgrwt>
<rscale>  0 0.11681240E+03</rscale>
<asrwt>0</asrwt>
<pdfrwt beam="2">  1        1 0.12098557E+00 0.12815520E+03</pdfrwt>
<pdfrwt beam="1">  1       -1 0.23380717E-02 0.12815520E+03</pdfrwt>
<totfact> 0.12287727E+04</totfact>
</mgrwt>
</event>
<event>
 7    1  0.5928109E-006  0.1656360E+03  0.7546771E-02  0.1189409E+00
          2   -1    0    0  501    0  0.00000000000E+00  0.00000000000E+00  0.20532427466E+02  0.20532427466E+02  0.00000000000E+00 0. -1.
         -2   -1    0    0    0  501 -0.00000000000E+00 -0.00000000000E+00 -0.12322717008E+04  0.12322717008E+04  0.00000000000E+00 0.  1.
         23    2    1    2    0    0  0.66171898824E+02  0.86215489698E+02 -0.80886765755E+03  0.82565256406E+03  0.12499375284E+03 0.  0.
          5    1    3    3  502    0  0.84528299138E+02  0.44881345542E+02 -0.30405080676E+03  0.31879201939E+03  0.47000000000E+01 0.  1.
         -5    1    3    3    0  502 -0.18356400313E+02  0.41334144156E+02 -0.50481685078E+03  0.50686054467E+03  0.47000000000E+01 0.  1.
        -11    1    1    2    0    0 -0.47017563236E+01  0.18603048038E+02 -0.37852581780E+02  0.42438165091E+02  0.00000000000E+00 0.  1.
         11    1    1    2    0    0 -0.61470142501E+02 -0.10481853774E+03 -0.36501903397E+03  0.38471339908E+03  0.00000000000E+00 0. -1.
<mgrwt>
<rscale>  0 0.15937060E+03</rscale>
<asrwt>0</asrwt>
<pdfrwt beam="1">  1        2 0.31588346E-02 0.16563595E+03</pdfrwt>
<pdfrwt beam="2">  1       -2 0.18958028E+00 0.16563595E+03</pdfrwt>
<totfact> 0.48433088E+02</totfact>
</mgrwt>
</event>
<event>
 7    1  0.5928109E-006  0.2065409E+03  0.7546771E-02  0.1148509E+00
         -2   -1    0    0    0  501 -0.00000000000E+00  0.00000000000E+00  0.25271057306E+02  0.25271057306E+02  0.00000000000E+00 0.  1.
          2   -1    0    0  501    0  0.00000000000E+00 -0.00000000000E+00 -0.17772639000E+04  0.17772639000E+04  0.00000000000E+00 0. -1.
         23    2    1    2    0    0 -0.91676614620E+02  0.13649033599E+03 -0.12480612712E+04  0.12650360018E+04  0.12499974330E+03 0.  0.
          5    1    3    3  502    0 -0.39554759583E+02  0.83601771151E+02 -0.10391932821E+04  0.10433113642E+04  0.47000000000E+01 0. -1.
         -5    1    3    3    0  502 -0.52121855036E+02  0.52888564837E+02 -0.20886798910E+03  0.22172463763E+03  0.47000000000E+01 0. -1.
        -11    1    1    2    0    0  0.12927603330E+02 -0.98664826509E+02 -0.27711151937E+03  0.29443618169E+03  0.00000000000E+00 0.  1.
         11    1    1    2    0    0  0.78749011289E+02 -0.37825509478E+02 -0.22682005213E+03  0.24306277377E+03  0.00000000000E+00 0. -1.
<mgrwt>
<rscale>  0 0.20146428E+03</rscale>
<asrwt>0</asrwt>
<pdfrwt beam="2">  1        2 0.27342519E+00 0.20654091E+03</pdfrwt>
<pdfrwt beam="1">  1       -2 0.38878554E-02 0.20654091E+03</pdfrwt>
<totfact> 0.27926148E+03</totfact>
</mgrwt>
</event>
<event>
 7    1  0.5928109E-006  0.1419425E+03  0.7546771E-02  0.1222115E+00
         -2   -1    0    0    0  501 -0.00000000000E+00  0.00000000000E+00  0.71434257915E+02  0.71434257915E+02  0.00000000000E+00 0. -1.
          2   -1    0    0  501    0  0.00000000000E+00 -0.00000000000E+00 -0.40763181966E+03  0.40763181966E+03  0.00000000000E+00 0.  1.
         23    2    1    2    0    0  0.27647377760E+02  0.61304372664E+02 -0.33888614217E+03  0.36741187906E+03  0.12500027165E+03 0.  0.
          5    1    3    3  502    0  0.15689501926E+02 -0.20271370405E+02 -0.93526634754E+01  0.27688467687E+02  0.47000000000E+01 0. -1.
         -5    1    3    3    0  502  0.11957875833E+02  0.81575743068E+02 -0.32953347870E+03  0.33972341137E+03  0.47000000000E+01 0. -1.
        -11    1    1    2    0    0 -0.99725078748E+00 -0.75299083557E+02 -0.14936400844E+02  0.76772668078E+02  0.00000000000E+00 0.  1.
         11    1    1    2    0    0 -0.26650126972E+02  0.13994710893E+02  0.17624981274E+02  0.34881530436E+02  0.00000000000E+00 0. -1.
<mgrwt>
<rscale>  0 0.13366620E+03</rscale>
<asrwt>0</asrwt>
<pdfrwt beam="2">  1        2 0.62712587E-01 0.14194249E+03</pdfrwt>
<pdfrwt beam="1">  1       -2 0.10989886E-01 0.14194249E+03</pdfrwt>
<totfact> 0.43096122E+03</totfact>
</mgrwt>
</event>
<event>
 7    1  0.5928109E-006  0.3684872E+03  0.7546771E-02  0.1056311E+00
         -1   -1    0    0    0  501 -0.00000000000E+00  0.00000000000E+00  0.41740503931E+03  0.41740503931E+03  0.00000000000E+00 0.  1.
          1   -1    0    0  501    0  0.00000000000E+00 -0.00000000000E+00 -0.32786781585E+03  0.32786781585E+03  0.00000000000E+00 0. -1.
         23    2    1    2    0    0  0.81640011278E+02  0.33689439509E+03 -0.25540114965E+02  0.36937128443E+03  0.12497969197E+03 0.  0.
          5    1    3    3  502    0 -0.30329837402E+02  0.12430083937E+03 -0.42103059700E+01  0.12810313962E+03  0.47000000000E+01 0. -1.
         -5    1    3    3    0  502  0.11196984868E+03  0.21259355573E+03 -0.21329808995E+02  0.24126814481E+03  0.47000000000E+01 0. -1.
        -11    1    1    2    0    0 -0.22767904230E+02 -0.20308085361E+03  0.29409720834E+02  0.20645857271E+03  0.00000000000E+00 0. -1.
         11    1    1    2    0    0 -0.58872107048E+02 -0.13381354148E+03  0.85667617588E+02  0.16944299801E+03  0.00000000000E+00 0.  1.
<mgrwt>
<rscale>  0 0.36579957E+03</rscale>
<asrwt>0</asrwt>
<pdfrwt beam="2">  1        1 0.50441202E-01 0.36848724E+03</pdfrwt>
<pdfrwt beam="1">  1       -1 0.64216160E-01 0.36848724E+03</pdfrwt>
<totfact> 0.19901937E+02</totfact>
</mgrwt>
</event>
<event>
 7    1  0.5928109E-006  0.1333038E+03  0.7546771E-02  0.1234271E+00
          2   -1    0    0  501    0  0.00000000000E+00  0.00000000000E+00  0.40550286730E+03  0.40550286730E+03  0.00000000000E+00 0. -1.
         -2   -1    0    0    0  501 -0.00000000000E+00 -0.00000000000E+00 -0.34943132241E+02  0.34943132241E+02  0.00000000000E+00 0.  1.
         23    2    1    2    0    0  0.31810390857E+02 -0.33647669078E+02  0.20649059887E+03  0.24578092115E+03  0.12500330866E+03 0.  0.
          5    1    3    3  502    0  0.17930700480E+02 -0.10497473133E+01  0.20912149282E+03  0.20994404194E+03  0.47000000000E+01 0. -1.
         -5    1    3    3    0  502  0.13879690378E+02 -0.32597921765E+02 -0.26308939424E+01  0.35836879207E+02  0.47000000000E+01 0. -1.
        -11    1    1    2    0    0  0.24775090388E+02  0.32385878682E+02  0.10601468693E+03  0.11358593261E+03  0.00000000000E+00 0.  1.
         11    1    1    2    0    0 -0.56585481245E+02  0.12617903958E+01  0.58054449257E+02  0.81079145785E+02  0.00000000000E+00 0. -1.
<mgrwt>
<rscale>  0 0.12551233E+03</rscale>
<asrwt>0</asrwt>
<pdfrwt beam="1">  1        2 0.62385053E-01 0.13330377E+03</pdfrwt>
<pdfrwt beam="2">  1       -2 0.53758668E-02 0.13330377E+03</pdfrwt>
<totfact> 0.13005702E+04</totfact>
</mgrwt>
</event>
<event>
 7    1  0.5928109E-006  0.1984857E+03  0.7546771E-02  0.1155382E+00
         -4   -1    0    0    0  501 -0.00000000000E+00  0.00000000000E+00  0.17179952376E+03  0.17179952376E+03  0.00000000000E+00 0.  1.
          4   -1    0    0  501    0  0.00000000000E+00 -0.00000000000E+00 -0.21215883377E+03  0.21215883377E+03  0.00000000000E+00 0. -1.
         23    2    1    2    0    0  0.13861303337E+03 -0.67511799037E+02 -0.49655916932E+02  0.20460270258E+03  0.12500055914E+03 0.  0.
          5    1    3    3  502    0  0.92724946903E+02  0.89137773009E+00 -0.73837326823E+02  0.11862862709E+03  0.47000000000E+01 0.  1.
         -5    1    3    3    0  502  0.45888086470E+02 -0.68403176767E+02  0.24181409891E+02  0.85974075488E+02  0.47000000000E+01 0.  1.
        -11    1    1    2    0    0 -0.39437766973E+02  0.69155060478E+02 -0.11484752744E+01  0.79618332368E+02  0.00000000000E+00 0.  1.
         11    1    1    2    0    0 -0.99175266399E+02 -0.16432614410E+01  0.10445082201E+02  0.99737322582E+02  0.00000000000E+00 0. -1.
<mgrwt>
<rscale>  0 0.19345482E+03</rscale>
<asrwt>0</asrwt>
<pdfrwt beam="2">  1        4 0.32639821E-01 0.19848566E+03</pdfrwt>
<pdfrwt beam="1">  1       -4 0.26430696E-01 0.19848566E+03</pdfrwt>
<totfact> 0.21698566E+02</totfact>
</mgrwt>
</event>
<event>
 7    1  0.5928109E-006  0.1790808E+03  0.7546771E-02  0.1174301E+00
          2   -1    0    0  501    0  0.00000000000E+00  0.00000000000E+00  0.11366220871E+03  0.11366220871E+03  0.00000000000E+00 0. -1.
         -2   -1    0    0    0  501 -0.00000000000E+00 -0.00000000000E+00 -0.25553670015E+03  0.25553670015E+03  0.00000000000E+00 0.  1.
         23    2    1    2    0    0  0.12812857094E+03  0.50409489571E+01 -0.10414787449E+03  0.20716353235E+03  0.12501042963E+03 0.  0.
          5    1    3    3  502    0  0.49405561091E+02 -0.19519203824E+02  0.20916674961E+02  0.57284431358E+02  0.47000000000E+01 0.  1.
         -5    1    3    3    0  502  0.78723009848E+02  0.24560152781E+02 -0.12506454945E+03  0.14987910099E+03  0.47000000000E+01 0.  1.
        -11    1    1    2    0    0 -0.87082081687E+02 -0.44995835014E+02 -0.36935743998E+02  0.10474809451E+03  0.00000000000E+00 0.  1.
         11    1    1    2    0    0 -0.41046489251E+02  0.39954886056E+02 -0.79087295093E+00  0.57287282006E+02  0.00000000000E+00 0. -1.
<mgrwt>
<rscale>  0 0.17344576E+03</rscale>
<asrwt>0</asrwt>
<pdfrwt beam="1">  1        2 0.17486494E-01 0.17908085E+03</pdfrwt>
<pdfrwt beam="2">  1       -2 0.39313338E-01 0.17908085E+03</pdfrwt>
<totfact> 0.19650415E+03</totfact>
</mgrwt>
</event>
<event>
 7    1  0.5928109E-006  0.1771151E+03  0.7546771E-02  0.1175990E+00
         -2   -1    0    0    0  501 -0.00000000000E+00  0.00000000000E+00  0.52520595979E+03  0.52520595979E+03  0.00000000000E+00 0.  1.
          2   -1    0    0  501    0  0.00000000000E+00 -0.00000000000E+00 -0.53068781655E+02  0.53068781655E+02  0.00000000000E+00 0. -1.
         23    2    1    2    0    0 -0.91701436892E+02 -0.85624809969E+02  0.24791092513E+03  0.30467946874E+03  0.12501596001E+03 0.  0.
          5    1    3    3  502    0 -0.82958504390E+02  0.45027651553E+01  0.89899110828E+02  0.12250032030E+03  0.47000000000E+01 0. -1.
         -5    1    3    3    0  502 -0.87429325020E+01 -0.90127575124E+02  0.15801181431E+03  0.18217914844E+03  0.47000000000E+01 0. -1.
        -11    1    1    2    0    0  0.10538782060E+03  0.88604860366E+02  0.17647578773E+03  0.22383278953E+03  0.00000000000E+00 0. -1.
         11    1    1    2    0    0 -0.13686383705E+02 -0.29800503971E+01  0.47750465271E+02  0.49762483187E+02  0.00000000000E+00 0.  1.
<mgrwt>
<rscale>  0 0.17179388E+03</rscale>
<asrwt>0</asrwt>
<pdfrwt beam="2">  1        2 0.81644283E-02 0.17711508E+03</pdfrwt>
<pdfrwt beam="1">  1       -2 0.80800913E-01 0.17711508E+03</pdfrwt>
<totfact> 0.11353944E+03</totfact>
</mgrwt>
</event>
<event>
 7    1  0.5928109E-006  0.1311168E+03  0.7546771E-02  0.1241473E+00
          2   -1    0    0  501    0  0.00000000000E+00  0.00000000000E+00  0.36973705186E+03  0.36973705186E+03  0.00000000000E+00 0. -1.
         -2   -1    0    0    0  501 -0.00000000000E+00 -0.00000000000E+00 -0.35259834550E+02  0.35259834550E+02  0.00000000000E+00 0.  1.
         23    2    1    2    0    0  0.37763115954E+02  0.11820726812E+02  0.22092605939E+03  0.25690454552E+03  0.12500335708E+03 0.  0.
          5    1    3    3  502    0  0.73124697217E+02 -0.21144116850E+02  0.17106777339E+03  0.18729807291E+03  0.47000000000E+01 0.  1.
         -5    1    3    3    0  502 -0.35361581263E+02  0.32964843661E+02  0.49858286000E+02  0.69606472615E+02  0.47000000000E+01 0.  1.
        -11    1    1    2    0    0 -0.43943377027E+02  0.16311995765E+02  0.21368056745E+02  0.51514031481E+02  0.00000000000E+00 0.  1.
         11    1    1    2    0    0  0.61802610734E+01 -0.28132722576E+02  0.92183101175E+02  0.96578309411E+02  0.00000000000E+00 0. -1.
<mgrwt>
<rscale>  0 0.12099007E+03</rscale>
<asrwt>0</asrwt>
<pdfrwt beam="1">  1        2 0.56882621E-01 0.13111682E+03</pdfrwt>
<pdfrwt beam="2">  1       -2 0.54245902E-02 0.13111682E+03</pdfrwt>
<totfact> 0.14137548E+04</totfact>
</mgrwt>
</event>
<event>
 7    1  0.5928109E-006  0.1506630E+03  0.7546771E-02  0.1207460E+00
         -2   -1    0    0    0  501 -0.00000000000E+00  0.00000000000E+00  0.15243753123E+02  0.15243753123E+02  0.00000000000E+00 0.  1.
          2   -1    0    0  501    0  0.00000000000E+00 -0.00000000000E+00 -0.15806645362E+04  0.15806645362E+04  0.00000000000E+00 0. -1.
         23    2    1    2    0    0 -0.84039775853E+02  0.36649801847E+01 -0.11897152371E+04  0.11992171076E+04  0.12499283961E+03 0.  0.
          5    1    3    3  502    0  0.20501433545E+02  0.12544694902E+02 -0.62607580892E+02  0.67227058040E+02  0.47000000000E+01 0.  1.
         -5    1    3    3    0  502 -0.10454120940E+03 -0.88797147171E+01 -0.11271076562E+04  0.11319900496E+04  0.47000000000E+01 0.  1.
        -11    1    1    2    0    0  0.34037935001E+02 -0.28020088279E+02 -0.51694937661E+02  0.67941687837E+02  0.00000000000E+00 0.  1.
         11    1    1    2    0    0  0.50001840851E+02  0.24355108094E+02 -0.32401060838E+03  0.32874949387E+03  0.00000000000E+00 0. -1.
<mgrwt>
<rscale>  0 0.14445254E+03</rscale>
<asrwt>0</asrwt>
<pdfrwt beam="2">  1        2 0.24317905E+00 0.15066295E+03</pdfrwt>
<pdfrwt beam="1">  1       -2 0.23451939E-02 0.15066295E+03</pdfrwt>
<totfact> 0.74303775E+03</totfact>
</mgrwt>
</event>
<event>
 7    1  0.5928109E-006  0.1347012E+03  0.7546771E-02  0.1233788E+00
         -1   -1    0    0    0  501 -0.00000000000E+00  0.00000000000E+00  0.63785337808E+02  0.63785337808E+02  0.00000000000E+00 0.  1.
          1   -1    0    0  501    0  0.00000000000E+00 -0.00000000000E+00 -0.22149429985E+03  0.22149429985E+03  0.00000000000E+00 0. -1.
         23    2    1    2    0    0  0.21479104088E+02  0.45372058793E+02 -0.80596289318E+02  0.15697188057E+03  0.12499773521E+03 0.  0.
          5    1    3    3  502    0 -0.32981973971E+02 -0.22138123905E+02 -0.23633621221E+01  0.40069721955E+02  0.47000000000E+01 0. -1.
         -5    1    3    3    0  502  0.54461078059E+02  0.67510182698E+02 -0.78232927196E+02  0.11690215862E+03  0.47000000000E+01 0. -1.
        -11    1    1    2    0    0  0.24252399812E+02 -0.33065266817E+02 -0.68991730984E+02  0.80258019602E+02  0.00000000000E+00 0. -1.
         11    1    1    2    0    0 -0.45731503899E+02 -0.12306791976E+02 -0.81209417400E+01  0.48049737485E+02  0.00000000000E+00 0.  1.
<mgrwt>
<rscale>  0 0.12582373E+03</rscale>
<asrwt>0</asrwt>
<pdfrwt beam="2">  1        1 0.34076046E-01 0.13470119E+03</pdfrwt>
<pdfrwt beam="1">  1       -1 0.98131290E-02 0.13470119E+03</pdfrwt>
<totfact> 0.76630527E+03</totfact>
</mgrwt>
</event>
<event>
 7    1  0.5928109E-006  0.1471417E+03  0.7546771E-02  0.1209669E+00
         -1   -1    0    0    0  501 -0.00000000000E+00  0.00000000000E+00  0.94120316783E+02  0.94120316783E+02  0.00000000000E+00 0.  1.
          1   -1    0    0  501    0  0.00000000000E+00 -0.00000000000E+00 -0.71513171489E+03  0.71513171489E+03  0.00000000000E+00 0. -1.
         23    2    1    2    0    0 -0.60770458950E+02  0.48288594050E+02 -0.65759094195E+03  0.67385201412E+03  0.12500341197E+03 0.  0.
          5    1    3    3  502    0  0.33692871528E+02  0.37537174427E+02 -0.18768061744E+03  0.19439741052E+03  0.47000000000E+01 0. -1.
         -5    1    3    3    0  502 -0.94463330479E+02  0.10751419623E+02 -0.46991032451E+03  0.47945460360E+03  0.47000000000E+01 0. -1.
        -11    1    1    2    0    0  0.26158104665E+02  0.32809975917E+02  0.15560940450E+02  0.44753590102E+02  0.00000000000E+00 0.  1.
         11    1    1    2    0    0  0.34612354285E+02 -0.81098569967E+02  0.21018603397E+02  0.90646427445E+02  0.00000000000E+00 0. -1.
<mgrwt>
<rscale>  0 0.14275534E+03</rscale>
<asrwt>0</asrwt>
<pdfrwt beam="2">  1        1 0.11002026E+00 0.14714173E+03</pdfrwt>
<pdfrwt beam="1">  1       -1 0.14480049E-01 0.14714173E+03</pdfrwt>
<totfact> 0.93151719E+02</totfact>
</mgrwt>
</event>
<event>
 7    1  0.5928109E-006  0.1629724E+03  0.7546771E-02  0.1192534E+00
         -4   -1    0    0    0  501 -0.00000000000E+00  0.00000000000E+00  0.12146159793E+03  0.12146159793E+03  0.00000000000E+00 0.  1.
          4   -1    0    0  501    0  0.00000000000E+00 -0.00000000000E+00 -0.18792107451E+03  0.18792107451E+03  0.00000000000E+00 0. -1.
         23    2    1    2    0    0  0.75240915782E+02 -0.72693641808E+02 -0.32317965159E+02  0.16614592976E+03  0.12495782544E+03 0.  0.
          5    1    3    3  502    0 -0.18007110133E+02 -0.32327365409E+02 -0.50532916355E+02  0.62809077410E+02  0.47000000000E+01 0.  1.
         -5    1    3    3    0  502  0.93248025915E+02 -0.40366276398E+02  0.18214951197E+02  0.10333685235E+03  0.47000000000E+01 0.  1.
        -11    1    1    2    0    0 -0.69521086609E+02  0.37534958046E+02  0.17094617483E+02  0.80834896584E+02  0.00000000000E+00 0.  1.
         11    1    1    2    0    0 -0.57198291729E+01  0.35158683761E+02 -0.51236128910E+02  0.62401846089E+02  0.00000000000E+00 0. -1.
<mgrwt>
<rscale>  0 0.15664766E+03</rscale>
<asrwt>0</asrwt>
<pdfrwt beam="2">  1        4 0.28910934E-01 0.16297245E+03</pdfrwt>
<pdfrwt beam="1">  1       -4 0.18686400E-01 0.16297245E+03</pdfrwt>
<totfact> 0.49951428E+02</totfact>
</mgrwt>
</event>
<event>
 7    1  0.5928109E-006  0.1490353E+03  0.7546771E-02  0.1210865E+00
          2   -1    0    0  501    0  0.00000000000E+00  0.00000000000E+00  0.93700055505E+03  0.93700055505E+03  0.00000000000E+00 0. -1.
         -2   -1    0    0    0  501 -0.00000000000E+00 -0.00000000000E+00 -0.22510670610E+02  0.22510670610E+02  0.00000000000E+00 0.  1.
         23    2    1    2    0    0  0.64493742803E+02  0.49238717832E+02  0.66708154652E+03  0.68352711423E+03  0.12501052748E+03 0.  0.
          5    1    3    3  502    0  0.46978597184E+02  0.72491608770E+02  0.63111798760E+03  0.63701964350E+03  0.47000000000E+01 0. -1.
         -5    1    3    3    0  502  0.17515145619E+02 -0.23252890938E+02  0.35963558922E+02  0.46507470726E+02  0.47000000000E+01 0. -1.
        -11    1    1    2    0    0 -0.27036459384E+02 -0.21884196964E+01  0.67869692553E+01  0.27961084894E+02  0.00000000000E+00 0.  1.
         11    1    1    2    0    0 -0.37457283419E+02 -0.47050298135E+02  0.24062136866E+03  0.24802302654E+03  0.00000000000E+00 0. -1.
<mgrwt>
<rscale>  0 0.14184698E+03</rscale>
<asrwt>0</asrwt>
<pdfrwt beam="1">  1        2 0.14415390E+00 0.14903532E+03</pdfrwt>
<pdfrwt beam="2">  1       -2 0.34631808E-02 0.14903532E+03</pdfrwt>
<totfact> 0.95161199E+03</totfact>
</mgrwt>
</event>
<event>
 7    1  0.5928109E-006  0.2457719E+03  0.7546771E-02  0.1118706E+00
          1   -1    0    0  501    0  0.00000000000E+00  0.00000000000E+00  0.34775331609E+03  0.34775331609E+03  0.00000000000E+00 0. -1.
         -1   -1    0    0    0  501 -0.00000000000E+00 -0.00000000000E+00 -0.18412520413E+03  0.18412520413E+03  0.00000000000E+00 0.  1.
         23    2    1    2    0    0 -0.44437462625E+02  0.20689076665E+03  0.17537039135E+03  0.30192484472E+03  0.12500144115E+03 0.  0.
          5    1    3    3  502    0 -0.16016873032E+02  0.21456791001E+03  0.16133578651E+03  0.26897444904E+03  0.47000000000E+01 0.  1.
         -5    1    3    3    0  502 -0.28420589593E+02 -0.76771433538E+01  0.14034604837E+02  0.32950395685E+02  0.47000000000E+01 0.  1.
        -11    1    1    2    0    0  0.31376162652E+02 -0.16193214115E+03 -0.46811836925E+02  0.17145795402E+03  0.00000000000E+00 0.  1.
         11    1    1    2    0    0  0.13061299973E+02 -0.44958625501E+02  0.35069557545E+02  0.58495721470E+02  0.00000000000E+00 0. -1.
<mgrwt>
<rscale>  0 0.24163929E+03</rscale>
<asrwt>0</asrwt>
<pdfrwt beam="1">  1        1 0.53500510E-01 0.24577192E+03</pdfrwt>
<pdfrwt beam="2">  1       -1 0.28326955E-01 0.24577192E+03</pdfrwt>
<totfact> 0.81982712E+02</totfact>
</mgrwt>
</event>
<event>
 7    1  0.5928109E-006  0.1655803E+03  0.7546771E-02  0.1188801E+00
         -1   -1    0    0    0  501 -0.00000000000E+00  0.00000000000E+00  0.33497709678E+02  0.33497709678E+02  0.00000000000E+00 0.  1.
          1   -1    0    0  501    0  0.00000000000E+00 -0.00000000000E+00 -0.90033831379E+03  0.90033831379E+03  0.00000000000E+00 0. -1.
         23    2    1    2    0    0  0.54170410333E+02 -0.94114079380E+02 -0.66860181764E+03  0.68879983637E+03  0.12499972291E+03 0.  0.
          5    1    3    3  502    0  0.43408937916E+02 -0.66495041698E+02 -0.64687776781E+03  0.65175061408E+03  0.47000000000E+01 0. -1.
         -5    1    3    3    0  502  0.10761472417E+02 -0.27619037682E+02 -0.21724049833E+02  0.37049222289E+02  0.47000000000E+01 0. -1.
        -11    1    1    2    0    0  0.24924663083E+01  0.42464153728E+02 -0.12877014117E+02  0.44443607332E+02  0.00000000000E+00 0.  1.
         11    1    1    2    0    0 -0.56662876641E+02  0.51649925652E+02 -0.18536177235E+03  0.20059257977E+03  0.00000000000E+00 0. -1.
<mgrwt>
<rscale>  0 0.15990730E+03</rscale>
<asrwt>0</asrwt>
<pdfrwt beam="2">  1        1 0.13851358E+00 0.16558026E+03</pdfrwt>
<pdfrwt beam="1">  1       -1 0.51534940E-02 0.16558026E+03</pdfrwt>
<totfact> 0.31691472E+03</totfact>
</mgrwt>
</event>
<event>
 7    1  0.5928109E-006  0.1275786E+03  0.7546771E-02  0.1246162E+00
          2   -1    0    0  501    0  0.00000000000E+00  0.00000000000E+00  0.29715868955E+03  0.29715868955E+03  0.00000000000E+00 0.  1.
         -2   -1    0    0    0  501 -0.00000000000E+00 -0.00000000000E+00 -0.43068115760E+02  0.43068115760E+02  0.00000000000E+00 0. -1.
         23    2    1    2    0    0  0.11801970680E+02  0.22617304520E+02  0.18003220983E+03  0.22065333359E+03  0.12500187228E+03 0.  0.
          5    1    3    3  502    0 -0.15419641086E+02 -0.41498866816E+02  0.26043463655E+02  0.51577837075E+02  0.47000000000E+01 0.  1.
         -5    1    3    3    0  502  0.27221611767E+02  0.64116171336E+02  0.15398874618E+03  0.16907549652E+03  0.47000000000E+01 0.  1.
        -11    1    1    2    0    0 -0.17821984349E+02  0.82910493334E+01 -0.15248761458E+02  0.24877486835E+02  0.00000000000E+00 0. -1.
         11    1    1    2    0    0  0.60200136690E+01 -0.30908353854E+02  0.89307125414E+02  0.94695984879E+02  0.00000000000E+00 0.  1.
<mgrwt>
<rscale>  0 0.11816120E+03</rscale>
<asrwt>0</asrwt>
<pdfrwt beam="1">  1        2 0.45716720E-01 0.12757859E+03</pdfrwt>
<pdfrwt beam="2">  1       -2 0.66258641E-02 0.12757859E+03</pdfrwt>
<totfact> 0.13132702E+04</totfact>
</mgrwt>
</event>
<event>
 7    1  0.5928109E-006  0.1444487E+03  0.7546771E-02  0.1217961E+00
         -1   -1    0    0    0  501 -0.00000000000E+00  0.00000000000E+00  0.81317736478E+02  0.81317736478E+02  0.00000000000E+00 0.  1.
          1   -1    0    0  501    0  0.00000000000E+00 -0.00000000000E+00 -0.22103509996E+03  0.22103509996E+03  0.00000000000E+00 0. -1.
         23    2    1    2    0    0  0.44731658270E+02  0.56896729397E+02 -0.11386801661E+03  0.18393298301E+03  0.12500903153E+03 0.  0.
          5    1    3    3  502    0  0.35487214644E+02 -0.25757595080E+01  0.17074295468E+02  0.39744163169E+02  0.47000000000E+01 0. -1.
         -5    1    3    3    0  502  0.92444436260E+01  0.59472488905E+02 -0.13094231208E+03  0.14418881984E+03  0.47000000000E+01 0. -1.
        -11    1    1    2    0    0 -0.16386003061E+02 -0.67090261652E+02  0.11947161484E+02  0.70088080102E+02  0.00000000000E+00 0.  1.
         11    1    1    2    0    0 -0.28345655209E+02  0.10193532255E+02 -0.37796508356E+02  0.48331773327E+02  0.00000000000E+00 0. -1.
<mgrwt>
<rscale>  0 0.13661266E+03</rscale>
<asrwt>0</asrwt>
<pdfrwt beam="2">  1        1 0.34005400E-01 0.14444867E+03</pdfrwt>
<pdfrwt beam="1">  1       -1 0.12510421E-01 0.14444867E+03</pdfrwt>
<totfact> 0.53140445E+03</totfact>
</mgrwt>
</event>
<event>
 7    1  0.5928109E-006  0.1213802E+03  0.7546771E-02  0.1250220E+00
          3   -1    0    0  501    0  0.00000000000E+00  0.00000000000E+00  0.11761265637E+03  0.11761265637E+03  0.00000000000E+00 0. -1.
         -3   -1    0    0    0  501 -0.00000000000E+00 -0.00000000000E+00 -0.23849896597E+03  0.23849896597E+03  0.00000000000E+00 0.  1.
         23    2    1    2    0    0  0.33866136851E+02  0.25975431544E+02  0.70194650668E+02  0.14021571556E+03  0.11362886798E+03 0.  0.
          5    1    3    3  502    0  0.94458957021E+01  0.44333310039E+02  0.91809596399E+02  0.10249760639E+03  0.47000000000E+01 0. -1.
         -5    1    3    3    0  502  0.24420241149E+02 -0.18357878496E+02 -0.21614945731E+02  0.37718109173E+02  0.47000000000E+01 0.  1.
        -11    1    1    2    0    0 -0.18915130857E+02  0.17676844512E+02 -0.80106188200E+01  0.27100240241E+02  0.00000000000E+00 0. -1.
         11    1    1    2    0    0 -0.14951005994E+02 -0.43652276056E+02 -0.18307034145E+03  0.18879566654E+03  0.00000000000E+00 0.  1.
<mgrwt>
<rscale>  0 0.11578341E+03</rscale>
<asrwt>0</asrwt>
<pdfrwt beam="1">  1        3 0.18094255E-01 0.12138022E+03</pdfrwt>
<pdfrwt beam="2">  1       -3 0.36692148E-01 0.12138022E+03</pdfrwt>
<totfact> 0.44880225E+02</totfact>
</mgrwt>
</event>
<event>
 7    1  0.5928109E-006  0.1497665E+03  0.7546771E-02  0.1208522E+00
         -3   -1    0    0    0  501 -0.00000000000E+00  0.00000000000E+00  0.38462658852E+02  0.38462658852E+02  0.00000000000E+00 0.  1.
          3   -1    0    0  501    0  0.00000000000E+00 -0.00000000000E+00 -0.90137977001E+03  0.90137977001E+03  0.00000000000E+00 0. -1.
         23    2    1    2    0    0  0.57244527711E+01 -0.88069891247E+02 -0.76551995339E+03  0.78003257175E+03  0.12099974732E+03 0.  0.
          5    1    3    3  502    0  0.37139839500E+02 -0.65152194196E+02 -0.20832120456E+03  0.22145877800E+03  0.47000000000E+01 0.  1.
         -5    1    3    3    0  502 -0.31415386729E+02 -0.22917697051E+02 -0.55719874883E+03  0.55857379375E+03  0.47000000000E+01 0. -1.
        -11    1    1    2    0    0  0.17302982889E+02  0.25828153139E+01 -0.62068901862E+02  0.64487306737E+02  0.00000000000E+00 0. -1.
         11    1    1    2    0    0 -0.23027435660E+02  0.85487075933E+02 -0.35328255908E+02  0.95322550376E+02  0.00000000000E+00 0.  1.
<mgrwt>
<rscale>  0 0.14363344E+03</rscale>
<asrwt>0</asrwt>
<pdfrwt beam="2">  1        3 0.13867381E+00 0.14976653E+03</pdfrwt>
<pdfrwt beam="1">  1       -3 0.59173322E-02 0.14976653E+03</pdfrwt>
<totfact> 0.17244653E+02</totfact>
</mgrwt>
</event>
<event>
 7    1  0.5928109E-006  0.1343812E+03  0.7546771E-02  0.1234008E+00
         -1   -1    0    0    0  501 -0.00000000000E+00  0.00000000000E+00  0.45596521437E+02  0.45596521437E+02  0.00000000000E+00 0.  1.
          1   -1    0    0  501    0  0.00000000000E+00 -0.00000000000E+00 -0.31305665045E+03  0.31305665045E+03  0.00000000000E+00 0. -1.
         23    2    1    2    0    0 -0.46610104868E+02 -0.15977533078E+02 -0.17273778654E+03  0.21885300670E+03  0.12502204688E+03 0.  0.
          5    1    3    3  502    0 -0.59029304915E+02 -0.10170683351E+02 -0.16999433523E+02  0.62441751887E+02  0.47000000000E+01 0.  1.
         -5    1    3    3    0  502  0.12419200048E+02 -0.58068497264E+01 -0.15573835302E+03  0.15641125482E+03  0.47000000000E+01 0.  1.
        -11    1    1    2    0    0 -0.64814824194E+01 -0.29243169922E+02 -0.45365367408E+02  0.54361651571E+02  0.00000000000E+00 0. -1.
         11    1    1    2    0    0  0.53091587287E+02  0.45220703000E+02 -0.49356975068E+02  0.85438513612E+02  0.00000000000E+00 0.  1.
<mgrwt>
<rscale>  0 0.12568175E+03</rscale>
<asrwt>0</asrwt>
<pdfrwt beam="2">  1        1 0.48162562E-01 0.13438116E+03</pdfrwt>
<pdfrwt beam="1">  1       -1 0.70148493E-02 0.13438116E+03</pdfrwt>
<totfact> 0.82950564E+03</totfact>
</mgrwt>
</event>
<event>
 7    1  0.5928109E-006  0.1384180E+03  0.7546771E-02  0.1227573E+00
          2   -1    0    0  501    0  0.00000000000E+00  0.00000000000E+00  0.11525808922E+04  0.11525808922E+04  0.00000000000E+00 0. -1.
         -2   -1    0    0    0  501 -0.00000000000E+00 -0.00000000000E+00 -0.13259590075E+02  0.13259590075E+02  0.00000000000E+00 0.  1.
         23    2    1    2    0    0  0.20922998934E+02  0.55630144729E+02  0.70198741444E+03  0.71550392478E+03  0.12500820557E+03 0.  0.
          5    1    3    3  502    0 -0.44090635817E+02  0.49754738793E+02  0.46079702111E+03  0.46559156228E+03  0.47000000000E+01 0.  1.
         -5    1    3    3    0  502  0.65013634751E+02  0.58754059358E+01  0.24119039332E+03  0.24991236250E+03  0.47000000000E+01 0.  1.
        -11    1    1    2    0    0 -0.51934121189E+02 -0.25425620975E+02  0.32190134520E+03  0.32705365185E+03  0.00000000000E+00 0. -1.
         11    1    1    2    0    0  0.31011122255E+02 -0.30204523754E+02  0.11543254244E+03  0.12328290560E+03  0.00000000000E+00 0.  1.
<mgrwt>
<rscale>  0 0.12992117E+03</rscale>
<asrwt>0</asrwt>
<pdfrwt beam="1">  1        2 0.17732006E+00 0.13841798E+03</pdfrwt>
<pdfrwt beam="2">  1       -2 0.20399378E-02 0.13841798E+03</pdfrwt>
<totfact> 0.15377154E+04</totfact>
</mgrwt>
</event>
<event>
 7    1  0.5928109E-006  0.1635870E+03  0.7546771E-02  0.1191292E+00
         -1   -1    0    0    0  501 -0.00000000000E+00  0.00000000000E+00  0.19657078343E+03  0.19657078343E+03  0.00000000000E+00 0.  1.
          1   -1    0    0  501    0  0.00000000000E+00 -0.00000000000E+00 -0.15918234091E+03  0.15918234091E+03  0.00000000000E+00 0. -1.
         23    2    1    2    0    0  0.86215235961E+01  0.10516914656E+03 -0.70292131695E+02  0.17804967672E+03  0.12500329414E+03 0.  0.
          5    1    3    3  502    0  0.52568390860E+02  0.10173918130E+03 -0.68833498300E+02  0.13369531487E+03  0.47000000000E+01 0.  1.
         -5    1    3    3    0  502 -0.43946867264E+02  0.34299652575E+01 -0.14586333956E+01  0.44354361853E+02  0.47000000000E+01 0.  1.
        -11    1    1    2    0    0  0.73691593297E+01  0.11831136362E+02 -0.46782628150E+01  0.14702599764E+02  0.00000000000E+00 0. -1.
         11    1    1    2    0    0 -0.15990682926E+02 -0.11700028292E+03  0.11235883703E+03  0.16300084786E+03  0.00000000000E+00 0.  1.
<mgrwt>
<rscale>  0 0.15772309E+03</rscale>
<asrwt>0</asrwt>
<pdfrwt beam="2">  1        1 0.24489591E-01 0.16358699E+03</pdfrwt>
<pdfrwt beam="1">  1       -1 0.30241659E-01 0.16358699E+03</pdfrwt>
<totfact> 0.19450472E+03</totfact>
</mgrwt>
</event>
<event>
 7    1  0.5928109E-006  0.1337725E+03  0.7546771E-02  0.1236948E+00
         -2   -1    0    0    0  501 -0.00000000000E+00  0.00000000000E+00  0.23599409403E+02  0.23599409403E+02  0.00000000000E+00 0. -1.
          2   -1    0    0  501    0  0.00000000000E+00 -0.00000000000E+00 -0.70263184216E+03  0.70263184216E+03  0.00000000000E+00 0.  1.
         23    2    1    2    0    0  0.27310555561E+02  0.39046012050E+02 -0.53819906602E+03  0.55457490402E+03  0.12499852800E+03 0.  0.
          5    1    3    3  502    0  0.42861932619E+01 -0.34499746546E+02 -0.34100143656E+03  0.34280121602E+03  0.47000000000E+01 0. -1.
         -5    1    3    3    0  502  0.23024362299E+02  0.73545758596E+02 -0.19719762945E+03  0.21177368800E+03  0.47000000000E+01 0. -1.
        -11    1    1    2    0    0 -0.39926400400E+02 -0.27386208414E+02 -0.14591819233E+03  0.15374082319E+03  0.00000000000E+00 0.  1.
         11    1    1    2    0    0  0.12615844839E+02 -0.11659803636E+02  0.50848255928E+01  0.17915524361E+02  0.00000000000E+00 0. -1.
<mgrwt>
<rscale>  0 0.12380523E+03</rscale>
<asrwt>0</asrwt>
<pdfrwt beam="2">  1        2 0.10809720E+00 0.13377253E+03</pdfrwt>
<pdfrwt beam="1">  1       -2 0.36306784E-02 0.13377253E+03</pdfrwt>
<totfact> 0.12653818E+04</totfact>
</mgrwt>
</event>
<event>
 7    1  0.5928109E-006  0.1354218E+03  0.7546771E-02  0.1232502E+00
         -1   -1    0    0    0  501 -0.00000000000E+00  0.00000000000E+00  0.31438559290E+02  0.31438559290E+02  0.00000000000E+00 0.  1.
          1   -1    0    0  501    0  0.00000000000E+00 -0.00000000000E+00 -0.50959417090E+03  0.50959417090E+03  0.00000000000E+00 0. -1.
         23    2    1    2    0    0  0.35614966429E+02 -0.38025286862E+02 -0.35576755376E+03  0.38066994642E+03  0.12499883009E+03 0.  0.
          5    1    3    3  502    0  0.73977102026E+02 -0.49612024011E+02 -0.29099165121E+03  0.30435537719E+03  0.47000000000E+01 0.  1.
         -5    1    3    3    0  502 -0.38362135597E+02  0.11586737149E+02 -0.64775902547E+02  0.76314569226E+02  0.47000000000E+01 0.  1.
        -11    1    1    2    0    0  0.29565757657E+02  0.18106360263E+02 -0.32185901994E+02  0.47306517469E+02  0.00000000000E+00 0. -1.
         11    1    1    2    0    0 -0.65180724087E+02  0.19918926598E+02 -0.90202155855E+02  0.11305626630E+03  0.00000000000E+00 0.  1.
<mgrwt>
<rscale>  0 0.12665685E+03</rscale>
<asrwt>0</asrwt>
<pdfrwt beam="2">  1        1 0.78399098E-01 0.13542177E+03</pdfrwt>
<pdfrwt beam="1">  1       -1 0.48367017E-02 0.13542177E+03</pdfrwt>
<totfact> 0.77904012E+03</totfact>
</mgrwt>
</event>
<event>
 7    1  0.5928109E-006  0.1760230E+03  0.7546771E-02  0.1177552E+00
         -2   -1    0    0    0  501 -0.00000000000E+00  0.00000000000E+00  0.74417258272E+02  0.74417258272E+02  0.00000000000E+00 0.  1.
          2   -1    0    0  501    0  0.00000000000E+00 -0.00000000000E+00 -0.39201751385E+03  0.39201751385E+03  0.00000000000E+00 0. -1.
         23    2    1    2    0    0  0.11858395666E+03 -0.36085071805E+02 -0.22827561272E+03  0.28826004076E+03  0.12497923249E+03 0.  0.
          5    1    3    3  502    0  0.74669018316E+02 -0.81974971366E+02 -0.16172006917E+03  0.19613982002E+03  0.47000000000E+01 0.  1.
         -5    1    3    3    0  502  0.43914938349E+02  0.45889899561E+02 -0.66555543548E+02  0.92120220738E+02  0.47000000000E+01 0.  1.
        -11    1    1    2    0    0 -0.81441307199E+02 -0.19978103383E+02 -0.66936327520E+02  0.10729530780E+03  0.00000000000E+00 0. -1.
         11    1    1    2    0    0 -0.37142649466E+02  0.56063175188E+02 -0.22388315345E+02  0.70879423569E+02  0.00000000000E+00 0.  1.
<mgrwt>
<rscale>  0 0.17028431E+03</rscale>
<asrwt>0</asrwt>
<pdfrwt beam="2">  1        2 0.60310386E-01 0.17602300E+03</pdfrwt>
<pdfrwt beam="1">  1       -2 0.11448809E-01 0.17602300E+03</pdfrwt>
<totfact> 0.42540884E+03</totfact>
</mgrwt>
</event>
<event>
 7    1  0.5928109E-006  0.1901333E+03  0.7546771E-02  0.1162798E+00
         -1   -1    0    0    0  501 -0.00000000000E+00  0.00000000000E+00  0.31696185343E+02  0.31696185343E+02  0.00000000000E+00 0.  1.
          1   -1    0    0  501    0  0.00000000000E+00 -0.00000000000E+00 -0.11884810344E+04  0.11884810344E+04  0.00000000000E+00 0. -1.
         23    2    1    2    0    0 -0.21349646725E+02 -0.14167371409E+03 -0.82617996601E+03  0.84777591062E+03  0.12499363863E+03 0.  0.
          5    1    3    3  502    0 -0.14663014422E+02 -0.64264770264E+02 -0.67022222070E+03  0.67347225615E+03  0.47000000000E+01 0. -1.
         -5    1    3    3    0  502 -0.66866323038E+01 -0.77408943824E+02 -0.15595774532E+03  0.17430365447E+03  0.47000000000E+01 0. -1.
        -11    1    1    2    0    0 -0.27346163208E+02  0.24100923159E+02 -0.12848946199E+03  0.13355975809E+03  0.00000000000E+00 0. -1.
         11    1    1    2    0    0  0.48695809933E+02  0.11757279093E+03 -0.20211542103E+03  0.23884155101E+03  0.00000000000E+00 0.  1.
<mgrwt>
<rscale>  0 0.18527033E+03</rscale>
<asrwt>0</asrwt>
<pdfrwt beam="2">  1        1 0.18284321E+00 0.19013326E+03</pdfrwt>
<pdfrwt beam="1">  1       -1 0.48763368E-02 0.19013326E+03</pdfrwt>
<totfact> 0.21267670E+03</totfact>
</mgrwt>
</event>
<event>
 7    1  0.5928109E-006  0.1376005E+03  0.7546771E-02  0.1227494E+00
         -2   -1    0    0    0  501 -0.00000000000E+00  0.00000000000E+00  0.16741873974E+02  0.16741873974E+02  0.00000000000E+00 0.  1.
          2   -1    0    0  501    0  0.00000000000E+00 -0.00000000000E+00 -0.91205401377E+03  0.91205401377E+03  0.00000000000E+00 0. -1.
         23    2    1    2    0    0  0.54723129483E+02  0.17749814850E+02 -0.49792606766E+03  0.51658905943E+03  0.12499684251E+03 0.  0.
          5    1    3    3  502    0 -0.31846051033E+02 -0.19555886650E+02 -0.21666223880E+03  0.21991184459E+03  0.47000000000E+01 0. -1.
         -5    1    3    3    0  502  0.86569180516E+02  0.37305701500E+02 -0.28126382886E+03  0.29667721484E+03  0.47000000000E+01 0. -1.
        -11    1    1    2    0    0 -0.52867330053E+02  0.30242773311E+02 -0.20045642875E+03  0.20950503515E+03  0.00000000000E+00 0.  1.
         11    1    1    2    0    0 -0.18557994300E+01 -0.47992588161E+02 -0.19692964339E+03  0.20270179317E+03  0.00000000000E+00 0. -1.
<mgrwt>
<rscale>  0 0.12997417E+03</rscale>
<asrwt>0</asrwt>
<pdfrwt beam="2">  1        2 0.14031603E+00 0.13760046E+03</pdfrwt>
<pdfrwt beam="1">  1       -2 0.25756725E-02 0.13760046E+03</pdfrwt>
<totfact> 0.15175204E+04</totfact>
</mgrwt>
</event>
<event>
 7    1  0.5928109E-006  0.1509564E+03  0.7546771E-02  0.1208258E+00
         -1   -1    0    0    0  501 -0.00000000000E+00  0.00000000000E+00  0.59599362686E+02  0.59599362686E+02  0.00000000000E+00 0.  1.
          1   -1    0    0  501    0  0.00000000000E+00 -0.00000000000E+00 -0.32308103811E+03  0.32308103811E+03  0.00000000000E+00 0. -1.
         23    2    1    2    0    0 -0.57326679716E+02 -0.62262182891E+02 -0.16785996636E+03  0.22575384575E+03  0.12499961176E+03 0.  0.
          5    1    3    3  502    0 -0.81018774803E+02 -0.79960444221E+02 -0.10003879561E+03  0.15161650681E+03  0.47000000000E+01 0. -1.
         -5    1    3    3    0  502  0.23692095087E+02  0.17698261330E+02 -0.67821170746E+02  0.74137338939E+02  0.47000000000E+01 0. -1.
        -11    1    1    2    0    0 -0.22390938548E+02 -0.13026916202E+01 -0.15698077842E+02  0.27376646662E+02  0.00000000000E+00 0.  1.
         11    1    1    2    0    0  0.79717618265E+02  0.63564874511E+02 -0.79923631219E+02  0.12954990838E+03  0.00000000000E+00 0. -1.
<mgrwt>
<rscale>  0 0.14383630E+03</rscale>
<asrwt>0</asrwt>
<pdfrwt beam="2">  1        1 0.49704775E-01 0.15095639E+03</pdfrwt>
<pdfrwt beam="1">  1       -1 0.91691328E-02 0.15095639E+03</pdfrwt>
<totfact> 0.53613182E+03</totfact>
</mgrwt>
</event>
<event>
 6    1  0.5928109E-006  0.3110354E+03  0.7546771E-02  0.1088113E+00
         -1   -1    0    0    0  501 -0.00000000000E+00  0.00000000000E+00  0.16981389998E+03  0.16981389998E+03  0.00000000000E+00 0.  1.
          1   -1    0    0  501    0  0.00000000000E+00 -0.00000000000E+00 -0.46889425192E+03  0.46889425192E+03  0.00000000000E+00 0. -1.
          5    1    1    2  502    0  0.29554302727E+02  0.78737786347E+02  0.34923403331E+02  0.91185689167E+02  0.47000000000E+01 0. -1.
         -5    1    1    2    0  502 -0.10463150843E+03 -0.10449475573E+03 -0.23812466802E+03  0.28034327895E+03  0.47000000000E+01 0.  1.
        -11    1    1    2    0    0  0.38647093770E+02 -0.95108253680E+02  0.90076194339E+01  0.10305491246E+03  0.00000000000E+00 0.  1.
         11    1    1    2    0    0  0.36430111930E+02  0.12086522306E+03 -0.10488670668E+03  0.16412427133E+03  0.00000000000E+00 0. -1.
<mgrwt>
<rscale>  0 0.29432294E+03</rscale>
<asrwt>0</asrwt>
<pdfrwt beam="2">  1        1 0.72137578E-01 0.31103540E+03</pdfrwt>
<pdfrwt beam="1">  1       -1 0.26125215E-01 0.31103540E+03</pdfrwt>
<totfact> 0.63802617E+02</totfact>
</mgrwt>
</event>
<event>
 7    1  0.5928109E-006  0.1379100E+03  0.7546771E-02  0.1227099E+00
         -1   -1    0    0    0  501 -0.00000000000E+00  0.00000000000E+00  0.44914922862E+02  0.44914922862E+02  0.00000000000E+00 0.  1.
          1   -1    0    0  501    0  0.00000000000E+00 -0.00000000000E+00 -0.64849675790E+03  0.64849675790E+03  0.00000000000E+00 0. -1.
         23    2    1    2    0    0  0.49802227931E+02 -0.30250331651E+02 -0.55770944070E+03  0.57450760388E+03  0.12499528872E+03 0.  0.
          5    1    3    3  502    0  0.21192867222E+01 -0.69702011616E+02 -0.37733836936E+03  0.38375668957E+03  0.47000000000E+01 0. -1.
         -5    1    3    3    0  502  0.47682941208E+02  0.39451679965E+02 -0.18037107134E+03  0.19075091431E+03  0.47000000000E+01 0. -1.
        -11    1    1    2    0    0  0.84837322993E+01  0.46645734145E+02 -0.97614787417E+01  0.48405420098E+02  0.00000000000E+00 0.  1.
         11    1    1    2    0    0 -0.58285960230E+02 -0.16395402494E+02 -0.36110915598E+02  0.70498656783E+02  0.00000000000E+00 0. -1.
<mgrwt>
<rscale>  0 0.13024097E+03</rscale>
<asrwt>0</asrwt>
<pdfrwt beam="2">  1        1 0.99768730E-01 0.13790999E+03</pdfrwt>
<pdfrwt beam="1">  1       -1 0.69099883E-02 0.13790999E+03</pdfrwt>
<totfact> 0.33139596E+03</totfact>
</mgrwt>
</event>
<event>
 7    1  0.1179469E-005  0.1746934E+03  0.7546771E-02  0.1179022E+00
         -1   -1    0    0    0  501 -0.00000000000E+00  0.00000000000E+00  0.15521555074E+02  0.15521555074E+02  0.00000000000E+00 0.  1.
          1   -1    0    0  501    0  0.00000000000E+00 -0.00000000000E+00 -0.20251319090E+04  0.20251319090E+04  0.00000000000E+00 0. -1.
         23    2    1    2    0    0  0.12202751757E+03  0.15725588276E+01 -0.14546551215E+04  0.14651072708E+04  0.12499841705E+03 0.  0.
          5    1    3    3  502    0  0.89103273623E+02 -0.41588028658E+02 -0.54484424234E+03  0.55366623151E+03  0.47000000000E+01 0.  1.
         -5    1    3    3    0  502  0.32924243943E+02  0.43160587485E+02 -0.90981087920E+03  0.91144103927E+03  0.47000000000E+01 0.  1.
        -11    1    1    2    0    0 -0.34495172048E+02 -0.11606940195E+02 -0.44240881810E+02  0.57287813526E+02  0.00000000000E+00 0.  1.
         11    1    1    2    0    0 -0.87532345518E+02  0.10034381367E+02 -0.51071435053E+03  0.51825837972E+03  0.00000000000E+00 0. -1.
<mgrwt>
<rscale>  0 0.16887909E+03</rscale>
<asrwt>0</asrwt>
<pdfrwt beam="2">  1        1 0.31155888E+00 0.17469342E+03</pdfrwt>
<pdfrwt beam="1">  1       -1 0.23879306E-02 0.17469342E+03</pdfrwt>
<totfact> 0.17238186E+03</totfact>
</mgrwt>
</event>
<event>
 7    1  0.5928109E-006  0.1384724E+03  0.7546771E-02  0.1226509E+00
         -4   -1    0    0    0  501 -0.00000000000E+00  0.00000000000E+00  0.88000511629E+03  0.88000511629E+03  0.00000000000E+00 0.  1.
          4   -1    0    0  501    0  0.00000000000E+00 -0.00000000000E+00 -0.17530430516E+02  0.17530430516E+02  0.00000000000E+00 0. -1.
         23    2    1    2    0    0 -0.16020664527E+02 -0.57417260545E+02  0.46177703545E+03  0.48209195151E+03  0.12498486208E+03 0.  0.
          5    1    3    3  502    0 -0.14529316035E+02 -0.97135154131E+02  0.31886562915E+03  0.33368206222E+03  0.47000000000E+01 0. -1.
         -5    1    3    3    0  502 -0.14913484925E+01  0.39717893586E+02  0.14291140630E+03  0.14840988930E+03  0.47000000000E+01 0. -1.
        -11    1    1    2    0    0 -0.12058836472E+02 -0.13493028517E+02  0.19148480762E+02  0.26346568489E+02  0.00000000000E+00 0. -1.
         11    1    1    2    0    0  0.28079500999E+02  0.70910289063E+02  0.38154916956E+03  0.38909702680E+03  0.00000000000E+00 0.  1.
<mgrwt>
<rscale>  0 0.13064033E+03</rscale>
<asrwt>0</asrwt>
<pdfrwt beam="2">  1        4 0.26969900E-02 0.13847245E+03</pdfrwt>
<pdfrwt beam="1">  1       -4 0.13538537E+00 0.13847245E+03</pdfrwt>
<totfact> 0.44000118E+02</totfact>
</mgrwt>
</event>
<event>
 7    1  0.5928109E-006  0.1347601E+03  0.7546771E-02  0.1238158E+00
          1   -1    0    0  501    0  0.00000000000E+00  0.00000000000E+00  0.21309922652E+03  0.21309922652E+03  0.00000000000E+00 0. -1.
         -1   -1    0    0    0  501 -0.00000000000E+00 -0.00000000000E+00 -0.61836748395E+02  0.61836748395E+02  0.00000000000E+00 0.  1.
         23    2    1    2    0    0 -0.11291083944E+02  0.49081122897E+02  0.10270077409E+03  0.16943354750E+03  0.12499533119E+03 0.  0.
          5    1    3    3  502    0 -0.55460439663E+02  0.29296873706E+02  0.85629418450E+01  0.63478981951E+02  0.47000000000E+01 0.  1.
         -5    1    3    3    0  502  0.44169355718E+02  0.19784249192E+02  0.94137832247E+02  0.10595456555E+03  0.47000000000E+01 0.  1.
        -11    1    1    2    0    0 -0.34001744617E+02 -0.16025481083E+02  0.19622164884E+02  0.42402406013E+02  0.00000000000E+00 0.  1.
         11    1    1    2    0    0  0.45292828562E+02 -0.33055641814E+02  0.28939539151E+02  0.63100021404E+02  0.00000000000E+00 0. -1.
<mgrwt>
<rscale>  0 0.12304430E+03</rscale>
<asrwt>0</asrwt>
<pdfrwt beam="1">  1        1 0.32784496E-01 0.13476008E+03</pdfrwt>
<pdfrwt beam="2">  1       -1 0.95133460E-02 0.13476008E+03</pdfrwt>
<totfact> 0.84281770E+03</totfact>
</mgrwt>
</event>
<event>
 7    1  0.5928109E-006  0.2422726E+03  0.7546771E-02  0.1119754E+00
          1   -1    0    0  501    0  0.00000000000E+00  0.00000000000E+00  0.33186014237E+03  0.33186014237E+03  0.00000000000E+00 0. -1.
         -1   -1    0    0    0  501 -0.00000000000E+00 -0.00000000000E+00 -0.22014011564E+03  0.22014011564E+03  0.00000000000E+00 0.  1.
         23    2    1    2    0    0  0.17772037861E+03 -0.12022691682E+03  0.18763716741E+03  0.30643711049E+03  0.11250311813E+03 0.  0.
          5    1    3    3  502    0  0.16338449720E+03 -0.80901275288E+02  0.97177560457E+02  0.20665207118E+03  0.47000000000E+01 0. -1.
         -5    1    3    3    0  502  0.14335881407E+02 -0.39325641535E+02  0.90459606958E+02  0.99785039304E+02  0.47000000000E+01 0.  1.
        -11    1    1    2    0    0 -0.53977368377E+01 -0.11114119011E+02 -0.17019431307E+02  0.21031410946E+02  0.00000000000E+00 0. -1.
         11    1    1    2    0    0 -0.17232264177E+03  0.13134103583E+03 -0.58897709370E+02  0.22453173657E+03  0.00000000000E+00 0.  1.
<mgrwt>
<rscale>  0 0.24005758E+03</rscale>
<asrwt>0</asrwt>
<pdfrwt beam="1">  1        1 0.51055407E-01 0.24227257E+03</pdfrwt>
<pdfrwt beam="2">  1       -1 0.33867710E-01 0.24227257E+03</pdfrwt>
<totfact> 0.64080489E+02</totfact>
</mgrwt>
</event>
<event>
 7    1  0.5928109E-006  0.1638111E+03  0.7546771E-02  0.1191771E+00
         -2   -1    0    0    0  501 -0.00000000000E+00  0.00000000000E+00  0.10366297747E+02  0.10366297747E+02  0.00000000000E+00 0.  1.
          2   -1    0    0  501    0  0.00000000000E+00 -0.00000000000E+00 -0.27352838402E+04  0.27352838402E+04  0.00000000000E+00 0. -1.
         23    2    1    2    0    0  0.95119218033E+01  0.10544363391E+03 -0.20483734581E+04  0.20549131095E+04  0.12500090807E+03 0.  0.
          5    1    3    3  502    0  0.47859840324E+00 -0.25983477258E+02 -0.59111272945E+03  0.59170239062E+03  0.47000000000E+01 0. -1.
         -5    1    3    3    0  502  0.90333234001E+01  0.13142711117E+03 -0.14572607287E+04  0.14632107189E+04  0.47000000000E+01 0. -1.
        -11    1    1    2    0    0 -0.12543849429E+02 -0.11765446560E+03 -0.65645659566E+03  0.66703461936E+03  0.00000000000E+00 0. -1.
         11    1    1    2    0    0  0.30319276257E+01  0.12210831693E+02 -0.20087488619E+02  0.23702409050E+02  0.00000000000E+00 0.  1.
<mgrwt>
<rscale>  0 0.15730724E+03</rscale>
<asrwt>0</asrwt>
<pdfrwt beam="2">  1        2 0.42081251E+00 0.16381106E+03</pdfrwt>
<pdfrwt beam="1">  1       -2 0.15948165E-02 0.16381106E+03</pdfrwt>
<totfact> 0.32260962E+03</totfact>
</mgrwt>
</event>
<event>
 7    1  0.5928109E-006  0.1524031E+03  0.7546771E-02  0.1206952E+00
          4   -1    0    0  501    0  0.00000000000E+00  0.00000000000E+00  0.59239306430E+03  0.59239306430E+03  0.00000000000E+00 0. -1.
         -4   -1    0    0    0  501 -0.00000000000E+00 -0.00000000000E+00 -0.52320281177E+02  0.52320281177E+02  0.00000000000E+00 0.  1.
         23    2    1    2    0    0  0.82935296943E+02 -0.26902271308E+02  0.48559825083E+03  0.50895222531E+03  0.12499884304E+03 0.  0.
          5    1    3    3  502    0  0.41667017827E+02  0.19660360238E+02  0.40188023962E+03  0.40453984617E+03  0.47000000000E+01 0.  1.
         -5    1    3    3    0  502  0.41268279116E+02 -0.46562631546E+02  0.83718011206E+02  0.10441237914E+03  0.47000000000E+01 0.  1.
        -11    1    1    2    0    0 -0.34315317800E+01  0.42197605999E+02  0.10465272131E+02  0.43611183006E+02  0.00000000000E+00 0.  1.
         11    1    1    2    0    0 -0.79503765163E+02 -0.15295334691E+02  0.44009260163E+02  0.92149937159E+02  0.00000000000E+00 0. -1.
<mgrwt>
<rscale>  0 0.14484690E+03</rscale>
<asrwt>0</asrwt>
<pdfrwt beam="1">  1        4 0.91137390E-01 0.15240311E+03</pdfrwt>
<pdfrwt beam="2">  1       -4 0.80492745E-02 0.15240311E+03</pdfrwt>
<totfact> 0.19737430E+02</totfact>
</mgrwt>
</event>
<event>
 7    1  0.5928109E-006  0.1312991E+03  0.7546771E-02  0.1240032E+00
          3   -1    0    0  501    0  0.00000000000E+00  0.00000000000E+00  0.12632106760E+03  0.12632106760E+03  0.00000000000E+00 0. -1.
         -3   -1    0    0    0  501 -0.00000000000E+00 -0.00000000000E+00 -0.11176516262E+03  0.11176516262E+03  0.00000000000E+00 0.  1.
         23    2    1    2    0    0  0.29804861644E+02 -0.26953939768E+02  0.40155624511E+02  0.13730236756E+03  0.12499848524E+03 0.  0.
          5    1    3    3  502    0  0.53406656536E+02  0.33990988880E+02  0.69936109948E+01  0.63864378820E+02  0.47000000000E+01 0.  1.
         -5    1    3    3    0  502 -0.23601794892E+02 -0.60944928647E+02  0.33162013516E+02  0.73437988741E+02  0.47000000000E+01 0.  1.
        -11    1    1    2    0    0  0.19964712199E+02 -0.16258573736E+02  0.77864047474E+01  0.26899052994E+02  0.00000000000E+00 0. -1.
         11    1    1    2    0    0 -0.49769573843E+02  0.43212513503E+02 -0.33386124278E+02  0.73884809657E+02  0.00000000000E+00 0.  1.
<mgrwt>
<rscale>  0 0.12187750E+03</rscale>
<asrwt>0</asrwt>
<pdfrwt beam="1">  1        3 0.19434011E-01 0.13129915E+03</pdfrwt>
<pdfrwt beam="2">  1       -3 0.17194640E-01 0.13129915E+03</pdfrwt>
<totfact> 0.15795985E+03</totfact>
</mgrwt>
</event>
<event>
 7    1  0.5928109E-006  0.1463374E+03  0.7546771E-02  0.1215173E+00
         -1   -1    0    0    0  501 -0.00000000000E+00  0.00000000000E+00  0.18662827600E+03  0.18662827600E+03  0.00000000000E+00 0.  1.
          1   -1    0    0  501    0  0.00000000000E+00 -0.00000000000E+00 -0.97446451620E+02  0.97446451620E+02  0.00000000000E+00 0. -1.
         23    2    1    2    0    0  0.65296698043E+02  0.39069350469E+02  0.20847486527E+02  0.14781492453E+03  0.12499824518E+03 0.  0.
          5    1    3    3  502    0 -0.18785514642E+02 -0.11741838997E+02 -0.29605983447E+02  0.37274261887E+02  0.47000000000E+01 0.  1.
         -5    1    3    3    0  502  0.84082212685E+02  0.50811189466E+02  0.50453469974E+02  0.11054066264E+03  0.47000000000E+01 0.  1.
        -11    1    1    2    0    0 -0.60709966861E+02 -0.59183061790E+02  0.76381289213E+02  0.11411588943E+03  0.00000000000E+00 0.  1.
         11    1    1    2    0    0 -0.45867311820E+01  0.20113711321E+02 -0.80469513582E+01  0.22143913660E+02  0.00000000000E+00 0. -1.
<mgrwt>
<rscale>  0 0.13863798E+03</rscale>
<asrwt>0</asrwt>
<pdfrwt beam="2">  1        1 0.14991762E-01 0.14633740E+03</pdfrwt>
<pdfrwt beam="1">  1       -1 0.28712043E-01 0.14633740E+03</pdfrwt>
<totfact> 0.39570695E+03</totfact>
</mgrwt>
</event>
<event>
 7    1  0.5928109E-006  0.1658935E+03  0.7546771E-02  0.1189291E+00
          2   -1    0    0  501    0  0.00000000000E+00  0.00000000000E+00  0.83559897591E+03  0.83559897591E+03  0.00000000000E+00 0. -1.
         -2   -1    0    0    0  501 -0.00000000000E+00 -0.00000000000E+00 -0.28737246526E+02  0.28737246526E+02  0.00000000000E+00 0.  1.
         23    2    1    2    0    0 -0.55542415441E+02 -0.93867324706E+02  0.48776907838E+03  0.51520802785E+03  0.12499841428E+03 0.  0.
          5    1    3    3  502    0 -0.66589297151E+02  0.11330793794E+01  0.25301666899E+03  0.26167717353E+03  0.47000000000E+01 0. -1.
         -5    1    3    3    0  502  0.11046881710E+02 -0.95000404085E+02  0.23475240940E+03  0.25353085431E+03  0.47000000000E+01 0. -1.
        -11    1    1    2    0    0  0.22495362958E+02  0.35387904304E+02  0.24722876670E+03  0.25075966225E+03  0.00000000000E+00 0.  1.
         11    1    1    2    0    0  0.33047052483E+02  0.58479420401E+02  0.71863884301E+02  0.98368532342E+02  0.00000000000E+00 0. -1.
<mgrwt>
<rscale>  0 0.15947455E+03</rscale>
<asrwt>0</asrwt>
<pdfrwt beam="1">  1        2 0.12855367E+00 0.16589345E+03</pdfrwt>
<pdfrwt beam="2">  1       -2 0.44211155E-02 0.16589345E+03</pdfrwt>
<totfact> 0.77219354E+03</totfact>
</mgrwt>
</event>
<event>
 7    1  0.5928109E-006  0.1445552E+03  0.7546771E-02  0.1216775E+00
          2   -1    0    0  501    0  0.00000000000E+00  0.00000000000E+00  0.13942902370E+03  0.13942902370E+03  0.00000000000E+00 0. -1.
         -2   -1    0    0    0  501 -0.00000000000E+00 -0.00000000000E+00 -0.14747702472E+03  0.14747702472E+03  0.00000000000E+00 0.  1.
         23    2    1    2    0    0 -0.24104810388E+02 -0.68483391704E+02  0.52852296558E+02  0.15391417955E+03  0.12500077036E+03 0.  0.
          5    1    3    3  502    0 -0.45184482792E+02  0.12286410998E+02  0.52230541992E+02  0.70304430139E+02  0.47000000000E+01 0. -1.
         -5    1    3    3    0  502  0.21079672404E+02 -0.80769802702E+02  0.62175456551E+00  0.83609749407E+02  0.47000000000E+01 0. -1.
        -11    1    1    2    0    0 -0.31233730601E+02  0.35508411763E+02 -0.47349598868E+01  0.47526972114E+02  0.00000000000E+00 0.  1.
         11    1    1    2    0    0  0.55338540989E+02  0.32974979941E+02 -0.56165337695E+02  0.85464896766E+02  0.00000000000E+00 0. -1.
<mgrwt>
<rscale>  0 0.13746936E+03</rscale>
<asrwt>0</asrwt>
<pdfrwt beam="1">  1        2 0.21450619E-01 0.14455521E+03</pdfrwt>
<pdfrwt beam="2">  1       -2 0.22688773E-01 0.14455521E+03</pdfrwt>
<totfact> 0.41553530E+03</totfact>
</mgrwt>
</event>
<event>
 7    1  0.5928109E-006  0.1316286E+03  0.7546771E-02  0.1238331E+00
          1   -1    0    0  501    0  0.00000000000E+00  0.00000000000E+00  0.74304963833E+03  0.74304963833E+03  0.00000000000E+00 0. -1.
         -1   -1    0    0    0  501 -0.00000000000E+00 -0.00000000000E+00 -0.18566449393E+02  0.18566449393E+02  0.00000000000E+00 0.  1.
         23    2    1    2    0    0  0.28636163644E+01  0.41139589167E+02  0.47153729382E+03  0.48956462369E+03  0.12500174083E+03 0.  0.
          5    1    3    3  502    0  0.34036746305E+02  0.68432143980E+02  0.18829858824E+03  0.20327298581E+03  0.47000000000E+01 0.  1.
         -5    1    3    3    0  502 -0.31173129941E+02 -0.27292554814E+02  0.28323870558E+03  0.28629163787E+03  0.47000000000E+01 0.  1.
        -11    1    1    2    0    0  0.33065128840E+02  0.77269155562E+01  0.13763456215E+03  0.14176135110E+03  0.00000000000E+00 0. -1.
         11    1    1    2    0    0 -0.35928745205E+02 -0.48866504723E+02  0.11531133297E+03  0.13029011293E+03  0.00000000000E+00 0.  1.
<mgrwt>
<rscale>  0 0.12293554E+03</rscale>
<asrwt>0</asrwt>
<pdfrwt beam="1">  1        1 0.11431531E+00 0.13162865E+03</pdfrwt>
<pdfrwt beam="2">  1       -1 0.28563774E-02 0.13162865E+03</pdfrwt>
<totfact> 0.10013705E+04</totfact>
</mgrwt>
</event>
<event>
 7    1  0.5928109E-006  0.1290084E+03  0.7546771E-02  0.1243571E+00
         -2   -1    0    0    0  501 -0.00000000000E+00  0.00000000000E+00  0.61331963947E+02  0.61331963947E+02  0.00000000000E+00 0.  1.
          2   -1    0    0  501    0  0.00000000000E+00 -0.00000000000E+00 -0.21341704571E+03  0.21341704571E+03  0.00000000000E+00 0. -1.
         23    2    1    2    0    0  0.25849328657E+01 -0.31797910200E+02 -0.11270164570E+03  0.17130329990E+03  0.12500148256E+03 0.  0.
          5    1    3    3  502    0 -0.24210360139E+02 -0.80797407832E+01 -0.12908424693E+03  0.13166721898E+03  0.47000000000E+01 0.  1.
         -5    1    3    3    0  502  0.26795293004E+02 -0.23718169417E+02  0.16382601229E+02  0.39636080920E+02  0.47000000000E+01 0.  1.
        -11    1    1    2    0    0  0.51547851866E+00 -0.25310960475E+02  0.10641628974E+02  0.27461877312E+02  0.00000000000E+00 0.  1.
         11    1    1    2    0    0 -0.31004113844E+01  0.57108870675E+02 -0.50025065029E+02  0.75983832436E+02  0.00000000000E+00 0. -1.
<mgrwt>
<rscale>  0 0.11971286E+03</rscale>
<asrwt>0</asrwt>
<pdfrwt beam="2">  1        2 0.32833392E-01 0.12900837E+03</pdfrwt>
<pdfrwt beam="1">  1       -2 0.94356868E-02 0.12900837E+03</pdfrwt>
<totfact> 0.10839899E+04</totfact>
</mgrwt>
</event>
<event>
 7    1  0.5928109E-006  0.1274530E+03  0.7546771E-02  0.1245351E+00
          2   -1    0    0  501    0  0.00000000000E+00  0.00000000000E+00  0.72182580988E+02  0.72182580988E+02  0.00000000000E+00 0. -1.
         -2   -1    0    0    0  501 -0.00000000000E+00 -0.00000000000E+00 -0.20622881557E+03  0.20622881557E+03  0.00000000000E+00 0.  1.
         23    2    1    2    0    0 -0.23323268993E+02 -0.93412485000E+01 -0.19160680633E+02  0.12888520860E+03  0.12495211688E+03 0.  0.
          5    1    3    3  502    0 -0.61660548897E+02  0.25938768807E+01 -0.48750085926E+02  0.78787133248E+02  0.47000000000E+01 0.  1.
         -5    1    3    3    0  502  0.38337279904E+02 -0.11935125381E+02  0.29589405293E+02  0.50098075351E+02  0.47000000000E+01 0.  1.
        -11    1    1    2    0    0  0.20514642709E+02 -0.20001202525E+02 -0.11653312404E+03  0.12000361522E+03  0.00000000000E+00 0.  1.
         11    1    1    2    0    0  0.28086262841E+01  0.29342451025E+02  0.16475700913E+01  0.29522572736E+02  0.00000000000E+00 0. -1.
<mgrwt>
<rscale>  0 0.11864402E+03</rscale>
<asrwt>0</asrwt>
<pdfrwt beam="1">  1        2 0.11105013E-01 0.12745299E+03</pdfrwt>
<pdfrwt beam="2">  1       -2 0.31727509E-01 0.12745299E+03</pdfrwt>
<totfact> 0.49143047E+03</totfact>
</mgrwt>
</event>
<event>
 7    1  0.5928109E-006  0.1757636E+03  0.7546771E-02  0.1177834E+00
          1   -1    0    0  501    0  0.00000000000E+00  0.00000000000E+00  0.11751043619E+04  0.11751043619E+04  0.00000000000E+00 0. -1.
         -1   -1    0    0    0  501 -0.00000000000E+00 -0.00000000000E+00 -0.33258885101E+02  0.33258885101E+02  0.00000000000E+00 0.  1.
         23    2    1    2    0    0 -0.11337946439E+03 -0.49101871903E+02  0.93041424594E+03  0.94687038244E+03  0.12500782109E+03 0.  0.
          5    1    3    3  502    0 -0.80859376902E+02 -0.68171985821E+02  0.36133789197E+03  0.37652731727E+03  0.47000000000E+01 0.  1.
         -5    1    3    3    0  502 -0.32520087483E+02  0.19070113918E+02  0.56907635397E+03  0.57034306517E+03  0.47000000000E+01 0.  1.
        -11    1    1    2    0    0  0.61623330888E+02  0.45269366824E+01  0.17168406901E+03  0.18246464758E+03  0.00000000000E+00 0. -1.
         11    1    1    2    0    0  0.51756133498E+02  0.44574935220E+02  0.39747161868E+02  0.79028216993E+02  0.00000000000E+00 0.  1.
<mgrwt>
<rscale>  0 0.17001366E+03</rscale>
<asrwt>0</asrwt>
<pdfrwt beam="1">  1        1 0.18078525E+00 0.17576363E+03</pdfrwt>
<pdfrwt beam="2">  1       -1 0.51167525E-02 0.17576363E+03</pdfrwt>
<totfact> 0.20210059E+03</totfact>
</mgrwt>
</event>
<event>
 7    1  0.5928109E-006  0.1324788E+03  0.7546771E-02  0.1236850E+00
          1   -1    0    0  501    0  0.00000000000E+00  0.00000000000E+00  0.20849055643E+04  0.20849055643E+04  0.00000000000E+00 0. -1.
         -1   -1    0    0    0  501 -0.00000000000E+00 -0.00000000000E+00 -0.88571200370E+01  0.88571200370E+01  0.00000000000E+00 0.  1.
         23    2    1    2    0    0 -0.43656891873E+01  0.43684717207E+02  0.16713177189E+04  0.16765600347E+04  0.12499287426E+03 0.  0.
          5    1    3    3  502    0  0.78173842544E+01  0.70471094436E+02  0.15502874945E+04  0.15519151692E+04  0.47000000000E+01 0. -1.
         -5    1    3    3    0  502 -0.12183073442E+02 -0.26786377229E+02  0.12103022441E+03  0.12464486554E+03  0.47000000000E+01 0. -1.
        -11    1    1    2    0    0 -0.24947453956E+02  0.10184514162E+02  0.46360559470E+02  0.53622768131E+02  0.00000000000E+00 0.  1.
         11    1    1    2    0    0  0.29313143144E+02 -0.53869231369E+02  0.35837016589E+03  0.36357988153E+03  0.00000000000E+00 0. -1.
<mgrwt>
<rscale>  0 0.12386712E+03</rscale>
<asrwt>0</asrwt>
<pdfrwt beam="1">  1        1 0.32075431E+00 0.13247880E+03</pdfrwt>
<pdfrwt beam="2">  1       -1 0.13626355E-02 0.13247880E+03</pdfrwt>
<totfact> 0.35464197E+03</totfact>
</mgrwt>
</event>
<event>
 7    1  0.5928109E-006  0.1262217E+03  0.7546771E-02  0.1260343E+00
         -2   -1    0    0    0  501 -0.00000000000E+00  0.00000000000E+00  0.26113903713E+02  0.26113903713E+02  0.00000000000E+00 0.  1.
          2   -1    0    0  501    0  0.00000000000E+00 -0.00000000000E+00 -0.39745414995E+03  0.39745414995E+03  0.00000000000E+00 0. -1.
         23    2    1    2    0    0  0.15957371395E+02  0.72862519531E+01 -0.27527748278E+03  0.30283593104E+03  0.12499672567E+03 0.  0.
          5    1    3    3  502    0  0.61125166399E+02  0.20687948529E+02 -0.85390949903E+02  0.10713534201E+03  0.47000000000E+01 0. -1.
         -5    1    3    3    0  502 -0.45167795004E+02 -0.13401696575E+02 -0.18988653288E+03  0.19570058903E+03  0.47000000000E+01 0. -1.
        -11    1    1    2    0    0 -0.30606304926E+02  0.65974144600E+01 -0.10810078261E+02  0.33122946288E+02  0.00000000000E+00 0.  1.
         11    1    1    2    0    0  0.14648933531E+02 -0.13883666413E+02 -0.85252685190E+02  0.87609176339E+02  0.00000000000E+00 0. -1.
<mgrwt>
<rscale>  0 0.11012256E+03</rscale>
<asrwt>0</asrwt>
<pdfrwt beam="2">  1        2 0.61146792E-01 0.12622166E+03</pdfrwt>
<pdfrwt beam="1">  1       -2 0.40175236E-02 0.12622166E+03</pdfrwt>
<totfact> 0.20437743E+04</totfact>
</mgrwt>
</event>
<event>
 7    1  0.5928109E-006  0.1980131E+03  0.7546771E-02  0.1156227E+00
          2   -1    0    0  501    0  0.00000000000E+00  0.00000000000E+00  0.31520564850E+03  0.31520564850E+03  0.00000000000E+00 0. -1.
         -2   -1    0    0    0  501 -0.00000000000E+00 -0.00000000000E+00 -0.11158792425E+03  0.11158792425E+03  0.00000000000E+00 0.  1.
         23    2    1    2    0    0  0.11317625585E+03 -0.10380735820E+03  0.10029745459E+03  0.22196571027E+03  0.12499745851E+03 0.  0.
          5    1    3    3  502    0  0.10125928578E+03 -0.20473919506E+02  0.19596125028E+02  0.10525551032E+03  0.47000000000E+01 0.  1.
         -5    1    3    3    0  502  0.11916970072E+02 -0.83333438694E+02  0.80701329561E+02  0.11671019995E+03  0.47000000000E+01 0.  1.
        -11    1    1    2    0    0 -0.99925333310E+02  0.87048537000E+02  0.40652986153E+02  0.13861884906E+03  0.00000000000E+00 0.  1.
         11    1    1    2    0    0 -0.13250922541E+02  0.16758821201E+02  0.62667283501E+02  0.66209013417E+02  0.00000000000E+00 0. -1.
<mgrwt>
<rscale>  0 0.19249867E+03</rscale>
<asrwt>0</asrwt>
<pdfrwt beam="1">  1        2 0.48493176E-01 0.19801312E+03</pdfrwt>
<pdfrwt beam="2">  1       -2 0.17167373E-01 0.19801312E+03</pdfrwt>
<totfact> 0.27861462E+03</totfact>
</mgrwt>
</event>
<event>
 7    1  0.5928109E-006  0.1405238E+03  0.7546771E-02  0.1223449E+00
          1   -1    0    0  501    0  0.00000000000E+00  0.00000000000E+00  0.10435748589E+03  0.10435748589E+03  0.00000000000E+00 0. -1.
         -1   -1    0    0    0  501 -0.00000000000E+00 -0.00000000000E+00 -0.20040874840E+03  0.20040874840E+03  0.00000000000E+00 0.  1.
         23    2    1    2    0    0 -0.39772228413E+02 -0.50406726125E+02  0.21876033562E+02  0.14221641642E+03  0.12499712022E+03 0.  0.
          5    1    3    3  502    0 -0.72843557484E+02  0.32850266769E+01 -0.55732682224E+01  0.73281147548E+02  0.47000000000E+01 0. -1.
         -5    1    3    3    0  502  0.33071329072E+02 -0.53691752802E+02  0.27449301784E+02  0.68935268868E+02  0.47000000000E+01 0. -1.
        -11    1    1    2    0    0 -0.15402073963E+02  0.49728074160E+02 -0.80532823743E+02  0.95893904614E+02  0.00000000000E+00 0.  1.
         11    1    1    2    0    0  0.55174302376E+02  0.67865196490E+00 -0.37394472333E+02  0.66655913258E+02  0.00000000000E+00 0. -1.
<mgrwt>
<rscale>  0 0.13273759E+03</rscale>
<asrwt>0</asrwt>
<pdfrwt beam="1">  1        1 0.16054998E-01 0.14052384E+03</pdfrwt>
<pdfrwt beam="2">  1       -1 0.30832115E-01 0.14052384E+03</pdfrwt>
<totfact> 0.32058588E+03</totfact>
</mgrwt>
</event>
<event>
 7    1  0.5928109E-006  0.2294355E+03  0.7546771E-02  0.1130105E+00
         -2   -1    0    0    0  501 -0.00000000000E+00  0.00000000000E+00  0.14504369643E+03  0.14504369643E+03  0.00000000000E+00 0.  1.
          2   -1    0    0  501    0  0.00000000000E+00 -0.00000000000E+00 -0.37048154233E+03  0.37048154233E+03  0.00000000000E+00 0. -1.
         23    2    1    2    0    0  0.65303458081E+02  0.18097134880E+03 -0.19401796561E+03  0.30047230192E+03  0.12500185005E+03 0.  0.
          5    1    3    3  502    0  0.64068552843E+02  0.10484173670E+03 -0.18708446689E+03  0.22387330562E+03  0.47000000000E+01 0.  1.
         -5    1    3    3    0  502  0.12349052383E+01  0.76129612102E+02 -0.69334987255E+01  0.76598996301E+02  0.47000000000E+01 0.  1.
        -11    1    1    2    0    0  0.37416533455E+01 -0.75938053445E+02 -0.45446951439E+02  0.88577724772E+02  0.00000000000E+00 0. -1.
         11    1    1    2    0    0 -0.69045111426E+02 -0.10503329535E+03  0.14027071148E+02  0.12647521208E+03  0.00000000000E+00 0.  1.
<mgrwt>
<rscale>  0 0.22514401E+03</rscale>
<asrwt>0</asrwt>
<pdfrwt beam="2">  1        2 0.56997160E-01 0.22943547E+03</pdfrwt>
<pdfrwt beam="1">  1       -2 0.22314415E-01 0.22943547E+03</pdfrwt>
<totfact> 0.15032611E+03</totfact>
</mgrwt>
</event>
<event>
 7    1  0.5928109E-006  0.1277406E+03  0.7546771E-02  0.1239498E+00
          1   -1    0    0  501    0  0.00000000000E+00  0.00000000000E+00  0.37388841211E+02  0.37388841211E+02  0.00000000000E+00 0. -1.
         -1   -1    0    0    0  501 -0.00000000000E+00 -0.00000000000E+00 -0.37030200780E+03  0.37030200780E+03  0.00000000000E+00 0.  1.
         23    2    1    2    0    0 -0.20313496085E+02  0.50610673638E+02 -0.16680384853E+03  0.21009801401E+03  0.11551438524E+03 0.  0.
          5    1    3    3  502    0  0.22740595787E+02 -0.28499274261E+02 -0.59325635299E+02  0.69792294229E+02  0.47000000000E+01 0. -1.
         -5    1    3    3    0  502 -0.43054091872E+02  0.79109947899E+02 -0.10747821324E+03  0.14030571978E+03  0.47000000000E+01 0.  1.
        -11    1    1    2    0    0 -0.18409144592E+02 -0.28810784588E+02 -0.14391636636E+03  0.14792186592E+03  0.00000000000E+00 0.  1.
         11    1    1    2    0    0  0.38722640677E+02 -0.21799889050E+02 -0.22192951693E+02  0.49670969070E+02  0.00000000000E+00 0. -1.
<mgrwt>
<rscale>  0 0.12220818E+03</rscale>
<asrwt>0</asrwt>
<pdfrwt beam="1">  1        1 0.57521295E-02 0.12774056E+03</pdfrwt>
<pdfrwt beam="2">  1       -1 0.56969538E-01 0.12774056E+03</pdfrwt>
<totfact> 0.41956274E+03</totfact>
</mgrwt>
</event>
<event>
 7    1  0.5928109E-006  0.1515947E+03  0.7546771E-02  0.1208171E+00
         -2   -1    0    0    0  501 -0.00000000000E+00  0.00000000000E+00  0.33905426487E+02  0.33905426487E+02  0.00000000000E+00 0.  1.
          2   -1    0    0  501    0  0.00000000000E+00 -0.00000000000E+00 -0.66318138556E+03  0.66318138556E+03  0.00000000000E+00 0. -1.
         23    2    1    2    0    0  0.79820132037E+02 -0.31367685630E+02 -0.48128324482E+03  0.50459342848E+03  0.12500312455E+03 0.  0.
          5    1    3    3  502    0  0.46385230466E+02  0.25427222634E+02 -0.69107563321E+02  0.87155484993E+02  0.47000000000E+01 0.  1.
         -5    1    3    3    0  502  0.33434901571E+02 -0.56794908264E+02 -0.41217568150E+03  0.41743794349E+03  0.47000000000E+01 0.  1.
        -11    1    1    2    0    0 -0.25771807426E+02  0.15177113572E+02  0.41784222405E+01  0.30199172949E+02  0.00000000000E+00 0.  1.
         11    1    1    2    0    0 -0.54048324611E+02  0.16190572058E+02 -0.15217113649E+03  0.16229421061E+03  0.00000000000E+00 0. -1.
<mgrwt>
<rscale>  0 0.14390350E+03</rscale>
<asrwt>0</asrwt>
<pdfrwt beam="2">  1        2 0.10202791E+00 0.15159474E+03</pdfrwt>
<pdfrwt beam="1">  1       -2 0.52162191E-02 0.15159474E+03</pdfrwt>
<totfact> 0.79465611E+03</totfact>
</mgrwt>
</event>
<event>
 7    1  0.5928109E-006  0.1396609E+03  0.7546771E-02  0.1224763E+00
         -1   -1    0    0    0  501 -0.00000000000E+00  0.00000000000E+00  0.28535289546E+03  0.28535289546E+03  0.00000000000E+00 0.  1.
          1   -1    0    0  501    0  0.00000000000E+00 -0.00000000000E+00 -0.55074985956E+02  0.55074985956E+02  0.00000000000E+00 0. -1.
         23    2    1    2    0    0  0.30904019328E+02  0.54081635650E+02  0.12184554379E+03  0.18534155650E+03  0.12500109718E+03 0.  0.
          5    1    3    3  502    0 -0.28946118256E+02  0.48718302537E+02  0.92255897360E+01  0.57606876935E+02  0.47000000000E+01 0. -1.
         -5    1    3    3    0  502  0.59850137584E+02  0.53633331129E+01  0.11261995406E+03  0.12773467956E+03  0.47000000000E+01 0. -1.
        -11    1    1    2    0    0  0.25040303699E+02 -0.18536340335E+02  0.74225091113E+02  0.80498303542E+02  0.00000000000E+00 0.  1.
         11    1    1    2    0    0 -0.55944323027E+02 -0.35545295315E+02  0.34207274602E+02  0.74588021382E+02  0.00000000000E+00 0. -1.
<mgrwt>
<rscale>  0 0.13183130E+03</rscale>
<asrwt>0</asrwt>
<pdfrwt beam="2">  1        1 0.84730749E-02 0.13966086E+03</pdfrwt>
<pdfrwt beam="1">  1       -1 0.43900445E-01 0.13966086E+03</pdfrwt>
<totfact> 0.40273381E+03</totfact>
</mgrwt>
</event>
<event>
 7    1  0.5928109E-006  0.1427491E+03  0.7546771E-02  0.1220021E+00
         -1   -1    0    0    0  501 -0.00000000000E+00  0.00000000000E+00  0.22833635816E+03  0.22833635816E+03  0.00000000000E+00 0.  1.
          1   -1    0    0  501    0  0.00000000000E+00 -0.00000000000E+00 -0.11914494034E+03  0.11914494034E+03  0.00000000000E+00 0. -1.
         23    2    1    2    0    0 -0.44011289307E+02 -0.53068231443E+02 -0.50035317829E+02  0.15126413541E+03  0.12499629937E+03 0.  0.
          5    1    3    3  502    0 -0.67471337599E+02  0.14406522843E+02 -0.37228252223E+02  0.78536374130E+02  0.47000000000E+01 0. -1.
         -5    1    3    3    0  502  0.23460048292E+02 -0.67474754286E+02 -0.12807065606E+02  0.72727761283E+02  0.47000000000E+01 0. -1.
        -11    1    1    2    0    0  0.60607557089E+02  0.21011748498E+02  0.50454239690E+02  0.81611272836E+02  0.00000000000E+00 0. -1.
         11    1    1    2    0    0 -0.16596267782E+02  0.32056482946E+02  0.10877249596E+03  0.11460589026E+03  0.00000000000E+00 0.  1.
<mgrwt>
<rscale>  0 0.13514114E+03</rscale>
<asrwt>0</asrwt>
<pdfrwt beam="2">  1        1 0.18329991E-01 0.14274910E+03</pdfrwt>
<pdfrwt beam="1">  1       -1 0.35128671E-01 0.14274910E+03</pdfrwt>
<totfact> 0.21667460E+03</totfact>
</mgrwt>
</event>
<event>
 7    1  0.5928109E-006  0.1901297E+03  0.7546771E-02  0.1164574E+00
         -1   -1    0    0    0  501 -0.00000000000E+00  0.00000000000E+00  0.11475363241E+03  0.11475363241E+03  0.00000000000E+00 0.  1.
          1   -1    0    0  501    0  0.00000000000E+00 -0.00000000000E+00 -0.28235277352E+03  0.28235277352E+03  0.00000000000E+00 0. -1.
         23    2    1    2    0    0  0.11346805176E+03 -0.87459305681E+02 -0.12369417986E+03  0.22682495605E+03  0.12500072653E+03 0.  0.
          5    1    3    3  502    0  0.13279943675E+03 -0.96806862315E+02 -0.12209810054E+03  0.20478597400E+03  0.47000000000E+01 0.  1.
         -5    1    3    3    0  502 -0.19331384983E+02  0.93475566340E+01 -0.15960793134E+01  0.22038982044E+02  0.47000000000E+01 0.  1.
        -11    1    1    2    0    0 -0.12048055793E+03  0.95248537449E+02 -0.44131754056E+02  0.15979818660E+03  0.00000000000E+00 0.  1.
         11    1    1    2    0    0  0.70125061606E+01 -0.77892317682E+01  0.22679279928E+00  0.10483263288E+02  0.00000000000E+00 0. -1.
<mgrwt>
<rscale>  0 0.18337697E+03</rscale>
<asrwt>0</asrwt>
<pdfrwt beam="2">  1        1 0.43438888E-01 0.19012972E+03</pdfrwt>
<pdfrwt beam="1">  1       -1 0.17654405E-01 0.19012972E+03</pdfrwt>
<totfact> 0.23073291E+03</totfact>
</mgrwt>
</event>
<event>
 7    1  0.5928109E-006  0.1351803E+03  0.7546771E-02  0.1231848E+00
          2   -1    0    0  501    0  0.00000000000E+00  0.00000000000E+00  0.81910669631E+03  0.81910669631E+03  0.00000000000E+00 0. -1.
         -2   -1    0    0    0  501 -0.00000000000E+00 -0.00000000000E+00 -0.21205984448E+02  0.21205984448E+02  0.00000000000E+00 0.  1.
         23    2    1    2    0    0  0.46519418525E+02  0.22025194844E+02  0.60977998006E+03  0.62458412962E+03  0.12499818152E+03 0.  0.
          5    1    3    3  502    0  0.52381075482E+02 -0.16256852091E+02  0.55276769938E+03  0.55550182879E+03  0.47000000000E+01 0. -1.
         -5    1    3    3    0  502 -0.58616569569E+01  0.38282046935E+02  0.57012280678E+02  0.69082300830E+02  0.47000000000E+01 0. -1.
        -11    1    1    2    0    0 -0.66933362403E+02 -0.26759378831E+02  0.89565619805E+02  0.11497016834E+03  0.00000000000E+00 0.  1.
         11    1    1    2    0    0  0.20413943878E+02  0.47341839871E+01  0.98555112000E+02  0.10075838280E+03  0.00000000000E+00 0. -1.
<mgrwt>
<rscale>  0 0.12708417E+03</rscale>
<asrwt>0</asrwt>
<pdfrwt beam="1">  1        2 0.12601639E+00 0.13518029E+03</pdfrwt>
<pdfrwt beam="2">  1       -2 0.32624598E-02 0.13518029E+03</pdfrwt>
<totfact> 0.12298563E+04</totfact>
</mgrwt>
</event>
<event>
 7    1  0.5928109E-006  0.4191793E+03  0.7546771E-02  0.1038044E+00
          2   -1    0    0  501    0  0.00000000000E+00  0.00000000000E+00  0.85908817707E+03  0.85908817707E+03  0.00000000000E+00 0. -1.
         -2   -1    0    0    0  501 -0.00000000000E+00 -0.00000000000E+00 -0.33604105960E+03  0.33604105960E+03  0.00000000000E+00 0.  1.
         23    2    1    2    0    0  0.40010086568E+03  0.23389395329E+01  0.64284444177E+03  0.76743747270E+03  0.12500049938E+03 0.  0.
          5    1    3    3  502    0  0.34386614345E+03  0.28687316216E+02  0.46542265219E+03  0.57940246970E+03  0.47000000000E+01 0. -1.
         -5    1    3    3    0  502  0.56234722227E+02 -0.26348376683E+02  0.17742178958E+03  0.18803500300E+03  0.47000000000E+01 0. -1.
        -11    1    1    2    0    0 -0.28291822694E+03 -0.43034708427E+00 -0.12733107576E+03  0.31025169006E+03  0.00000000000E+00 0.  1.
         11    1    1    2    0    0 -0.11718263874E+03 -0.19085924487E+01  0.75337514643E+01  0.11744007390E+03  0.00000000000E+00 0. -1.
<mgrwt>
<rscale>  0 0.41701055E+03</rscale>
<asrwt>0</asrwt>
<pdfrwt beam="1">  1        2 0.13216741E+00 0.41917932E+03</pdfrwt>
<pdfrwt beam="2">  1       -2 0.51698625E-01 0.41917932E+03</pdfrwt>
<totfact> 0.11510994E+02</totfact>
</mgrwt>
</event>
<event>
 7    1  0.5928109E-006  0.2082095E+03  0.7546771E-02  0.1147073E+00
         -2   -1    0    0    0  501 -0.00000000000E+00  0.00000000000E+00  0.12102513935E+03  0.12102513935E+03  0.00000000000E+00 0.  1.
          2   -1    0    0  501    0  0.00000000000E+00 -0.00000000000E+00 -0.37208348217E+03  0.37208348217E+03  0.00000000000E+00 0. -1.
         23    2    1    2    0    0  0.11689303521E+03 -0.11858817935E+03 -0.21786893987E+03  0.30136039586E+03  0.12499630102E+03 0.  0.
          5    1    3    3  502    0  0.37617577153E+02 -0.10751252889E+02  0.66214985196E+01  0.39957549877E+02  0.47000000000E+01 0. -1.
         -5    1    3    3    0  502  0.79275458060E+02 -0.10783692646E+03 -0.22449043838E+03  0.26140284598E+03  0.47000000000E+01 0. -1.
        -11    1    1    2    0    0 -0.90150849532E+02  0.29254425464E+02 -0.77779974283E+01  0.95097288734E+02  0.00000000000E+00 0.  1.
         11    1    1    2    0    0 -0.26742185680E+02  0.89333753888E+02 -0.25411405527E+02  0.96650936930E+02  0.00000000000E+00 0. -1.
<mgrwt>
<rscale>  0 0.20319220E+03</rscale>
<asrwt>0</asrwt>
<pdfrwt beam="2">  1        2 0.57243613E-01 0.20820954E+03</pdfrwt>
<pdfrwt beam="1">  1       -2 0.18619252E-01 0.20820954E+03</pdfrwt>
<totfact> 0.20362088E+03</totfact>
</mgrwt>
</event>
<event>
 7    1  0.5928109E-006  0.2151837E+03  0.7546771E-02  0.1141055E+00
          1   -1    0    0  501    0  0.00000000000E+00  0.00000000000E+00  0.21132094735E+03  0.21132094735E+03  0.00000000000E+00 0. -1.
         -1   -1    0    0    0  501 -0.00000000000E+00 -0.00000000000E+00 -0.20964628401E+03  0.20964628401E+03  0.00000000000E+00 0.  1.
         23    2    1    2    0    0  0.12385764335E+03  0.12381526260E+03  0.42129772637E+02  0.21926913836E+03  0.12503240470E+03 0.  0.
          5    1    3    3  502    0  0.66841864525E+02  0.10570847832E+03  0.79786926457E+02  0.14842560721E+03  0.47000000000E+01 0. -1.
         -5    1    3    3    0  502  0.57015778828E+02  0.18106784278E+02 -0.37657153820E+02  0.70843531152E+02  0.47000000000E+01 0. -1.
        -11    1    1    2    0    0 -0.55495472613E+02 -0.11735341172E+00 -0.34514781344E+01  0.55602823252E+02  0.00000000000E+00 0. -1.
         11    1    1    2    0    0 -0.68362170740E+02 -0.12369790918E+03 -0.37003631164E+02  0.14609526975E+03  0.00000000000E+00 0.  1.
<mgrwt>
<rscale>  0 0.21064611E+03</rscale>
<asrwt>0</asrwt>
<pdfrwt beam="1">  1        1 0.32510915E-01 0.21518373E+03</pdfrwt>
<pdfrwt beam="2">  1       -1 0.32253274E-01 0.21518373E+03</pdfrwt>
<totfact> 0.12284566E+03</totfact>
</mgrwt>
</event>
<event>
 7    1  0.5928109E-006  0.1389609E+03  0.7546771E-02  0.1226131E+00
          1   -1    0    0  501    0  0.00000000000E+00  0.00000000000E+00  0.28285847020E+02  0.28285847020E+02  0.00000000000E+00 0. -1.
         -1   -1    0    0    0  501 -0.00000000000E+00 -0.00000000000E+00 -0.61260486763E+03  0.61260486763E+03  0.00000000000E+00 0.  1.
         23    2    1    2    0    0 -0.36957736709E+02 -0.48163463257E+02 -0.21748129988E+03  0.25808571378E+03  0.12499810545E+03 0.  0.
          5    1    3    3  502    0 -0.53917975701E+02  0.26883381791E+02 -0.77408605803E+02  0.98204106699E+02  0.47000000000E+01 0. -1.
         -5    1    3    3    0  502  0.16960238992E+02 -0.75046845048E+02 -0.14007269408E+03  0.15988160708E+03  0.47000000000E+01 0. -1.
        -11    1    1    2    0    0  0.48910724860E+02 -0.63739886155E+01 -0.22566933583E+03  0.23099683087E+03  0.00000000000E+00 0.  1.
         11    1    1    2    0    0 -0.11952988150E+02  0.54537451873E+02 -0.14116838490E+03  0.15180817000E+03  0.00000000000E+00 0. -1.
<mgrwt>
<rscale>  0 0.13089710E+03</rscale>
<asrwt>0</asrwt>
<pdfrwt beam="1">  1        1 0.43516693E-02 0.13896086E+03</pdfrwt>
<pdfrwt beam="2">  1       -1 0.94246892E-01 0.13896086E+03</pdfrwt>
<totfact> 0.22525911E+03</totfact>
</mgrwt>
</event>
<event>
 7    1  0.5928109E-006  0.1282619E+03  0.7546771E-02  0.1244838E+00
         -3   -1    0    0    0  501 -0.00000000000E+00  0.00000000000E+00  0.15479104427E+03  0.15479104427E+03  0.00000000000E+00 0.  1.
          3   -1    0    0  501    0  0.00000000000E+00 -0.00000000000E+00 -0.80425895045E+02  0.80425895045E+02  0.00000000000E+00 0. -1.
         23    2    1    2    0    0  0.28643168643E+02  0.21885790567E+01  0.41649941729E+02  0.13485482107E+03  0.12500353647E+03 0.  0.
          5    1    3    3  502    0  0.14052758845E+02 -0.54553837409E+02  0.50022900908E+02  0.75484977462E+02  0.47000000000E+01 0. -1.
         -5    1    3    3    0  502  0.14590409799E+02  0.56742416466E+02 -0.83729591782E+01  0.59369843607E+02  0.47000000000E+01 0. -1.
        -11    1    1    2    0    0 -0.41689790582E+02  0.34850303486E+02  0.10831546804E+02  0.55406720693E+02  0.00000000000E+00 0. -1.
         11    1    1    2    0    0  0.13046621938E+02 -0.37038882543E+02  0.21883660696E+02  0.44955397556E+02  0.00000000000E+00 0.  1.
<mgrwt>
<rscale>  0 0.11895074E+03</rscale>
<asrwt>0</asrwt>
<pdfrwt beam="2">  1        3 0.12373215E-01 0.12826186E+03</pdfrwt>
<pdfrwt beam="1">  1       -3 0.23814007E-01 0.12826186E+03</pdfrwt>
<totfact> 0.19220551E+03</totfact>
</mgrwt>
</event>
<event>
 7    1  0.5928109E-006  0.1404370E+03  0.7546771E-02  0.1225581E+00
          1   -1    0    0  501    0  0.00000000000E+00  0.00000000000E+00  0.84305594524E+02  0.84305594524E+02  0.00000000000E+00 0. -1.
         -1   -1    0    0    0  501 -0.00000000000E+00 -0.00000000000E+00 -0.18363920408E+03  0.18363920408E+03  0.00000000000E+00 0.  1.
         23    2    1    2    0    0  0.41661726803E+02  0.48613439449E+02 -0.69310565376E+02  0.15660939421E+03  0.12499432750E+03 0.  0.
          5    1    3    3  502    0  0.26336207769E+02  0.88744842303E+02 -0.64939286539E+02  0.11317439556E+03  0.47000000000E+01 0.  1.
         -5    1    3    3    0  502  0.15325519034E+02 -0.40131402854E+02 -0.43712788368E+01  0.43434998646E+02  0.47000000000E+01 0.  1.
        -11    1    1    2    0    0 -0.55127516894E+01 -0.61447303797E+02 -0.37579903669E+02  0.72238568195E+02  0.00000000000E+00 0.  1.
         11    1    1    2    0    0 -0.36148975113E+02  0.12833864348E+02  0.75568594861E+01  0.39096836204E+02  0.00000000000E+00 0. -1.
<mgrwt>
<rscale>  0 0.13127164E+03</rscale>
<asrwt>0</asrwt>
<pdfrwt beam="1">  1        1 0.12970091E-01 0.14043699E+03</pdfrwt>
<pdfrwt beam="2">  1       -1 0.28252185E-01 0.14043699E+03</pdfrwt>
<totfact> 0.48972387E+03</totfact>
</mgrwt>
</event>
<event>
 7    1  0.5928109E-006  0.1505447E+03  0.7546771E-02  0.1209119E+00
          1   -1    0    0  501    0  0.00000000000E+00  0.00000000000E+00  0.69705250590E+02  0.69705250590E+02  0.00000000000E+00 0. -1.
         -1   -1    0    0    0  501 -0.00000000000E+00 -0.00000000000E+00 -0.28201626127E+03  0.28201626127E+03  0.00000000000E+00 0.  1.
         23    2    1    2    0    0  0.74395583908E+02 -0.38786441812E+02 -0.78222545032E+02  0.16965396584E+03  0.12499844240E+03 0.  0.
          5    1    3    3  502    0  0.86271188276E+02 -0.53873932861E+02 -0.14390737552E+02  0.10283142465E+03  0.47000000000E+01 0.  1.
         -5    1    3    3    0  502 -0.11875604368E+02  0.15087491049E+02 -0.63831807480E+02  0.66822541192E+02  0.47000000000E+01 0.  1.
        -11    1    1    2    0    0 -0.81343397718E+02  0.25945630557E+02 -0.54818403367E+02  0.10146418799E+03  0.00000000000E+00 0. -1.
         11    1    1    2    0    0  0.69478138105E+01  0.12840811255E+02 -0.79270062277E+02  0.80603358018E+02  0.00000000000E+00 0.  1.
<mgrwt>
<rscale>  0 0.14317534E+03</rscale>
<asrwt>0</asrwt>
<pdfrwt beam="1">  1        1 0.10723885E-01 0.15054468E+03</pdfrwt>
<pdfrwt beam="2">  1       -1 0.43387116E-01 0.15054468E+03</pdfrwt>
<totfact> 0.30177598E+03</totfact>
</mgrwt>
</event>
<event>
 7    1  0.5928109E-006  0.2165946E+03  0.7546771E-02  0.1140062E+00
          2   -1    0    0  501    0  0.00000000000E+00  0.00000000000E+00  0.24779652529E+03  0.24779652529E+03  0.00000000000E+00 0. -1.
         -2   -1    0    0    0  501 -0.00000000000E+00 -0.00000000000E+00 -0.22139159163E+03  0.22139159163E+03  0.00000000000E+00 0.  1.
         23    2    1    2    0    0  0.34569109914E+02 -0.17347612825E+03  0.12234382578E+03  0.24875940956E+03  0.12499696677E+03 0.  0.
          5    1    3    3  502    0 -0.25808049909E+02 -0.96299566079E+02  0.11214919922E+03  0.15013059233E+03  0.47000000000E+01 0. -1.
         -5    1    3    3    0  502  0.60377159823E+02 -0.77176562172E+02  0.10194626561E+02  0.98628817227E+02  0.47000000000E+01 0. -1.
        -11    1    1    2    0    0 -0.17679795234E+02  0.76138091625E+02 -0.93146136054E+02  0.12159682075E+03  0.00000000000E+00 0.  1.
         11    1    1    2    0    0 -0.16889314680E+02  0.97338036626E+02 -0.27927560623E+01  0.98831886610E+02  0.00000000000E+00 0. -1.
<mgrwt>
<rscale>  0 0.21191002E+03</rscale>
<asrwt>0</asrwt>
<pdfrwt beam="1">  1        2 0.38122543E-01 0.21659463E+03</pdfrwt>
<pdfrwt beam="2">  1       -2 0.34060245E-01 0.21659463E+03</pdfrwt>
<totfact> 0.10853281E+03</totfact>
</mgrwt>
</event>
<event>
 7    1  0.5928109E-006  0.1277085E+03  0.7546771E-02  0.1245065E+00
          1   -1    0    0  501    0  0.00000000000E+00  0.00000000000E+00  0.10915872582E+04  0.10915872582E+04  0.00000000000E+00 0. -1.
         -1   -1    0    0    0  501 -0.00000000000E+00 -0.00000000000E+00 -0.12232411843E+02  0.12232411843E+02  0.00000000000E+00 0.  1.
         23    2    1    2    0    0 -0.11077392561E+02  0.23715581725E+02  0.75205846788E+03  0.76282462785E+03  0.12499734516E+03 0.  0.
          5    1    3    3  502    0  0.27321873102E+02 -0.85978047429E+01  0.42429842849E+02  0.51408059294E+02  0.47000000000E+01 0.  1.
         -5    1    3    3    0  502 -0.38399265663E+02  0.32313386468E+02  0.70962862504E+03  0.71141656856E+03  0.47000000000E+01 0.  1.
        -11    1    1    2    0    0 -0.31756731169E+01 -0.53931425559E+02  0.12825087089E+03  0.13916525948E+03  0.00000000000E+00 0.  1.
         11    1    1    2    0    0  0.14253065678E+02  0.30215843834E+02  0.19904550762E+03  0.20182978274E+03  0.00000000000E+00 0. -1.
<mgrwt>
<rscale>  0 0.11881479E+03</rscale>
<asrwt>0</asrwt>
<pdfrwt beam="1">  1        1 0.16793642E+00 0.12770855E+03</pdfrwt>
<pdfrwt beam="2">  1       -1 0.18819104E-02 0.12770855E+03</pdfrwt>
<totfact> 0.98787788E+03</totfact>
</mgrwt>
</event>
<event>
 7    1  0.5928109E-006  0.2042153E+03  0.7546771E-02  0.1150345E+00
         -2   -1    0    0    0  501 -0.00000000000E+00  0.00000000000E+00  0.17710957559E+02  0.17710957559E+02  0.00000000000E+00 0.  1.
          2   -1    0    0  501    0  0.00000000000E+00 -0.00000000000E+00 -0.25093419124E+04  0.25093419124E+04  0.00000000000E+00 0. -1.
         23    2    1    2    0    0 -0.15966584602E+03  0.24572467857E+02 -0.17816856037E+04  0.17933509123E+04  0.12492764222E+03 0.  0.
          5    1    3    3  502    0 -0.16657587485E+03 -0.11063631153E+02 -0.15110374528E+04  0.15202388627E+04  0.47000000000E+01 0.  1.
         -5    1    3    3    0  502  0.69100288280E+01  0.35636099010E+02 -0.27064815085E+03  0.27311204955E+03  0.47000000000E+01 0.  1.
        -11    1    1    2    0    0  0.11771958894E+03 -0.57998411045E+02 -0.48371924611E+03  0.50120457536E+03  0.00000000000E+00 0.  1.
         11    1    1    2    0    0  0.41946257080E+02  0.33425943188E+02 -0.22622610510E+03  0.23249738233E+03  0.00000000000E+00 0. -1.
<mgrwt>
<rscale>  0 0.19928378E+03</rscale>
<asrwt>0</asrwt>
<pdfrwt beam="2">  1        2 0.38605277E+00 0.20421534E+03</pdfrwt>
<pdfrwt beam="1">  1       -2 0.27247615E-02 0.20421534E+03</pdfrwt>
<totfact> 0.19510715E+03</totfact>
</mgrwt>
</event>
<event>
 7    1  0.5928109E-006  0.1383770E+03  0.7546771E-02  0.1229219E+00
         -2   -1    0    0    0  501 -0.00000000000E+00  0.00000000000E+00  0.56572427527E+02  0.56572427527E+02  0.00000000000E+00 0.  1.
          2   -1    0    0  501    0  0.00000000000E+00 -0.00000000000E+00 -0.32469028134E+03  0.32469028134E+03  0.00000000000E+00 0. -1.
         23    2    1    2    0    0  0.18541016708E+02  0.56395292911E+02 -0.23404697322E+03  0.27189367629E+03  0.12499594860E+03 0.  0.
          5    1    3    3  502    0 -0.18525233396E+02  0.81442839972E+02 -0.19553148031E+03  0.21267526948E+03  0.47000000000E+01 0.  1.
         -5    1    3    3    0  502  0.37066250104E+02 -0.25047547061E+02 -0.38515492907E+02  0.59218406804E+02  0.47000000000E+01 0.  1.
        -11    1    1    2    0    0 -0.60617753993E+01 -0.17123733103E+02  0.28887711316E+02  0.34124290783E+02  0.00000000000E+00 0.  1.
         11    1    1    2    0    0 -0.12479241309E+02 -0.39271559808E+02 -0.62958591904E+02  0.75244741796E+02  0.00000000000E+00 0. -1.
<mgrwt>
<rscale>  0 0.12881892E+03</rscale>
<asrwt>0</asrwt>
<pdfrwt beam="2">  1        2 0.49952352E-01 0.13837697E+03</pdfrwt>
<pdfrwt beam="1">  1       -2 0.87034503E-02 0.13837697E+03</pdfrwt>
<totfact> 0.79081038E+03</totfact>
</mgrwt>
</event>
<event>
 7    1  0.5928109E-006  0.1286841E+03  0.7546771E-02  0.1244854E+00
         -1   -1    0    0    0  501 -0.00000000000E+00  0.00000000000E+00  0.10693098419E+03  0.10693098419E+03  0.00000000000E+00 0.  1.
          1   -1    0    0  501    0  0.00000000000E+00 -0.00000000000E+00 -0.12631872636E+03  0.12631872636E+03  0.00000000000E+00 0. -1.
         23    2    1    2    0    0 -0.81337282281E+01 -0.29500815901E+02 -0.44275640198E+02  0.13608795121E+03  0.12499256968E+03 0.  0.
          5    1    3    3  502    0 -0.17190031571E+02 -0.75452221117E+02 -0.10685398019E+02  0.78261117981E+02  0.47000000000E+01 0. -1.
         -5    1    3    3    0  502  0.90563033429E+01  0.45951405216E+02 -0.33590242179E+02  0.57826833228E+02  0.47000000000E+01 0. -1.
        -11    1    1    2    0    0 -0.18581497435E+02  0.32812747854E+02  0.48444335988E+02  0.61390570595E+02  0.00000000000E+00 0.  1.
         11    1    1    2    0    0  0.26715225663E+02 -0.33119319537E+01 -0.23556437954E+02  0.35771188750E+02  0.00000000000E+00 0. -1.
<mgrwt>
<rscale>  0 0.11894150E+03</rscale>
<asrwt>0</asrwt>
<pdfrwt beam="2">  1        1 0.19433650E-01 0.12868410E+03</pdfrwt>
<pdfrwt beam="1">  1       -1 0.16450921E-01 0.12868410E+03</pdfrwt>
<totfact> 0.69358013E+03</totfact>
</mgrwt>
</event>
<event>
 7    1  0.5928109E-006  0.1286472E+03  0.7546771E-02  0.1243732E+00
          1   -1    0    0  501    0  0.00000000000E+00  0.00000000000E+00  0.37855294369E+03  0.37855294369E+03  0.00000000000E+00 0. -1.
         -1   -1    0    0    0  501 -0.00000000000E+00 -0.00000000000E+00 -0.54941506229E+02  0.54941506229E+02  0.00000000000E+00 0.  1.
         23    2    1    2    0    0 -0.16076298393E+02  0.25768324216E+02  0.31095121199E+03  0.33651263582E+03  0.12501057527E+03 0.  0.
          5    1    3    3  502    0 -0.12883620890E+02 -0.89163222750E+01 -0.61454155573E+01  0.17474112925E+02  0.47000000000E+01 0. -1.
         -5    1    3    3    0  502 -0.31926775029E+01  0.34684646491E+02  0.31709662755E+03  0.31903852290E+03  0.47000000000E+01 0. -1.
        -11    1    1    2    0    0  0.35952483185E+02  0.72807746297E+01  0.36414463114E+02  0.51687559918E+02  0.00000000000E+00 0. -1.
         11    1    1    2    0    0 -0.19876184792E+02 -0.33049098845E+02 -0.23754237636E+02  0.45294254183E+02  0.00000000000E+00 0.  1.
<mgrwt>
<rscale>  0 0.11961612E+03</rscale>
<asrwt>0</asrwt>
<pdfrwt beam="1">  1        1 0.58238913E-01 0.12864718E+03</pdfrwt>
<pdfrwt beam="2">  1       -1 0.84525397E-02 0.12864718E+03</pdfrwt>
<totfact> 0.49324562E+03</totfact>
</mgrwt>
</event>
<event>
 7    1  0.5928109E-006  0.1312692E+03  0.7546771E-02  0.1238821E+00
          2   -1    0    0  501    0  0.00000000000E+00  0.00000000000E+00  0.39375069272E+03  0.39375069272E+03  0.00000000000E+00 0. -1.
         -2   -1    0    0    0  501 -0.00000000000E+00 -0.00000000000E+00 -0.34268110424E+02  0.34268110424E+02  0.00000000000E+00 0.  1.
         23    2    1    2    0    0  0.27063769225E+02 -0.29527587509E+02  0.22420942763E+03  0.25981044249E+03  0.12500908992E+03 0.  0.
          5    1    3    3  502    0 -0.36806655919E+02  0.10942445748E+01  0.15947597516E+03  0.16373943918E+03  0.47000000000E+01 0. -1.
         -5    1    3    3    0  502  0.63870425143E+02 -0.30621832084E+02  0.64733452467E+02  0.96071003308E+02  0.47000000000E+01 0. -1.
        -11    1    1    2    0    0 -0.29491768432E+02 -0.28522738679E+02  0.66947432074E+02  0.78519231328E+02  0.00000000000E+00 0.  1.
         11    1    1    2    0    0  0.24279992072E+01  0.58050326189E+02  0.68325722592E+02  0.89689129322E+02  0.00000000000E+00 0. -1.
<mgrwt>
<rscale>  0 0.12262984E+03</rscale>
<asrwt>0</asrwt>
<pdfrwt beam="1">  1        2 0.60577026E-01 0.13126918E+03</pdfrwt>
<pdfrwt beam="2">  1       -2 0.52720173E-02 0.13126918E+03</pdfrwt>
<totfact> 0.13803449E+04</totfact>
</mgrwt>
</event>
<event>
 7    1  0.5928109E-006  0.1541907E+03  0.7546771E-02  0.1204168E+00
         -2   -1    0    0    0  501 -0.00000000000E+00  0.00000000000E+00  0.18470905887E+02  0.18470905887E+02  0.00000000000E+00 0.  1.
          2   -1    0    0  501    0  0.00000000000E+00 -0.00000000000E+00 -0.10755316968E+04  0.10755316968E+04  0.00000000000E+00 0. -1.
         23    2    1    2    0    0 -0.11963902174E+02 -0.89484083116E+02 -0.59977916178E+03  0.61928168229E+03  0.12499689205E+03 0.  0.
          5    1    3    3  502    0 -0.26054285323E+02 -0.10229709285E+03 -0.28610200427E+03  0.30499175044E+03  0.47000000000E+01 0.  1.
         -5    1    3    3    0  502  0.14090383150E+02  0.12813009731E+02 -0.31367715751E+03  0.31428993185E+03  0.47000000000E+01 0.  1.
        -11    1    1    2    0    0  0.51008631952E+02  0.44990674600E+02 -0.26005632428E+03  0.26880352143E+03  0.00000000000E+00 0.  1.
         11    1    1    2    0    0 -0.39044729778E+02  0.44493408516E+02 -0.19722530480E+03  0.20591739892E+03  0.00000000000E+00 0. -1.
<mgrwt>
<rscale>  0 0.14703197E+03</rscale>
<asrwt>0</asrwt>
<pdfrwt beam="2">  1        2 0.16546646E+00 0.15419066E+03</pdfrwt>
<pdfrwt beam="1">  1       -2 0.28416771E-02 0.15419066E+03</pdfrwt>
<totfact> 0.10545176E+04</totfact>
</mgrwt>
</event>
<event>
 7    1  0.5928109E-006  0.2998445E+03  0.7546771E-02  0.1086336E+00
          2   -1    0    0  501    0  0.00000000000E+00  0.00000000000E+00  0.70844641416E+03  0.70844641416E+03  0.00000000000E+00 0.  1.
         -2   -1    0    0    0  501 -0.00000000000E+00 -0.00000000000E+00 -0.12549060116E+03  0.12549060116E+03  0.00000000000E+00 0. -1.
         23    2    1    2    0    0  0.27113600666E+03 -0.27656491564E+02  0.24332642311E+03  0.38615344119E+03  0.12500846501E+03 0.  0.
          5    1    3    3  502    0  0.98975114056E+02 -0.20970852764E+02  0.18652546769E+02  0.10298474338E+03  0.47000000000E+01 0. -1.
         -5    1    3    3    0  502  0.17216089260E+03 -0.66856387998E+01  0.22467387634E+03  0.28316869781E+03  0.47000000000E+01 0. -1.
        -11    1    1    2    0    0 -0.41992301704E+02 -0.34320741499E+02  0.70002502750E+02  0.88552905603E+02  0.00000000000E+00 0.  1.
         11    1    1    2    0    0 -0.22914370495E+03  0.61977233063E+02  0.26962688714E+03  0.35923066852E+03  0.00000000000E+00 0. -1.
<mgrwt>
<rscale>  0 0.29781928E+03</rscale>
<asrwt>0</asrwt>
<pdfrwt beam="1">  1        2 0.10899175E+00 0.29984451E+03</pdfrwt>
<pdfrwt beam="2">  1       -2 0.19306247E-01 0.29984451E+03</pdfrwt>
<totfact> 0.92499695E+02</totfact>
</mgrwt>
</event>
<event>
 7    1  0.5928109E-006  0.1758711E+03  0.7546771E-02  0.1177806E+00
          2   -1    0    0  501    0  0.00000000000E+00  0.00000000000E+00  0.67349458257E+02  0.67349458257E+02  0.00000000000E+00 0. -1.
         -2   -1    0    0    0  501 -0.00000000000E+00 -0.00000000000E+00 -0.82364701794E+03  0.82364701794E+03  0.00000000000E+00 0.  1.
         23    2    1    2    0    0  0.56238075653E+02  0.11019582492E+03 -0.72645649409E+02  0.19028405866E+03  0.12499916647E+03 0.  0.
          5    1    3    3  502    0  0.89322276867E+02  0.10516534734E+03 -0.41078668499E+02  0.14404084987E+03  0.47000000000E+01 0.  1.
         -5    1    3    3    0  502 -0.33084201215E+02  0.50304775769E+01 -0.31566980911E+02  0.46243208782E+02  0.47000000000E+01 0.  1.
        -11    1    1    2    0    0 -0.78983362954E+01  0.15309568088E+02 -0.48260944349E+02  0.51243393143E+02  0.00000000000E+00 0. -1.
         11    1    1    2    0    0 -0.48339739357E+02 -0.12550539301E+03 -0.63539096592E+03  0.64946902439E+03  0.00000000000E+00 0.  1.
<mgrwt>
<rscale>  0 0.17004000E+03</rscale>
<asrwt>0</asrwt>
<pdfrwt beam="1">  1        2 0.10361456E-01 0.17587107E+03</pdfrwt>
<pdfrwt beam="2">  1       -2 0.12671492E+00 0.17587107E+03</pdfrwt>
<totfact> 0.29685858E+02</totfact>
</mgrwt>
</event>
<event>
 7    1  0.5928109E-006  0.1412490E+03  0.7546771E-02  0.1223662E+00
          2   -1    0    0  501    0  0.00000000000E+00  0.00000000000E+00  0.59293256168E+03  0.59293256168E+03  0.00000000000E+00 0. -1.
         -2   -1    0    0    0  501 -0.00000000000E+00 -0.00000000000E+00 -0.36074377050E+02  0.36074377050E+02  0.00000000000E+00 0.  1.
         23    2    1    2    0    0  0.65672018887E+02 -0.39828518723E+01  0.46490053559E+03  0.48588453440E+03  0.12499038205E+03 0.  0.
          5    1    3    3  502    0 -0.43169219825E+01 -0.54191464823E+02  0.16221397976E+03  0.17114559855E+03  0.47000000000E+01 0.  1.
         -5    1    3    3    0  502  0.69988940870E+02  0.50208612951E+02  0.30268655583E+03  0.31473893585E+03  0.47000000000E+01 0.  1.
        -11    1    1    2    0    0 -0.32392026283E+02 -0.41001777466E+02  0.56083319704E+02  0.76653296544E+02  0.00000000000E+00 0. -1.
         11    1    1    2    0    0 -0.33279992604E+02  0.44984629338E+02  0.35874329340E+02  0.66469107787E+02  0.00000000000E+00 0.  1.
<mgrwt>
<rscale>  0 0.13259047E+03</rscale>
<asrwt>0</asrwt>
<pdfrwt beam="1">  1        2 0.91220387E-01 0.14124897E+03</pdfrwt>
<pdfrwt beam="2">  1       -2 0.55499046E-02 0.14124897E+03</pdfrwt>
<totfact> 0.82009557E+03</totfact>
</mgrwt>
</event>
<event>
 7    1  0.5928109E-006  0.1275599E+03  0.7546771E-02  0.1246526E+00
         -1   -1    0    0    0  501 -0.00000000000E+00  0.00000000000E+00  0.16982379197E+03  0.16982379197E+03  0.00000000000E+00 0.  1.
          1   -1    0    0  501    0  0.00000000000E+00 -0.00000000000E+00 -0.81839663657E+02  0.81839663657E+02  0.00000000000E+00 0. -1.
         23    2    1    2    0    0  0.22274278329E+02  0.12275853453E+02  0.63125505182E+01  0.12771599002E+03  0.12499874303E+03 0.  0.
          5    1    3    3  502    0  0.42716830982E+02 -0.15440676269E+02 -0.46059275066E+02  0.64858992841E+02  0.47000000000E+01 0.  1.
         -5    1    3    3    0  502 -0.20442552652E+02  0.27716529722E+02  0.52371825584E+02  0.62856997175E+02  0.47000000000E+01 0.  1.
        -11    1    1    2    0    0 -0.25035247627E+02 -0.44295353921E+02  0.75775094660E+02  0.91272706619E+02  0.00000000000E+00 0.  1.
         11    1    1    2    0    0  0.27609692981E+01  0.32019500469E+02  0.58964831318E+01  0.32674758990E+02  0.00000000000E+00 0. -1.
<mgrwt>
<rscale>  0 0.11794516E+03</rscale>
<asrwt>0</asrwt>
<pdfrwt beam="2">  1        1 0.12590718E-01 0.12755989E+03</pdfrwt>
<pdfrwt beam="1">  1       -1 0.26126737E-01 0.12755989E+03</pdfrwt>
<totfact> 0.57590762E+03</totfact>
</mgrwt>
</event>
<event>
 7    1  0.5928109E-006  0.1312369E+03  0.7546771E-02  0.1239881E+00
         -1   -1    0    0    0  501 -0.00000000000E+00  0.00000000000E+00  0.13372674499E+02  0.13372674499E+02  0.00000000000E+00 0.  1.
          1   -1    0    0  501    0  0.00000000000E+00 -0.00000000000E+00 -0.99910750186E+03  0.99910750186E+03  0.00000000000E+00 0. -1.
         23    2    1    2    0    0 -0.38397919205E+02  0.11228244789E+02 -0.62944125649E+03  0.64297699690E+03  0.12499059759E+03 0.  0.
          5    1    3    3  502    0 -0.78669485954E+02  0.30036260541E+02 -0.46410908686E+03  0.47171007989E+03  0.47000000000E+01 0. -1.
         -5    1    3    3    0  502  0.40271566749E+02 -0.18808015752E+02 -0.16533216963E+03  0.17126691700E+03  0.47000000000E+01 0. -1.
        -11    1    1    2    0    0 -0.10643997793E+02  0.30713290429E+02 -0.97053195695E+02  0.10235195989E+03  0.00000000000E+00 0.  1.
         11    1    1    2    0    0  0.49041916998E+02 -0.41941535218E+02 -0.25924037517E+03  0.26715121957E+03  0.00000000000E+00 0. -1.
<mgrwt>
<rscale>  0 0.12197058E+03</rscale>
<asrwt>0</asrwt>
<pdfrwt beam="2">  1        1 0.15370885E+00 0.13123690E+03</pdfrwt>
<pdfrwt beam="1">  1       -1 0.20573345E-02 0.13123690E+03</pdfrwt>
<totfact> 0.10139144E+04</totfact>
</mgrwt>
</event>
<event>
 6    1  0.5928109E-006  0.1812663E+03  0.7546771E-02  0.1173066E+00
          2   -1    0    0  501    0  0.00000000000E+00  0.00000000000E+00  0.13957454148E+04  0.13957454148E+04  0.00000000000E+00 0. -1.
         -2   -1    0    0    0  501 -0.00000000000E+00 -0.00000000000E+00 -0.49941849831E+02  0.49941849831E+02  0.00000000000E+00 0.  1.
          5    1    1    2  502    0  0.63879887494E+02  0.12906917185E+03  0.84139296373E+03  0.85364143559E+03  0.47000000000E+01 0. -1.
         -5    1    1    2    0  502  0.92249489936E+01 -0.24058474772E+02  0.40711044875E+03  0.40795210181E+03  0.47000000000E+01 0.  1.
        -11    1    1    2    0    0 -0.58901737113E+02 -0.82253575535E+02  0.11406050611E+03  0.15246266552E+03  0.00000000000E+00 0.  1.
         11    1    1    2    0    0 -0.14203099375E+02 -0.22757121539E+02 -0.16760353605E+02  0.31631061721E+02  0.00000000000E+00 0. -1.
<mgrwt>
<rscale>  0 0.17466791E+03</rscale>
<asrwt>0</asrwt>
<pdfrwt beam="1">  1        2 0.21473003E+00 0.18126633E+03</pdfrwt>
<pdfrwt beam="2">  1       -2 0.76833626E-02 0.18126633E+03</pdfrwt>
<totfact> 0.15710790E+03</totfact>
</mgrwt>
</event>
<event>
 7    1  0.5928109E-006  0.1646979E+03  0.7546771E-02  0.1190488E+00
         -2   -1    0    0    0  501 -0.00000000000E+00  0.00000000000E+00  0.83005282995E+02  0.83005282995E+02  0.00000000000E+00 0.  1.
          2   -1    0    0  501    0  0.00000000000E+00 -0.00000000000E+00 -0.34893407751E+03  0.34893407751E+03  0.00000000000E+00 0. -1.
         23    2    1    2    0    0  0.40136292206E+02 -0.99445439961E+02 -0.23602184750E+03  0.28780501404E+03  0.12500038451E+03 0.  0.
          5    1    3    3  502    0 -0.17398192937E+02 -0.45496973931E+02 -0.12182061108E+02  0.50429796422E+02  0.47000000000E+01 0. -1.
         -5    1    3    3    0  502  0.57534485143E+02 -0.53948466029E+02 -0.22383978639E+03  0.23737521762E+03  0.47000000000E+01 0. -1.
        -11    1    1    2    0    0 -0.42039075806E+02  0.37763165379E+02 -0.53737693145E+02  0.77981281206E+02  0.00000000000E+00 0. -1.
         11    1    1    2    0    0  0.19027836004E+01  0.61682274582E+02  0.23830746124E+02  0.66153065264E+02  0.00000000000E+00 0.  1.
<mgrwt>
<rscale>  0 0.15842327E+03</rscale>
<asrwt>0</asrwt>
<pdfrwt beam="2">  1        2 0.53682166E-01 0.16469795E+03</pdfrwt>
<pdfrwt beam="1">  1       -2 0.12770043E-01 0.16469795E+03</pdfrwt>
<totfact> 0.40321229E+03</totfact>
</mgrwt>
</event>
<event>
 7    1  0.5928109E-006  0.1482621E+03  0.7546771E-02  0.1210014E+00
         -4   -1    0    0    0  501 -0.00000000000E+00  0.00000000000E+00  0.25514093586E+03  0.25514093586E+03  0.00000000000E+00 0.  1.
          4   -1    0    0  501    0  0.00000000000E+00 -0.00000000000E+00 -0.10399266419E+03  0.10399266419E+03  0.00000000000E+00 0. -1.
         23    2    1    2    0    0 -0.76359526148E+02  0.22944954522E+02 -0.16432247968E+02  0.14916992725E+03  0.12499760098E+03 0.  0.
          5    1    3    3  502    0  0.34196205960E+02  0.73526232954E+01 -0.12199266184E+02  0.37341045336E+02  0.47000000000E+01 0.  1.
         -5    1    3    3    0  502 -0.11055573211E+03  0.15592331227E+02 -0.42329817841E+01  0.11182888191E+03  0.47000000000E+01 0.  1.
        -11    1    1    2    0    0  0.72475818201E+02  0.10785718304E+02  0.15880482838E+03  0.17489439516E+03  0.00000000000E+00 0.  1.
         11    1    1    2    0    0  0.38837079471E+01 -0.33730672826E+02  0.87756912623E+01  0.35069277635E+02  0.00000000000E+00 0. -1.
<mgrwt>
<rscale>  0 0.14249274E+03</rscale>
<asrwt>0</asrwt>
<pdfrwt beam="2">  1        4 0.15998872E-01 0.14826209E+03</pdfrwt>
<pdfrwt beam="1">  1       -4 0.39252451E-01 0.14826209E+03</pdfrwt>
<totfact> 0.35897848E+02</totfact>
</mgrwt>
</event>
<event>
 7    1  0.5928109E-006  0.1486167E+03  0.7546771E-02  0.1211529E+00
         -1   -1    0    0    0  501 -0.00000000000E+00  0.00000000000E+00  0.19655308098E+03  0.19655308098E+03  0.00000000000E+00 0.  1.
          1   -1    0    0  501    0  0.00000000000E+00 -0.00000000000E+00 -0.92918349837E+02  0.92918349837E+02  0.00000000000E+00 0. -1.
         23    2    1    2    0    0 -0.14736494457E+02 -0.79026503386E+02  0.60185574726E+02  0.16034098564E+03  0.12499830304E+03 0.  0.
          5    1    3    3  502    0  0.37984035599E+01 -0.87799038867E+02  0.88669725346E+02  0.12493001756E+03  0.47000000000E+01 0.  1.
         -5    1    3    3    0  502 -0.18534898017E+02  0.87725354810E+01 -0.28484150620E+02  0.35410968072E+02  0.47000000000E+01 0.  1.
        -11    1    1    2    0    0  0.16258049827E+02 -0.17105933288E+02  0.17983561792E+02  0.29670619012E+02  0.00000000000E+00 0. -1.
         11    1    1    2    0    0 -0.15215553699E+01  0.96132436674E+02  0.25465594624E+02  0.99459826167E+02  0.00000000000E+00 0.  1.
<mgrwt>
<rscale>  0 0.14134654E+03</rscale>
<asrwt>0</asrwt>
<pdfrwt beam="2">  1        1 0.14295131E-01 0.14861672E+03</pdfrwt>
<pdfrwt beam="1">  1       -1 0.30238935E-01 0.14861672E+03</pdfrwt>
<totfact> 0.38619700E+03</totfact>
</mgrwt>
</event>
<event>
 7    1  0.5928109E-006  0.1565928E+03  0.7546771E-02  0.1198305E+00
          3   -1    0    0  501    0  0.00000000000E+00  0.00000000000E+00  0.10462214522E+04  0.10462214522E+04  0.00000000000E+00 0. -1.
         -3   -1    0    0    0  501 -0.00000000000E+00 -0.00000000000E+00 -0.20878874975E+02  0.20878874975E+02  0.00000000000E+00 0.  1.
         23    2    1    2    0    0 -0.89913111369E+02 -0.36001911431E+02  0.58356234807E+03  0.60420718256E+03  0.12304795874E+03 0.  0.
          5    1    3    3  502    0 -0.43588292827E+02  0.40834756423E+02  0.32510439678E+03  0.33057884900E+03  0.47000000000E+01 0. -1.
         -5    1    3    3    0  502 -0.46324818542E+02 -0.76836667854E+02  0.25845795129E+03  0.27362833356E+03  0.47000000000E+01 0.  1.
        -11    1    1    2    0    0 -0.68102782085E+01 -0.23441277056E+02  0.89652501766E+02  0.92916330277E+02  0.00000000000E+00 0.  1.
         11    1    1    2    0    0  0.96723389577E+02  0.59443188487E+02  0.35212772735E+03  0.36997681430E+03  0.00000000000E+00 0. -1.
<mgrwt>
<rscale>  0 0.15177801E+03</rscale>
<asrwt>0</asrwt>
<pdfrwt beam="1">  1        3 0.16095711E+00 0.15659280E+03</pdfrwt>
<pdfrwt beam="2">  1       -3 0.32121354E-02 0.15659280E+03</pdfrwt>
<totfact> 0.31312190E+02</totfact>
</mgrwt>
</event>
<event>
 7    1  0.5928109E-006  0.1936127E+03  0.7546771E-02  0.1160409E+00
          2   -1    0    0  501    0  0.00000000000E+00  0.00000000000E+00  0.12053217739E+04  0.12053217739E+04  0.00000000000E+00 0. -1.
         -2   -1    0    0    0  501 -0.00000000000E+00 -0.00000000000E+00 -0.30201597921E+02  0.30201597921E+02  0.00000000000E+00 0.  1.
         23    2    1    2    0    0 -0.10308580285E+03 -0.10597300931E+03  0.79877579286E+03  0.82190548779E+03  0.12501560762E+03 0.  0.
          5    1    3    3  502    0 -0.37095465798E+02 -0.76614066825E+02  0.18291737002E+03  0.20180843162E+03  0.47000000000E+01 0. -1.
         -5    1    3    3    0  502 -0.65990337056E+02 -0.29358942487E+02  0.61585842283E+03  0.62009705617E+03  0.47000000000E+01 0. -1.
        -11    1    1    2    0    0  0.48421181753E+02  0.84085499155E+02  0.14197593014E+03  0.17196553942E+03  0.00000000000E+00 0.  1.
         11    1    1    2    0    0  0.54664621102E+02  0.21887510157E+02  0.23436845294E+03  0.24165234457E+03  0.00000000000E+00 0. -1.
<mgrwt>
<rscale>  0 0.18785646E+03</rscale>
<asrwt>0</asrwt>
<pdfrwt beam="1">  1        2 0.18543408E+00 0.19361266E+03</pdfrwt>
<pdfrwt beam="2">  1       -2 0.46464006E-02 0.19361266E+03</pdfrwt>
<totfact> 0.43108726E+03</totfact>
</mgrwt>
</event>
<event>
 6    1  0.5928109E-006  0.2186410E+03  0.7546771E-02  0.1139535E+00
         -2   -1    0    0    0  501 -0.00000000000E+00  0.00000000000E+00  0.13984986434E+03  0.13984986434E+03  0.00000000000E+00 0.  1.
          2   -1    0    0  501    0  0.00000000000E+00 -0.00000000000E+00 -0.31131643452E+03  0.31131643452E+03  0.00000000000E+00 0. -1.
          5    1    1    2  502    0 -0.26954090607E+02  0.11443033381E+03 -0.14411213188E+03  0.18604091177E+03  0.47000000000E+01 0. -1.
         -5    1    1    2    0  502 -0.18053351023E+02  0.54138854169E+02  0.25519696438E+02  0.62691976522E+02  0.47000000000E+01 0.  1.
        -11    1    1    2    0    0 -0.12970603757E+02 -0.35569916316E+01 -0.20565613661E+02  0.24573018060E+02  0.00000000000E+00 0.  1.
         11    1    1    2    0    0  0.57978045387E+02 -0.16501219634E+03 -0.32308521072E+02  0.17786039251E+03  0.00000000000E+00 0. -1.
<mgrwt>
<rscale>  0 0.21258534E+03</rscale>
<asrwt>0</asrwt>
<pdfrwt beam="2">  1        2 0.47894835E-01 0.21864099E+03</pdfrwt>
<pdfrwt beam="1">  1       -2 0.21515364E-01 0.21864099E+03</pdfrwt>
<totfact> 0.19297999E+03</totfact>
</mgrwt>
</event>
<event>
 7    1  0.5928109E-006  0.1250806E+03  0.7546771E-02  0.1247288E+00
          2   -1    0    0  501    0  0.00000000000E+00  0.00000000000E+00  0.73107891134E+03  0.73107891134E+03  0.00000000000E+00 0. -1.
         -2   -1    0    0    0  501 -0.00000000000E+00 -0.00000000000E+00 -0.16948021816E+02  0.16948021816E+02  0.00000000000E+00 0.  1.
         23    2    1    2    0    0 -0.13529151376E+02  0.29083197634E+02  0.38759888003E+03  0.40728128788E+03  0.12089783013E+03 0.  0.
          5    1    3    3  502    0 -0.29157032026E+02  0.17135221504E+02  0.38543034031E+03  0.38693976995E+03  0.47000000000E+01 0. -1.
         -5    1    3    3    0  502  0.15627880649E+02  0.11947976130E+02  0.21685397194E+01  0.20341517930E+02  0.47000000000E+01 0.  1.
        -11    1    1    2    0    0  0.45402352859E+02 -0.36697568955E+02  0.26133643904E+03  0.26777755616E+03  0.00000000000E+00 0.  1.
         11    1    1    2    0    0 -0.31873201482E+02  0.76143713213E+01  0.65195570448E+02  0.72968089117E+02  0.00000000000E+00 0. -1.
<mgrwt>
<rscale>  0 0.11749488E+03</rscale>
<asrwt>0</asrwt>
<pdfrwt beam="1">  1        2 0.11247365E+00 0.12508060E+03</pdfrwt>
<pdfrwt beam="2">  1       -2 0.26073885E-02 0.12508060E+03</pdfrwt>
<totfact> 0.19529427E+04</totfact>
</mgrwt>
</event>
<event>
 6    1  0.5928109E-006  0.2987053E+03  0.7546771E-02  0.1106697E+00
         -2   -1    0    0    0  501 -0.00000000000E+00  0.00000000000E+00  0.23797616498E+02  0.23797616498E+02  0.00000000000E+00 0.  1.
          2   -1    0    0  501    0  0.00000000000E+00 -0.00000000000E+00 -0.25644253312E+04  0.25644253312E+04  0.00000000000E+00 0. -1.
          5    1    1    2  502    0 -0.96313802344E+02  0.84286190993E+02 -0.17702993328E+04  0.17749260064E+04  0.47000000000E+01 0. -1.
         -5    1    1    2    0  502 -0.50471016638E+02 -0.64611065484E+02 -0.17666896223E+03  0.19482280544E+03  0.47000000000E+01 0.  1.
        -11    1    1    2    0    0  0.79844079631E+01  0.25317453748E+02 -0.11744277920E+03  0.12040569181E+03  0.00000000000E+00 0. -1.
         11    1    1    2    0    0  0.13880041102E+03 -0.44992579257E+02 -0.47621664056E+03  0.49806844413E+03  0.00000000000E+00 0.  1.
<mgrwt>
<rscale>  0 0.26074419E+03</rscale>
<asrwt>0</asrwt>
<pdfrwt beam="2">  1        2 0.39452686E+00 0.29870527E+03</pdfrwt>
<pdfrwt beam="1">  1       -2 0.36611728E-02 0.29870527E+03</pdfrwt>
<totfact> 0.11561112E+03</totfact>
</mgrwt>
</event>
<event>
 6    1  0.5928109E-006  0.3060167E+03  0.7546771E-02  0.1089782E+00
          1   -1    0    0  501    0  0.00000000000E+00  0.00000000000E+00  0.17131079788E+03  0.17131079788E+03  0.00000000000E+00 0. -1.
         -1   -1    0    0    0  501 -0.00000000000E+00 -0.00000000000E+00 -0.45230674264E+03  0.45230674264E+03  0.00000000000E+00 0.  1.
          5    1    1    2  502    0  0.16136562123E+03  0.12364109338E+03 -0.90635563814E+02  0.22262722007E+03  0.47000000000E+01 0. -1.
         -5    1    1    2    0  502  0.66919322456E+02 -0.75382738274E+02 -0.71631868965E+02  0.12374961656E+03  0.47000000000E+01 0.  1.
        -11    1    1    2    0    0 -0.85885138237E+02 -0.63306630085E+02 -0.40920260597E+02  0.11427359323E+03  0.00000000000E+00 0. -1.
         11    1    1    2    0    0 -0.14239980545E+03  0.15048274980E+02 -0.77808251387E+02  0.16296711066E+03  0.00000000000E+00 0.  1.
<mgrwt>
<rscale>  0 0.29108801E+03</rscale>
<asrwt>0</asrwt>
<pdfrwt beam="1">  1        1 0.26355508E-01 0.30601666E+03</pdfrwt>
<pdfrwt beam="2">  1       -1 0.69585652E-01 0.30601666E+03</pdfrwt>
<totfact> 0.38900556E+02</totfact>
</mgrwt>
</event>
<event>
 7    1  0.5928109E-006  0.1332829E+03  0.7546771E-02  0.1235431E+00
         -1   -1    0    0    0  501 -0.00000000000E+00  0.00000000000E+00  0.13818073986E+03  0.13818073986E+03  0.00000000000E+00 0.  1.
          1   -1    0    0  501    0  0.00000000000E+00 -0.00000000000E+00 -0.11312543561E+03  0.11312543561E+03  0.00000000000E+00 0. -1.
         23    2    1    2    0    0 -0.16277394649E+02 -0.43324684245E+02 -0.27741044492E+02  0.13613921960E+03  0.12498935843E+03 0.  0.
          5    1    3    3  502    0 -0.34395334833E+02 -0.16324760636E+02  0.43312222477E+02  0.57858236095E+02  0.47000000000E+01 0.  1.
         -5    1    3    3    0  502  0.18117940183E+02 -0.26999923609E+02 -0.71053266969E+02  0.78280983504E+02  0.47000000000E+01 0.  1.
        -11    1    1    2    0    0  0.27402636505E+02  0.22988290347E+02  0.74984631513E+02  0.83078643126E+02  0.00000000000E+00 0.  1.
         11    1    1    2    0    0 -0.11125241855E+02  0.20336393898E+02 -0.22188282771E+02  0.32088312754E+02  0.00000000000E+00 0. -1.
<mgrwt>
<rscale>  0 0.12476852E+03</rscale>
<asrwt>0</asrwt>
<pdfrwt beam="2">  1        1 0.17403913E-01 0.13328286E+03</pdfrwt>
<pdfrwt beam="1">  1       -1 0.21258575E-01 0.13328286E+03</pdfrwt>
<totfact> 0.53184250E+03</totfact>
</mgrwt>
</event>
<event>
 7    1  0.5928109E-006  0.1528987E+03  0.7546771E-02  0.1206550E+00
          1   -1    0    0  501    0  0.00000000000E+00  0.00000000000E+00  0.21790225657E+03  0.21790225657E+03  0.00000000000E+00 0. -1.
         -1   -1    0    0    0  501 -0.00000000000E+00 -0.00000000000E+00 -0.10416088319E+03  0.10416088319E+03  0.00000000000E+00 0.  1.
         23    2    1    2    0    0  0.33552121085E+02 -0.81413532026E+02  0.12478989876E+03  0.19735887899E+03  0.12499640098E+03 0.  0.
          5    1    3    3  502    0 -0.13483152207E+02 -0.25679171707E+02  0.12063387501E+03  0.12416052937E+03  0.47000000000E+01 0. -1.
         -5    1    3    3    0  502  0.47035273292E+02 -0.55734360319E+02  0.41560237452E+01  0.73198349621E+02  0.47000000000E+01 0. -1.
        -11    1    1    2    0    0 -0.16256984716E+02  0.68346677860E+02  0.31469327898E+02  0.76979715022E+02  0.00000000000E+00 0. -1.
         11    1    1    2    0    0 -0.17295136369E+02  0.13066854166E+02 -0.42517853274E+02  0.47724545748E+02  0.00000000000E+00 0.  1.
<mgrwt>
<rscale>  0 0.14515946E+03</rscale>
<asrwt>0</asrwt>
<pdfrwt beam="1">  1        1 0.33523424E-01 0.15289869E+03</pdfrwt>
<pdfrwt beam="2">  1       -1 0.16024751E-01 0.15289869E+03</pdfrwt>
<totfact> 0.36838356E+03</totfact>
</mgrwt>
</event>
<event>
 7    1  0.5928109E-006  0.1302134E+03  0.7546771E-02  0.1241031E+00
          1   -1    0    0  501    0  0.00000000000E+00  0.00000000000E+00  0.28379808781E+03  0.28379808781E+03  0.00000000000E+00 0. -1.
         -1   -1    0    0    0  501 -0.00000000000E+00 -0.00000000000E+00 -0.87194036135E+02  0.87194036135E+02  0.00000000000E+00 0.  1.
         23    2    1    2    0    0 -0.20555696015E+02  0.30164343309E+02  0.23267213640E+03  0.26663054466E+03  0.12499239995E+03 0.  0.
          5    1    3    3  502    0 -0.14933695784E+01 -0.46666873698E+02  0.12000605354E+03  0.12885484135E+03  0.47000000000E+01 0. -1.
         -5    1    3    3    0  502 -0.19062326436E+02  0.76831217007E+02  0.11266608286E+03  0.13777570331E+03  0.47000000000E+01 0. -1.
        -11    1    1    2    0    0 -0.17506595270E+02 -0.40595604332E+02 -0.45859687788E+02  0.63699253787E+02  0.00000000000E+00 0.  1.
         11    1    1    2    0    0  0.38062291285E+02  0.10431261022E+02  0.97916030682E+01  0.40662325499E+02  0.00000000000E+00 0. -1.
<mgrwt>
<rscale>  0 0.12126109E+03</rscale>
<asrwt>0</asrwt>
<pdfrwt beam="1">  1        1 0.43661244E-01 0.13021338E+03</pdfrwt>
<pdfrwt beam="2">  1       -1 0.13414467E-01 0.13021338E+03</pdfrwt>
<totfact> 0.34809712E+03</totfact>
</mgrwt>
</event>
<event>
 7    1  0.5928109E-006  0.1464249E+03  0.7546771E-02  0.1215259E+00
          1   -1    0    0  501    0  0.00000000000E+00  0.00000000000E+00  0.37129310642E+03  0.37129310642E+03  0.00000000000E+00 0. -1.
         -1   -1    0    0    0  501 -0.00000000000E+00 -0.00000000000E+00 -0.87313730159E+02  0.87313730159E+02  0.00000000000E+00 0.  1.
         23    2    1    2    0    0  0.57783571926E+02  0.49762771854E+02  0.30588002415E+03  0.33912066999E+03  0.12499985999E+03 0.  0.
          5    1    3    3  502    0  0.51276020913E+02  0.83006716642E+02  0.27905150639E+03  0.29565381538E+03  0.47000000000E+01 0. -1.
         -5    1    3    3    0  502  0.65075510134E+01 -0.33243944788E+02  0.26828517757E+02  0.43466854617E+02  0.47000000000E+01 0. -1.
        -11    1    1    2    0    0 -0.47017455882E+02 -0.22169842490E+02 -0.54585683917E+02  0.75377317294E+02  0.00000000000E+00 0.  1.
         11    1    1    2    0    0 -0.10766116044E+02 -0.27592929364E+02  0.32685036031E+02  0.44108849293E+02  0.00000000000E+00 0. -1.
<mgrwt>
<rscale>  0 0.13857516E+03</rscale>
<asrwt>0</asrwt>
<pdfrwt beam="1">  1        1 0.57122015E-01 0.14642486E+03</pdfrwt>
<pdfrwt beam="2">  1       -1 0.13432882E-01 0.14642486E+03</pdfrwt>
<totfact> 0.24992835E+03</totfact>
</mgrwt>
</event>
<event>
 7    1  0.5928109E-006  0.1806162E+03  0.7546771E-02  0.1169677E+00
          2   -1    0    0  501    0  0.00000000000E+00  0.00000000000E+00  0.72560119940E+02  0.72560119940E+02  0.00000000000E+00 0. -1.
         -2   -1    0    0    0  501 -0.00000000000E+00 -0.00000000000E+00 -0.87726532477E+03  0.87726532477E+03  0.00000000000E+00 0.  1.
         23    2    1    2    0    0  0.42267901405E+02 -0.13529443998E+03 -0.67013278922E+02  0.19264732501E+03  0.11194217839E+03 0.  0.
          5    1    3    3  502    0  0.61797615871E+02 -0.14519305730E+03 -0.54596074781E+02  0.16704128411E+03  0.47000000000E+01 0. -1.
         -5    1    3    3    0  502 -0.19529714466E+02  0.98986173204E+01 -0.12417204142E+02  0.25606040902E+02  0.47000000000E+01 0.  1.
        -11    1    1    2    0    0 -0.16493523829E+02  0.13674442576E+03 -0.68233467018E+03  0.69609746188E+03  0.00000000000E+00 0.  1.
         11    1    1    2    0    0 -0.25774377576E+02 -0.14499857853E+01 -0.55357255721E+02  0.61080657816E+02  0.00000000000E+00 0. -1.
<mgrwt>
<rscale>  0 0.17807741E+03</rscale>
<asrwt>0</asrwt>
<pdfrwt beam="1">  1        2 0.11163095E-01 0.18061620E+03</pdfrwt>
<pdfrwt beam="2">  1       -2 0.13496390E+00 0.18061620E+03</pdfrwt>
<totfact> 0.23194737E+02</totfact>
</mgrwt>
</event>
<event>
 7    1  0.5928109E-006  0.1531552E+03  0.7546771E-02  0.1205532E+00
          1   -1    0    0  501    0  0.00000000000E+00  0.00000000000E+00  0.13688818055E+03  0.13688818055E+03  0.00000000000E+00 0. -1.
         -1   -1    0    0    0  501 -0.00000000000E+00 -0.00000000000E+00 -0.14274189797E+03  0.14274189797E+03  0.00000000000E+00 0.  1.
         23    2    1    2    0    0 -0.85625962806E+02  0.22356249709E+02  0.27361618194E+00  0.15315548909E+03  0.12499968626E+03 0.  0.
          5    1    3    3  502    0  0.17296237401E+02 -0.17552793247E+02  0.29639163655E+02  0.38830791921E+02  0.47000000000E+01 0. -1.
         -5    1    3    3    0  502 -0.10292220021E+03  0.39909042955E+02 -0.29365547474E+02  0.11432469717E+03  0.47000000000E+01 0. -1.
        -11    1    1    2    0    0  0.82899845744E+02 -0.45196271838E+02  0.14562897298E+02  0.95536199370E+02  0.00000000000E+00 0. -1.
         11    1    1    2    0    0  0.27261170626E+01  0.22840022129E+02 -0.20690230893E+02  0.30938390060E+02  0.00000000000E+00 0.  1.
<mgrwt>
<rscale>  0 0.14595607E+03</rscale>
<asrwt>0</asrwt>
<pdfrwt beam="1">  1        1 0.21059720E-01 0.15315524E+03</pdfrwt>
<pdfrwt beam="2">  1       -1 0.21960292E-01 0.15315524E+03</pdfrwt>
<totfact> 0.39883815E+03</totfact>
</mgrwt>
</event>
<event>
 7    1  0.5928109E-006  0.2283233E+03  0.7546771E-02  0.1131067E+00
         -1   -1    0    0    0  501 -0.00000000000E+00  0.00000000000E+00  0.60857677180E+02  0.60857677180E+02  0.00000000000E+00 0.  1.
          1   -1    0    0  501    0  0.00000000000E+00 -0.00000000000E+00 -0.79817294387E+03  0.79817294387E+03  0.00000000000E+00 0. -1.
         23    2    1    2    0    0  0.98681801250E+02  0.16360905256E+03 -0.42020055585E+03  0.47822592012E+03  0.12500201421E+03 0.  0.
          5    1    3    3  502    0  0.85102647356E+02  0.13081543419E+03 -0.41324032666E+03  0.44175196206E+03  0.47000000000E+01 0.  1.
         -5    1    3    3    0  502  0.13579153894E+02  0.32793618364E+02 -0.69602291965E+01  0.36473958057E+02  0.47000000000E+01 0.  1.
        -11    1    1    2    0    0 -0.46488616968E+02 -0.77224375316E+02 -0.23159225547E+03  0.24851512719E+03  0.00000000000E+00 0. -1.
         11    1    1    2    0    0 -0.52193184282E+02 -0.86384677242E+02 -0.85522455369E+02  0.13228957374E+03  0.00000000000E+00 0.  1.
<mgrwt>
<rscale>  0 0.22381914E+03</rscale>
<asrwt>0</asrwt>
<pdfrwt beam="2">  1        1 0.12279582E+00 0.22832329E+03</pdfrwt>
<pdfrwt beam="1">  1       -1 0.93627207E-02 0.22832329E+03</pdfrwt>
<totfact> 0.15596387E+03</totfact>
</mgrwt>
</event>
<event>
 7    1  0.5928109E-006  0.1665016E+03  0.7546771E-02  0.1188469E+00
         -2   -1    0    0    0  501 -0.00000000000E+00  0.00000000000E+00  0.26834885340E+02  0.26834885340E+02  0.00000000000E+00 0.  1.
          2   -1    0    0  501    0  0.00000000000E+00 -0.00000000000E+00 -0.10254939419E+04  0.10254939419E+04  0.00000000000E+00 0. -1.
         23    2    1    2    0    0  0.10964474969E+03 -0.87331217050E+01 -0.72300385404E+03  0.74192813732E+03  0.12499819773E+03 0.  0.
          5    1    3    3  502    0  0.59044868467E+01  0.37760653466E+02 -0.78247695019E+02  0.87209642190E+02  0.47000000000E+01 0.  1.
         -5    1    3    3    0  502  0.10374026284E+03 -0.46493775171E+02 -0.64475615902E+03  0.65471849513E+03  0.47000000000E+01 0.  1.
        -11    1    1    2    0    0 -0.48678992452E+02 -0.29951315085E+02 -0.59496724368E+02  0.82502035078E+02  0.00000000000E+00 0.  1.
         11    1    1    2    0    0 -0.60965757234E+02  0.38684436790E+02 -0.21615847818E+03  0.22789865487E+03  0.00000000000E+00 0. -1.
<mgrwt>
<rscale>  0 0.16020222E+03</rscale>
<asrwt>0</asrwt>
<pdfrwt beam="2">  1        2 0.15776829E+00 0.16650162E+03</pdfrwt>
<pdfrwt beam="1">  1       -2 0.41284442E-02 0.16650162E+03</pdfrwt>
<totfact> 0.65074426E+03</totfact>
</mgrwt>
</event>
<event>
 7    1  0.5928109E-006  0.1415258E+03  0.7546771E-02  0.1221900E+00
          1   -1    0    0  501    0  0.00000000000E+00  0.00000000000E+00  0.11108833229E+04  0.11108833229E+04  0.00000000000E+00 0. -1.
         -1   -1    0    0    0  501 -0.00000000000E+00 -0.00000000000E+00 -0.29641704286E+02  0.29641704286E+02  0.00000000000E+00 0.  1.
         23    2    1    2    0    0 -0.41795548190E+02  0.51482340512E+02  0.97539405522E+03  0.98560799858E+03  0.12502905532E+03 0.  0.
          5    1    3    3  502    0 -0.81028371973E+02  0.45412519038E+02  0.50305429367E+03  0.51157952102E+03  0.47000000000E+01 0. -1.
         -5    1    3    3    0  502  0.39232823783E+02  0.60698214745E+01  0.47233976155E+03  0.47402847756E+03  0.47000000000E+01 0. -1.
        -11    1    1    2    0    0  0.56884999808E+02 -0.59960661534E+02  0.10953622271E+03  0.13722014510E+03  0.00000000000E+00 0. -1.
         11    1    1    2    0    0 -0.15089451618E+02  0.84783210210E+01 -0.36886593385E+01  0.17696883488E+02  0.00000000000E+00 0.  1.
<mgrwt>
<rscale>  0 0.13381639E+03</rscale>
<asrwt>0</asrwt>
<pdfrwt beam="1">  1        1 0.17090509E+00 0.14152584E+03</pdfrwt>
<pdfrwt beam="2">  1       -1 0.45602631E-02 0.14152584E+03</pdfrwt>
<totfact> 0.26502214E+03</totfact>
</mgrwt>
</event>
<event>
 7    1  0.5928109E-006  0.1250080E+03  0.7546771E-02  0.1245807E+00
         -2   -1    0    0    0  501 -0.00000000000E+00  0.00000000000E+00  0.33705279710E+02  0.33705279710E+02  0.00000000000E+00 0.  1.
          2   -1    0    0  501    0  0.00000000000E+00 -0.00000000000E+00 -0.46964106525E+03  0.46964106525E+03  0.00000000000E+00 0. -1.
         23    2    1    2    0    0 -0.40436386081E+02  0.28096894369E+02 -0.34811312316E+03  0.36987802742E+03  0.11490200981E+03 0.  0.
          5    1    3    3  502    0 -0.78764871552E+01 -0.43401032056E+02 -0.15822982500E+03  0.16433032633E+03  0.47000000000E+01 0. -1.
         -5    1    3    3    0  502 -0.32559898926E+02  0.71497926425E+02 -0.18988329816E+03  0.20554770109E+03  0.47000000000E+01 0.  1.
        -11    1    1    2    0    0  0.32590527379E+02 -0.37277371719E+02 -0.10287463110E+03  0.11417063826E+03  0.00000000000E+00 0. -1.
         11    1    1    2    0    0  0.78458587023E+01  0.91804773497E+01  0.15051968722E+02  0.19297679279E+02  0.00000000000E+00 0.  1.
<mgrwt>
<rscale>  0 0.11837196E+03</rscale>
<asrwt>0</asrwt>
<pdfrwt beam="2">  1        2 0.72252465E-01 0.12500803E+03</pdfrwt>
<pdfrwt beam="1">  1       -2 0.51854282E-02 0.12500803E+03</pdfrwt>
<totfact> 0.11664778E+04</totfact>
</mgrwt>
</event>
<event>
 7    1  0.5928109E-006  0.1501625E+03  0.7546771E-02  0.1208693E+00
         -1   -1    0    0    0  501 -0.00000000000E+00  0.00000000000E+00  0.20336225403E+03  0.20336225403E+03  0.00000000000E+00 0.  1.
          1   -1    0    0  501    0  0.00000000000E+00 -0.00000000000E+00 -0.16993060914E+03  0.16993060914E+03  0.00000000000E+00 0. -1.
         23    2    1    2    0    0  0.47209827341E+02 -0.68600284770E+02 -0.10755816411E+03  0.18470934456E+03  0.12495605801E+03 0.  0.
          5    1    3    3  502    0  0.86511214277E+02 -0.45074021203E+02 -0.96624748675E+02  0.13738373135E+03  0.47000000000E+01 0. -1.
         -5    1    3    3    0  502 -0.39301386936E+02 -0.23526263567E+02 -0.10933415432E+02  0.47325613208E+02  0.47000000000E+01 0. -1.
        -11    1    1    2    0    0 -0.98879203107E+00  0.78042931226E+02  0.86350124422E+02  0.11639596562E+03  0.00000000000E+00 0.  1.
         11    1    1    2    0    0 -0.46221035310E+02 -0.94426464553E+01  0.54639684578E+02  0.72187552999E+02  0.00000000000E+00 0. -1.
<mgrwt>
<rscale>  0 0.14350230E+03</rscale>
<asrwt>0</asrwt>
<pdfrwt beam="2">  1        1 0.26143171E-01 0.15016252E+03</pdfrwt>
<pdfrwt beam="1">  1       -1 0.31286501E-01 0.15016252E+03</pdfrwt>
<totfact> 0.16865496E+03</totfact>
</mgrwt>
</event>
<event>
 7    1  0.5928109E-006  0.1950535E+03  0.7546771E-02  0.1159112E+00
         -2   -1    0    0    0  501 -0.00000000000E+00  0.00000000000E+00  0.16050162674E+03  0.16050162674E+03  0.00000000000E+00 0.  1.
          2   -1    0    0  501    0  0.00000000000E+00 -0.00000000000E+00 -0.22707031311E+03  0.22707031311E+03  0.00000000000E+00 0. -1.
         23    2    1    2    0    0  0.11469727957E+03 -0.96255580276E+02  0.16386121476E+02  0.19574057708E+03  0.12500106345E+03 0.  0.
          5    1    3    3  502    0  0.84870333588E+02 -0.29277298617E+02  0.62050456073E+02  0.10923590452E+03  0.47000000000E+01 0. -1.
         -5    1    3    3    0  502  0.29826945977E+02 -0.66978281660E+02 -0.45664334597E+02  0.86504672559E+02  0.47000000000E+01 0. -1.
        -11    1    1    2    0    0  0.26218575335E+00  0.12510766781E+02  0.14700123498E+02  0.19304964587E+02  0.00000000000E+00 0.  1.
         11    1    1    2    0    0 -0.11495946532E+03  0.83744813495E+02 -0.97654931351E+02  0.17252639819E+03  0.00000000000E+00 0. -1.
<mgrwt>
<rscale>  0 0.18928076E+03</rscale>
<asrwt>0</asrwt>
<pdfrwt beam="2">  1        2 0.34933894E-01 0.19505350E+03</pdfrwt>
<pdfrwt beam="1">  1       -2 0.24692558E-01 0.19505350E+03</pdfrwt>
<totfact> 0.21255760E+03</totfact>
</mgrwt>
</event>
<event>
 7    1  0.5928109E-006  0.1304410E+03  0.7546771E-02  0.1242130E+00
          1   -1    0    0  501    0  0.00000000000E+00  0.00000000000E+00  0.28125714252E+03  0.28125714252E+03  0.00000000000E+00 0. -1.
         -1   -1    0    0    0  501 -0.00000000000E+00 -0.00000000000E+00 -0.49106454527E+02  0.49106454527E+02  0.00000000000E+00 0.  1.
         23    2    1    2    0    0  0.31180637237E+02 -0.20414253261E+02  0.17831249975E+03  0.22093031939E+03  0.12500353829E+03 0.  0.
          5    1    3    3  502    0  0.61691820413E+02  0.26809177425E+02  0.13085285732E+03  0.14720452768E+03  0.47000000000E+01 0.  1.
         -5    1    3    3    0  502 -0.30511183176E+02 -0.47223430686E+02  0.47459642428E+02  0.73725791714E+02  0.47000000000E+01 0.  1.
        -11    1    1    2    0    0  0.29948657131E+02  0.13764725575E+02  0.12078925491E+02  0.35103990871E+02  0.00000000000E+00 0.  1.
         11    1    1    2    0    0 -0.61129294368E+02  0.66495276857E+01  0.41759262758E+02  0.74329286788E+02  0.00000000000E+00 0. -1.
<mgrwt>
<rscale>  0 0.12058797E+03</rscale>
<asrwt>0</asrwt>
<pdfrwt beam="1">  1        1 0.43270329E-01 0.13044102E+03</pdfrwt>
<pdfrwt beam="2">  1       -1 0.75548393E-02 0.13044102E+03</pdfrwt>
<totfact> 0.84542874E+03</totfact>
</mgrwt>
</event>
<event>
 7    1  0.5928109E-006  0.1651023E+03  0.7546771E-02  0.1189993E+00
         -2   -1    0    0    0  501 -0.00000000000E+00  0.00000000000E+00  0.18615052333E+03  0.18615052333E+03  0.00000000000E+00 0.  1.
          2   -1    0    0  501    0  0.00000000000E+00 -0.00000000000E+00 -0.12626461049E+03  0.12626461049E+03  0.00000000000E+00 0. -1.
         23    2    1    2    0    0 -0.70223496488E+02  0.81863991078E+02  0.30685660662E+02  0.16792967248E+03  0.12500285051E+03 0.  0.
          5    1    3    3  502    0 -0.96493656419E+01  0.10973236980E+02  0.66262457332E+02  0.68017096665E+02  0.47000000000E+01 0.  1.
         -5    1    3    3    0  502 -0.60574130846E+02  0.70890754098E+02 -0.35576796670E+02  0.99912575814E+02  0.47000000000E+01 0.  1.
        -11    1    1    2    0    0  0.28342778100E+02 -0.93286045761E+02  0.14031197623E+02  0.98501136597E+02  0.00000000000E+00 0.  1.
         11    1    1    2    0    0  0.41880718388E+02  0.11422054683E+02  0.15169054560E+02  0.45984324744E+02  0.00000000000E+00 0. -1.
<mgrwt>
<rscale>  0 0.15885725E+03</rscale>
<asrwt>0</asrwt>
<pdfrwt beam="2">  1        2 0.19425325E-01 0.16510229E+03</pdfrwt>
<pdfrwt beam="1">  1       -2 0.28638542E-01 0.16510229E+03</pdfrwt>
<totfact> 0.31103188E+03</totfact>
</mgrwt>
</event>
<event>
 7    1  0.5928109E-006  0.1506017E+03  0.7546771E-02  0.1208553E+00
          2   -1    0    0  501    0  0.00000000000E+00  0.00000000000E+00  0.42223664412E+03  0.42223664412E+03  0.00000000000E+00 0. -1.
         -2   -1    0    0    0  501 -0.00000000000E+00 -0.00000000000E+00 -0.44852189865E+02  0.44852189865E+02  0.00000000000E+00 0.  1.
         23    2    1    2    0    0  0.83150392617E+02 -0.12014077845E+02  0.21309097684E+03  0.26093799528E+03  0.12499018806E+03 0.  0.
          5    1    3    3  502    0  0.88577619468E+02  0.19840816464E+02  0.20915005194E+03  0.22804711551E+03  0.47000000000E+01 0. -1.
         -5    1    3    3    0  502 -0.54272268503E+01 -0.31854894309E+02  0.39409249010E+01  0.32890879767E+02  0.47000000000E+01 0. -1.
        -11    1    1    2    0    0 -0.28760178600E+02  0.46443407042E+02  0.45737502454E+02  0.71246452975E+02  0.00000000000E+00 0.  1.
         11    1    1    2    0    0 -0.54390214018E+02 -0.34429329198E+02  0.11855597496E+03  0.13490438573E+03  0.00000000000E+00 0. -1.
<mgrwt>
<rscale>  0 0.14360986E+03</rscale>
<asrwt>0</asrwt>
<pdfrwt beam="1">  1        2 0.64959481E-01 0.15060170E+03</pdfrwt>
<pdfrwt beam="2">  1       -2 0.69003372E-02 0.15060170E+03</pdfrwt>
<totfact> 0.85963906E+03</totfact>
</mgrwt>
</event>
<event>
 7    1  0.5928109E-006  0.1353581E+03  0.7546771E-02  0.1232457E+00
          1   -1    0    0  501    0  0.00000000000E+00  0.00000000000E+00  0.20542798166E+03  0.20542798166E+03  0.00000000000E+00 0. -1.
         -1   -1    0    0    0  501 -0.00000000000E+00 -0.00000000000E+00 -0.69966319141E+02  0.69966319141E+02  0.00000000000E+00 0.  1.
         23    2    1    2    0    0 -0.47548958669E+02 -0.20832499887E+02  0.85875572588E+02  0.16030106210E+03  0.12500767985E+03 0.  0.
          5    1    3    3  502    0  0.26595298040E+02 -0.89233441388E+01  0.79912566935E+02  0.84823606989E+02  0.47000000000E+01 0. -1.
         -5    1    3    3    0  502 -0.74144256710E+02 -0.11909155748E+02  0.59630056532E+01  0.75477455111E+02  0.47000000000E+01 0. -1.
        -11    1    1    2    0    0  0.70457254637E+02  0.21988525922E+02  0.17851125679E+02  0.75936701872E+02  0.00000000000E+00 0.  1.
         11    1    1    2    0    0 -0.22908295968E+02 -0.11560260350E+01  0.31734964254E+02  0.39156536831E+02  0.00000000000E+00 0. -1.
<mgrwt>
<rscale>  0 0.12668616E+03</rscale>
<asrwt>0</asrwt>
<pdfrwt beam="1">  1        1 0.31604305E-01 0.13535810E+03</pdfrwt>
<pdfrwt beam="2">  1       -1 0.10764049E-01 0.13535810E+03</pdfrwt>
<totfact> 0.73064632E+03</totfact>
</mgrwt>
</event>
<event>
 7    1  0.5928109E-006  0.1696546E+03  0.7546771E-02  0.1184728E+00
          2   -1    0    0  501    0  0.00000000000E+00  0.00000000000E+00  0.14544288043E+04  0.14544288043E+04  0.00000000000E+00 0. -1.
         -2   -1    0    0    0  501 -0.00000000000E+00 -0.00000000000E+00 -0.22495194823E+02  0.22495194823E+02  0.00000000000E+00 0.  1.
         23    2    1    2    0    0 -0.10783668451E+03 -0.39101686029E+02  0.11137781676E+04  0.11266252720E+04  0.12500001870E+03 0.  0.
          5    1    3    3  502    0 -0.62813165265E+02  0.25076080238E+02  0.81094352560E+03  0.81377256973E+03  0.47000000000E+01 0. -1.
         -5    1    3    3    0  502 -0.45023519242E+02 -0.64177766267E+02  0.30283464198E+03  0.31285270232E+03  0.47000000000E+01 0. -1.
        -11    1    1    2    0    0  0.47076975579E+02 -0.27951992788E+02  0.14360755691E+03  0.15369022718E+03  0.00000000000E+00 0.  1.
         11    1    1    2    0    0  0.60759708928E+02  0.67053678817E+02  0.17454788495E+03  0.19660849985E+03  0.00000000000E+00 0. -1.
<mgrwt>
<rscale>  0 0.16356657E+03</rscale>
<asrwt>0</asrwt>
<pdfrwt beam="1">  1        2 0.22375820E+00 0.16965464E+03</pdfrwt>
<pdfrwt beam="2">  1       -2 0.34608003E-02 0.16965464E+03</pdfrwt>
<totfact> 0.48917992E+03</totfact>
</mgrwt>
</event>
<event>
 7    1  0.5928109E-006  0.1387514E+03  0.7546771E-02  0.1231236E+00
          2   -1    0    0  501    0  0.00000000000E+00  0.00000000000E+00  0.12327436984E+04  0.12327436984E+04  0.00000000000E+00 0. -1.
         -2   -1    0    0    0  501 -0.00000000000E+00 -0.00000000000E+00 -0.11802323313E+02  0.11802323313E+02  0.00000000000E+00 0.  1.
         23    2    1    2    0    0  0.12217355541E+02  0.58958911429E+02  0.81556800475E+03  0.82728660089E+03  0.12500613041E+03 0.  0.
          5    1    3    3  502    0  0.65108240760E+02  0.47895203861E+02  0.39311279120E+03  0.40136366324E+03  0.47000000000E+01 0. -1.
         -5    1    3    3    0  502 -0.52890885219E+02  0.11063707568E+02  0.42245521355E+03  0.42592293765E+03  0.47000000000E+01 0. -1.
        -11    1    1    2    0    0 -0.33873413249E+02 -0.67490234862E+02  0.30196851445E+03  0.31126728651E+03  0.00000000000E+00 0. -1.
         11    1    1    2    0    0  0.21656057708E+02  0.85313234328E+01  0.10340485586E+03  0.10599213428E+03  0.00000000000E+00 0.  1.
<mgrwt>
<rscale>  0 0.12748482E+03</rscale>
<asrwt>0</asrwt>
<pdfrwt beam="1">  1        2 0.18965278E+00 0.13875140E+03</pdfrwt>
<pdfrwt beam="2">  1       -2 0.18157430E-02 0.13875140E+03</pdfrwt>
<totfact> 0.16436093E+04</totfact>
</mgrwt>
</event>
<event>
 7    1  0.5928109E-006  0.1377678E+03  0.7546771E-02  0.1229007E+00
          2   -1    0    0  501    0  0.00000000000E+00  0.00000000000E+00  0.22213059928E+03  0.22213059928E+03  0.00000000000E+00 0. -1.
         -2   -1    0    0    0  501 -0.00000000000E+00 -0.00000000000E+00 -0.13760515319E+03  0.13760515319E+03  0.00000000000E+00 0.  1.
         23    2    1    2    0    0 -0.56183741518E+01  0.57646413552E+02  0.17348005304E+03  0.22152946948E+03  0.12500120767E+03 0.  0.
          5    1    3    3  502    0 -0.25479588608E+00 -0.16456641601E+02 -0.12505290458E+02  0.21198072157E+02  0.47000000000E+01 0. -1.
         -5    1    3    3    0  502 -0.53635782657E+01  0.74103055153E+02  0.18598534350E+03  0.20033139732E+03  0.47000000000E+01 0. -1.
        -11    1    1    2    0    0  0.46942009292E+02 -0.27362334236E+02 -0.41465125071E+02  0.68349148995E+02  0.00000000000E+00 0.  1.
         11    1    1    2    0    0 -0.41323635140E+02 -0.30284079317E+02 -0.47489481881E+02  0.69857133999E+02  0.00000000000E+00 0. -1.
<mgrwt>
<rscale>  0 0.12896005E+03</rscale>
<asrwt>0</asrwt>
<pdfrwt beam="1">  1        2 0.34173938E-01 0.13776784E+03</pdfrwt>
<pdfrwt beam="2">  1       -2 0.21170024E-01 0.13776784E+03</pdfrwt>
<totfact> 0.28017311E+03</totfact>
</mgrwt>
</event>
<event>
 7    1  0.5928109E-006  0.1766921E+03  0.7546771E-02  0.1176695E+00
          1   -1    0    0  501    0  0.00000000000E+00  0.00000000000E+00  0.53836953032E+03  0.53836953032E+03  0.00000000000E+00 0. -1.
         -1   -1    0    0    0  501 -0.00000000000E+00 -0.00000000000E+00 -0.74233738291E+02  0.74233738291E+02  0.00000000000E+00 0.  1.
         23    2    1    2    0    0 -0.12115548115E+03  0.30278672731E+02  0.41266104552E+03  0.44889778895E+03  0.12499855117E+03 0.  0.
          5    1    3    3  502    0 -0.12275115844E+03  0.10914566330E+02  0.19771513192E+03  0.23302432930E+03  0.47000000000E+01 0.  1.
         -5    1    3    3    0  502  0.15956772985E+01  0.19364106401E+02  0.21494591361E+03  0.21587345965E+03  0.47000000000E+01 0.  1.
        -11    1    1    2    0    0  0.62244378095E+02 -0.17560806105E+02  0.74977191984E+02  0.99016785614E+02  0.00000000000E+00 0. -1.
         11    1    1    2    0    0  0.58911103050E+02 -0.12717866626E+02 -0.23502445481E+02  0.64688694049E+02  0.00000000000E+00 0.  1.
<mgrwt>
<rscale>  0 0.17111066E+03</rscale>
<asrwt>0</asrwt>
<pdfrwt beam="1">  1        1 0.82826079E-01 0.17669207E+03</pdfrwt>
<pdfrwt beam="2">  1       -1 0.11420575E-01 0.17669207E+03</pdfrwt>
<totfact> 0.20025023E+03</totfact>
</mgrwt>
</event>
<event>
 7    1  0.5928109E-006  0.1307787E+03  0.7546771E-02  0.1241253E+00
          2   -1    0    0  501    0  0.00000000000E+00  0.00000000000E+00  0.27392391867E+03  0.27392391867E+03  0.00000000000E+00 0. -1.
         -2   -1    0    0    0  501 -0.00000000000E+00 -0.00000000000E+00 -0.47037635192E+02  0.47037635192E+02  0.00000000000E+00 0.  1.
         23    2    1    2    0    0 -0.32474252779E+02 -0.20526678934E+02  0.13229955097E+03  0.18602754380E+03  0.12500861660E+03 0.  0.
          5    1    3    3  502    0 -0.63355567068E+02  0.19343042445E+02  0.32113201290E+02  0.73766041419E+02  0.47000000000E+01 0.  1.
         -5    1    3    3    0  502  0.30881314289E+02 -0.39869721379E+02  0.10018634968E+03  0.11226150238E+03  0.47000000000E+01 0.  1.
        -11    1    1    2    0    0 -0.23592913245E+02  0.69208901823E+00  0.47739695739E+00  0.23607889581E+02  0.00000000000E+00 0.  1.
         11    1    1    2    0    0  0.56067166024E+02  0.19834589915E+02  0.94109335547E+02  0.11132612048E+03  0.00000000000E+00 0. -1.
<mgrwt>
<rscale>  0 0.12112460E+03</rscale>
<asrwt>0</asrwt>
<pdfrwt beam="1">  1        2 0.42142141E-01 0.13077873E+03</pdfrwt>
<pdfrwt beam="2">  1       -2 0.72365594E-02 0.13077873E+03</pdfrwt>
<totfact> 0.12536523E+04</totfact>
</mgrwt>
</event>
<event>
 7    1  0.5928109E-006  0.1651844E+03  0.7546771E-02  0.1189751E+00
          2   -1    0    0  501    0  0.00000000000E+00  0.00000000000E+00  0.91502187724E+02  0.91502187724E+02  0.00000000000E+00 0. -1.
         -2   -1    0    0    0  501 -0.00000000000E+00 -0.00000000000E+00 -0.29121437751E+03  0.29121437751E+03  0.00000000000E+00 0.  1.
         23    2    1    2    0    0  0.53822203943E+02  0.93618833944E+02 -0.41953271227E+02  0.17042877531E+03  0.12499829911E+03 0.  0.
          5    1    3    3  502    0  0.13635771735E+02 -0.22779046272E+02 -0.38688284777E+02  0.47156045200E+02  0.47000000000E+01 0.  1.
         -5    1    3    3    0  502  0.40186432208E+02  0.11639788022E+03 -0.32649864502E+01  0.12327273011E+03  0.47000000000E+01 0.  1.
        -11    1    1    2    0    0 -0.46172135743E+01 -0.92274977979E+02 -0.11069621260E+03  0.14418613563E+03  0.00000000000E+00 0. -1.
         11    1    1    2    0    0 -0.49204990369E+02 -0.13438559654E+01 -0.47062705952E+02  0.68101654294E+02  0.00000000000E+00 0.  1.
<mgrwt>
<rscale>  0 0.15906960E+03</rscale>
<asrwt>0</asrwt>
<pdfrwt beam="1">  1        2 0.14077260E-01 0.16518441E+03</pdfrwt>
<pdfrwt beam="2">  1       -2 0.44802212E-01 0.16518441E+03</pdfrwt>
<totfact> 0.19652245E+03</totfact>
</mgrwt>
</event>
<event>
 7    1  0.5928109E-006  0.6046287E+03  0.7546771E-02  0.9895849E-01
          1   -1    0    0  501    0  0.00000000000E+00  0.00000000000E+00  0.49236428584E+03  0.49236428584E+03  0.00000000000E+00 0. -1.
         -1   -1    0    0    0  501 -0.00000000000E+00 -0.00000000000E+00 -0.18562267684E+03  0.18562267684E+03  0.00000000000E+00 0.  1.
         23    2    1    2    0    0 -0.23587954093E+03 -0.62108301080E+02  0.12699949385E+03  0.30041790398E+03  0.12093571310E+03 0.  0.
          5    1    3    3  502    0 -0.15000719374E+03  0.16403312913E+02  0.99352715131E+02  0.18073261701E+03  0.47000000000E+01 0. -1.
         -5    1    3    3    0  502 -0.85872347188E+02 -0.78511613993E+02  0.27646778719E+02  0.11968528697E+03  0.47000000000E+01 0.  1.
        -11    1    1    2    0    0  0.21167908530E+03 -0.49801821670E+02  0.11366167178E+03  0.24537162066E+03  0.00000000000E+00 0.  1.
         11    1    1    2    0    0  0.24200455633E+02  0.11191012275E+03  0.66080443376E+02  0.13219743804E+03  0.00000000000E+00 0. -1.
<mgrwt>
<rscale>  0 0.60462873E+03</rscale>
<asrwt>0</asrwt>
<pdfrwt beam="1">  1        1 0.75748351E-01 0.60462873E+03</pdfrwt>
<pdfrwt beam="2">  1       -1 0.28557335E-01 0.60462873E+03</pdfrwt>
<totfact> 0.50884199E+02</totfact>
</mgrwt>
</event>
<event>
 7    1  0.5928109E-006  0.2258375E+03  0.7546771E-02  0.1132739E+00
          1   -1    0    0  501    0  0.00000000000E+00  0.00000000000E+00  0.20794581261E+03  0.20794581261E+03  0.00000000000E+00 0. -1.
         -1   -1    0    0    0  501 -0.00000000000E+00 -0.00000000000E+00 -0.30859222020E+03  0.30859222020E+03  0.00000000000E+00 0.  1.
         23    2    1    2    0    0 -0.15635979164E+03  0.10454540430E+03  0.80601387240E+02  0.23978980234E+03  0.12499775869E+03 0.  0.
          5    1    3    3  502    0 -0.92515152193E+02 -0.95910305308E+01  0.18547049383E+02  0.94958539862E+02  0.47000000000E+01 0. -1.
         -5    1    3    3    0  502 -0.63844639448E+02  0.11413643483E+03  0.62054337857E+02  0.14483126247E+03  0.47000000000E+01 0. -1.
        -11    1    1    2    0    0  0.41967422045E+02 -0.52479869116E+02 -0.15894473704E+02  0.69050962846E+02  0.00000000000E+00 0. -1.
         11    1    1    2    0    0  0.11439236960E+03 -0.52065535186E+02 -0.16535332113E+03  0.20769726764E+03  0.00000000000E+00 0.  1.
<mgrwt>
<rscale>  0 0.22154165E+03</rscale>
<asrwt>0</asrwt>
<pdfrwt beam="1">  1        1 0.31991663E-01 0.22583748E+03</pdfrwt>
<pdfrwt beam="2">  1       -1 0.47475726E-01 0.22583748E+03</pdfrwt>
<totfact> 0.63299865E+02</totfact>
</mgrwt>
</event>
<event>
 7    1  0.5928109E-006  0.1255686E+03  0.7546771E-02  0.1247258E+00
          1   -1    0    0  501    0  0.00000000000E+00  0.00000000000E+00  0.55633507727E+03  0.55633507727E+03  0.00000000000E+00 0. -1.
         -1   -1    0    0    0  501 -0.00000000000E+00 -0.00000000000E+00 -0.23158224386E+02  0.23158224386E+02  0.00000000000E+00 0.  1.
         23    2    1    2    0    0 -0.33258518903E+02  0.78797739609E+00  0.36090105626E+03  0.38212176392E+03  0.12108146043E+03 0.  0.
          5    1    3    3  502    0  0.17750552397E+02  0.50066851807E+02  0.18082811400E+03  0.18852763345E+03  0.47000000000E+01 0. -1.
         -5    1    3    3    0  502 -0.51009071300E+02 -0.49278874411E+02  0.18007294226E+03  0.19359413047E+03  0.47000000000E+01 0.  1.
        -11    1    1    2    0    0  0.10907125184E+02  0.37435245337E+02  0.13156708534E+03  0.13722339786E+03  0.00000000000E+00 0. -1.
         11    1    1    2    0    0  0.22351393719E+02 -0.38223222733E+02  0.40708711276E+02  0.60148139880E+02  0.00000000000E+00 0.  1.
<mgrwt>
<rscale>  0 0.11751254E+03</rscale>
<asrwt>0</asrwt>
<pdfrwt beam="1">  1        1 0.85590001E-01 0.12556859E+03</pdfrwt>
<pdfrwt beam="2">  1       -1 0.35628042E-02 0.12556859E+03</pdfrwt>
<totfact> 0.10814045E+04</totfact>
</mgrwt>
</event>
<event>
 7    1  0.5928109E-006  0.1311500E+03  0.7546771E-02  0.1239006E+00
          1   -1    0    0  501    0  0.00000000000E+00  0.00000000000E+00  0.39873912999E+03  0.39873912999E+03  0.00000000000E+00 0. -1.
         -1   -1    0    0    0  501 -0.00000000000E+00 -0.00000000000E+00 -0.33466589518E+02  0.33466589518E+02  0.00000000000E+00 0.  1.
         23    2    1    2    0    0  0.27799715012E+02 -0.28294955711E+02  0.20970040775E+03  0.24733498256E+03  0.12500761542E+03 0.  0.
          5    1    3    3  502    0  0.16371522158E+02  0.43757304376E+02  0.36941040073E+02  0.59744948453E+02  0.47000000000E+01 0. -1.
         -5    1    3    3    0  502  0.11428192854E+02 -0.72052260087E+02  0.17275936767E+03  0.18759003410E+03  0.47000000000E+01 0. -1.
        -11    1    1    2    0    0  0.11887370071E+02  0.50877707208E+02  0.10100768427E+03  0.11372072344E+03  0.00000000000E+00 0.  1.
         11    1    1    2    0    0 -0.39687085083E+02 -0.22582751497E+02  0.54564448456E+02  0.71150013513E+02  0.00000000000E+00 0. -1.
<mgrwt>
<rscale>  0 0.12251456E+03</rscale>
<asrwt>0</asrwt>
<pdfrwt beam="1">  1        1 0.61344478E-01 0.13115004E+03</pdfrwt>
<pdfrwt beam="2">  1       -1 0.51487064E-02 0.13115004E+03</pdfrwt>
<totfact> 0.97044340E+03</totfact>
</mgrwt>
</event>
<event>
 7    1  0.5928109E-006  0.2213540E+03  0.7546771E-02  0.1136326E+00
         -2   -1    0    0    0  501 -0.00000000000E+00  0.00000000000E+00  0.46742804919E+03  0.46742804919E+03  0.00000000000E+00 0.  1.
          2   -1    0    0  501    0  0.00000000000E+00 -0.00000000000E+00 -0.99322156261E+02  0.99322156261E+02  0.00000000000E+00 0. -1.
         23    2    1    2    0    0 -0.18095084399E+03  0.25061361325E+02  0.23886055310E+03  0.32565621973E+03  0.12500531928E+03 0.  0.
          5    1    3    3  502    0  0.10503508836E+02 -0.63578951095E+01  0.61032136969E+02  0.62432029209E+02  0.47000000000E+01 0. -1.
         -5    1    3    3    0  502 -0.19145435283E+03  0.31419256434E+02  0.17782841613E+03  0.26322419052E+03  0.47000000000E+01 0. -1.
        -11    1    1    2    0    0  0.14544407550E+03  0.12391899360E+02  0.11933364831E+03  0.18854192607E+03  0.00000000000E+00 0.  1.
         11    1    1    2    0    0  0.35506768498E+02 -0.37453260685E+02  0.99116915195E+01  0.52552059654E+02  0.00000000000E+00 0. -1.
<mgrwt>
<rscale>  0 0.21675514E+03</rscale>
<asrwt>0</asrwt>
<pdfrwt beam="2">  1        2 0.15280332E-01 0.22135404E+03</pdfrwt>
<pdfrwt beam="1">  1       -2 0.71912006E-01 0.22135404E+03</pdfrwt>
<totfact> 0.68390069E+02</totfact>
</mgrwt>
</event>
<event>
 6    1  0.5928109E-006  0.2125363E+03  0.7546771E-02  0.1140345E+00
         -2   -1    0    0    0  501 -0.00000000000E+00  0.00000000000E+00  0.71960626133E+03  0.71960626133E+03  0.00000000000E+00 0.  1.
          2   -1    0    0  501    0  0.00000000000E+00 -0.00000000000E+00 -0.83135234259E+02  0.83135234259E+02  0.00000000000E+00 0. -1.
          5    1    1    2  502    0 -0.46071996645E+02 -0.17156041891E+02 -0.31774965037E+02  0.58725608139E+02  0.47000000000E+01 0. -1.
         -5    1    1    2    0  502 -0.57313770758E+02 -0.87984850434E+02  0.14363097861E+03  0.17798356734E+03  0.47000000000E+01 0.  1.
        -11    1    1    2    0    0  0.49239550065E+02  0.13888511868E+03  0.33514710476E+03  0.36611090029E+03  0.00000000000E+00 0.  1.
         11    1    1    2    0    0  0.54146217338E+02 -0.33744226355E+02  0.18946790873E+03  0.19992141982E+03  0.00000000000E+00 0. -1.
<mgrwt>
<rscale>  0 0.21154865E+03</rscale>
<asrwt>0</asrwt>
<pdfrwt beam="2">  1        2 0.12790037E-01 0.21253629E+03</pdfrwt>
<pdfrwt beam="1">  1       -2 0.11070865E+00 0.21253629E+03</pdfrwt>
<totfact> 0.31859372E+02</totfact>
</mgrwt>
</event>
<event>
 7    1  0.5928109E-006  0.2203674E+03  0.7546771E-02  0.1137580E+00
          2   -1    0    0  501    0  0.00000000000E+00  0.00000000000E+00  0.76210700272E+03  0.76210700272E+03  0.00000000000E+00 0. -1.
         -2   -1    0    0    0  501 -0.00000000000E+00 -0.00000000000E+00 -0.59891077202E+02  0.59891077202E+02  0.00000000000E+00 0.  1.
         23    2    1    2    0    0 -0.10260401624E+03  0.14969362016E+03  0.29439465423E+03  0.36773632685E+03  0.12500411826E+03 0.  0.
          5    1    3    3  502    0 -0.56988250100E+02  0.13509488599E+03  0.12855729962E+03  0.19505732018E+03  0.47000000000E+01 0. -1.
         -5    1    3    3    0  502 -0.45615766143E+02  0.14598734163E+02  0.16583735461E+03  0.17267900667E+03  0.47000000000E+01 0. -1.
        -11    1    1    2    0    0  0.47516721392E+02 -0.10169805838E+03  0.32489818593E+03  0.34374287645E+03  0.00000000000E+00 0.  1.
         11    1    1    2    0    0  0.55087294851E+02 -0.47995561776E+02  0.82923085359E+02  0.11051887662E+03  0.00000000000E+00 0. -1.
<mgrwt>
<rscale>  0 0.21511280E+03</rscale>
<asrwt>0</asrwt>
<pdfrwt beam="1">  1        2 0.11724722E+00 0.22036741E+03</pdfrwt>
<pdfrwt beam="2">  1       -2 0.92140124E-02 0.22036741E+03</pdfrwt>
<totfact> 0.28350778E+03</totfact>
</mgrwt>
</event>
<event>
 7    1  0.5928109E-006  0.1369777E+03  0.7546771E-02  0.1229007E+00
          1   -1    0    0  501    0  0.00000000000E+00  0.00000000000E+00  0.68751554738E+03  0.68751554738E+03  0.00000000000E+00 0. -1.
         -1   -1    0    0    0  501 -0.00000000000E+00 -0.00000000000E+00 -0.21778217847E+02  0.21778217847E+02  0.00000000000E+00 0.  1.
         23    2    1    2    0    0 -0.83205453946E+01 -0.55394210780E+02  0.36110590810E+03  0.38621283620E+03  0.12500051166E+03 0.  0.
          5    1    3    3  502    0 -0.43800904602E+02 -0.64981736993E+02  0.32547165349E+03  0.33480596263E+03  0.47000000000E+01 0.  1.
         -5    1    3    3    0  502  0.35480359208E+02  0.95875262126E+01  0.35634254609E+02  0.51406873567E+02  0.47000000000E+01 0.  1.
        -11    1    1    2    0    0 -0.38932640856E+02  0.88586836222E+01  0.14031330668E+03  0.14588368939E+03  0.00000000000E+00 0.  1.
         11    1    1    2    0    0  0.47253186250E+02  0.46535527158E+02  0.16431811476E+03  0.17719723964E+03  0.00000000000E+00 0. -1.
<mgrwt>
<rscale>  0 0.12896013E+03</rscale>
<asrwt>0</asrwt>
<pdfrwt beam="1">  1        1 0.10577161E+00 0.13697766E+03</pdfrwt>
<pdfrwt beam="2">  1       -1 0.33504956E-02 0.13697766E+03</pdfrwt>
<totfact> 0.88977728E+03</totfact>
</mgrwt>
</event>
<event>
 7    1  0.5928109E-006  0.2752229E+03  0.7546771E-02  0.1100344E+00
          2   -1    0    0  501    0  0.00000000000E+00  0.00000000000E+00  0.20026137304E+04  0.20026137304E+04  0.00000000000E+00 0. -1.
         -2   -1    0    0    0  501 -0.00000000000E+00 -0.00000000000E+00 -0.36021326368E+02  0.36021326368E+02  0.00000000000E+00 0.  1.
         23    2    1    2    0    0 -0.22258154994E+03  0.10285525744E+03  0.95455026885E+03  0.99343537703E+03  0.12500352880E+03 0.  0.
          5    1    3    3  502    0 -0.19428603342E+03  0.12317540688E+03  0.89664054600E+03  0.92569195868E+03  0.47000000000E+01 0.  1.
         -5    1    3    3    0  502 -0.28295516520E+02 -0.20320149439E+02  0.57909722857E+02  0.67743418350E+02  0.47000000000E+01 0.  1.
        -11    1    1    2    0    0  0.16153173846E+03 -0.61383908873E+02  0.84639781028E+03  0.86385747670E+03  0.00000000000E+00 0. -1.
         11    1    1    2    0    0  0.61049811479E+02 -0.41471348568E+02  0.16564432493E+03  0.18134220308E+03  0.00000000000E+00 0.  1.
<mgrwt>
<rscale>  0 0.27164196E+03</rscale>
<asrwt>0</asrwt>
<pdfrwt beam="1">  1        2 0.30809433E+00 0.27522288E+03</pdfrwt>
<pdfrwt beam="2">  1       -2 0.55417441E-02 0.27522288E+03</pdfrwt>
<totfact> 0.12381415E+03</totfact>
</mgrwt>
</event>
<event>
 7    1  0.5928109E-006  0.1419756E+03  0.7546771E-02  0.1221277E+00
         -1   -1    0    0    0  501 -0.00000000000E+00  0.00000000000E+00  0.80410388549E+02  0.80410388549E+02  0.00000000000E+00 0.  1.
          1   -1    0    0  501    0  0.00000000000E+00 -0.00000000000E+00 -0.26824855168E+03  0.26824855168E+03  0.00000000000E+00 0. -1.
         23    2    1    2    0    0 -0.32621674118E+02  0.58891561331E+02 -0.18743942137E+03  0.23513952814E+03  0.12499868555E+03 0.  0.
          5    1    3    3  502    0 -0.15891070867E+02 -0.36573734841E+02 -0.29697361842E+02  0.49941841315E+02  0.47000000000E+01 0.  1.
         -5    1    3    3    0  502 -0.16730603251E+02  0.95465296172E+02 -0.15774205953E+03  0.18519768682E+03  0.47000000000E+01 0.  1.
        -11    1    1    2    0    0 -0.21913254017E+02 -0.54197747863E+02 -0.44758916852E+01  0.58631221900E+02  0.00000000000E+00 0.  1.
         11    1    1    2    0    0  0.54534928135E+02 -0.46938134676E+01  0.40771499256E+01  0.54888190197E+02  0.00000000000E+00 0. -1.
<mgrwt>
<rscale>  0 0.13425395E+03</rscale>
<asrwt>0</asrwt>
<pdfrwt beam="2">  1        1 0.41269008E-01 0.14197556E+03</pdfrwt>
<pdfrwt beam="1">  1       -1 0.12370829E-01 0.14197556E+03</pdfrwt>
<totfact> 0.42498479E+03</totfact>
</mgrwt>
</event>
<event>
 7    1  0.5928109E-006  0.1363700E+03  0.7546771E-02  0.1229510E+00
          2   -1    0    0  501    0  0.00000000000E+00  0.00000000000E+00  0.80751608739E+03  0.80751608739E+03  0.00000000000E+00 0.  1.
         -2   -1    0    0    0  501 -0.00000000000E+00 -0.00000000000E+00 -0.22912070740E+02  0.22912070740E+02  0.00000000000E+00 0. -1.
         23    2    1    2    0    0 -0.52787456484E+02  0.13608186666E+02  0.61080087465E+03  0.62583901968E+03  0.12500028710E+03 0.  0.
          5    1    3    3  502    0 -0.81721004064E+02 -0.26299795482E+02  0.42065496863E+03  0.42935148117E+03  0.47000000000E+01 0. -1.
         -5    1    3    3    0  502  0.28933547580E+02  0.39907982148E+02  0.19014590602E+03  0.19648753851E+03  0.47000000000E+01 0. -1.
        -11    1    1    2    0    0  0.74266965666E+02 -0.94035912974E+01  0.16464244973E+03  0.18086222926E+03  0.00000000000E+00 0.  1.
         11    1    1    2    0    0 -0.21479509182E+02 -0.42045953686E+01  0.91606922663E+01  0.23726909190E+02  0.00000000000E+00 0. -1.
<mgrwt>
<rscale>  0 0.12862518E+03</rscale>
<asrwt>0</asrwt>
<pdfrwt beam="1">  1        2 0.12423322E+00 0.13636997E+03</pdfrwt>
<pdfrwt beam="2">  1       -2 0.35249346E-02 0.13636997E+03</pdfrwt>
<totfact> 0.11174577E+04</totfact>
</mgrwt>
</event>
<event>
 7    1  0.5928109E-006  0.1384443E+03  0.7546771E-02  0.1226943E+00
         -2   -1    0    0    0  501 -0.00000000000E+00  0.00000000000E+00  0.45240329710E+02  0.45240329710E+02  0.00000000000E+00 0.  1.
          2   -1    0    0  501    0  0.00000000000E+00 -0.00000000000E+00 -0.33777874533E+03  0.33777874533E+03  0.00000000000E+00 0. -1.
         23    2    1    2    0    0  0.58890197221E+02 -0.84300655152E+01 -0.16263837240E+03  0.21358384082E+03  0.12501078174E+03 0.  0.
          5    1    3    3  502    0  0.89918817908E+02  0.97510926097E+01 -0.14991386824E+03  0.17514775337E+03  0.47000000000E+01 0. -1.
         -5    1    3    3    0  502 -0.31028620687E+02 -0.18181158125E+02 -0.12724504155E+02  0.38436087450E+02  0.47000000000E+01 0. -1.
        -11    1    1    2    0    0 -0.10772147164E+02  0.14183075654E+02  0.10659496042E+02  0.20756291707E+02  0.00000000000E+00 0.  1.
         11    1    1    2    0    0 -0.48118050057E+02 -0.57530101391E+01 -0.14055953926E+03  0.14867894251E+03  0.00000000000E+00 0. -1.
<mgrwt>
<rscale>  0 0.13034638E+03</rscale>
<asrwt>0</asrwt>
<pdfrwt beam="2">  1        2 0.51965962E-01 0.13844427E+03</pdfrwt>
<pdfrwt beam="1">  1       -2 0.69600506E-02 0.13844427E+03</pdfrwt>
<totfact> 0.10705106E+04</totfact>
</mgrwt>
</event>
<event>
 7    1  0.5928109E-006  0.1266995E+03  0.7546771E-02  0.1247470E+00
          1   -1    0    0  501    0  0.00000000000E+00  0.00000000000E+00  0.17021811118E+03  0.17021811118E+03  0.00000000000E+00 0. -1.
         -1   -1    0    0    0  501 -0.00000000000E+00 -0.00000000000E+00 -0.77750330074E+02  0.77750330074E+02  0.00000000000E+00 0.  1.
         23    2    1    2    0    0 -0.20603785104E+02 -0.19827021862E+01  0.88453802894E+02  0.15452131193E+03  0.12499725408E+03 0.  0.
          5    1    3    3  502    0 -0.48505468843E+02  0.47190688591E+02  0.33985342341E+02  0.75873810313E+02  0.47000000000E+01 0.  1.
         -5    1    3    3    0  502  0.27901683739E+02 -0.49173390777E+02  0.54468460553E+02  0.78647501619E+02  0.47000000000E+01 0.  1.
        -11    1    1    2    0    0  0.32350832593E+02  0.21084294837E+02  0.37052915028E+02  0.53516748503E+02  0.00000000000E+00 0. -1.
         11    1    1    2    0    0 -0.11747047489E+02 -0.19101592651E+02 -0.33038936815E+02  0.39930380819E+02  0.00000000000E+00 0.  1.
<mgrwt>
<rscale>  0 0.11738764E+03</rscale>
<asrwt>0</asrwt>
<pdfrwt beam="1">  1        1 0.26187402E-01 0.12669949E+03</pdfrwt>
<pdfrwt beam="2">  1       -1 0.11961589E-01 0.12669949E+03</pdfrwt>
<totfact> 0.78144119E+03</totfact>
</mgrwt>
</event>
<event>
 7    1  0.5928109E-006  0.1974367E+03  0.7546771E-02  0.1156483E+00
          2   -1    0    0  501    0  0.00000000000E+00  0.00000000000E+00  0.73367558128E+02  0.73367558128E+02  0.00000000000E+00 0. -1.
         -2   -1    0    0    0  501 -0.00000000000E+00 -0.00000000000E+00 -0.51903207254E+03  0.51903207254E+03  0.00000000000E+00 0.  1.
         23    2    1    2    0    0 -0.15166878784E+03  0.18783568886E+02 -0.15131526841E+03  0.24875200261E+03  0.12500001874E+03 0.  0.
          5    1    3    3  502    0 -0.16315437844E+03 -0.27752178005E+00 -0.97007460104E+02  0.18987355145E+03  0.47000000000E+01 0. -1.
         -5    1    3    3    0  502  0.11485590601E+02  0.19061090666E+02 -0.54307808303E+02  0.58878451164E+02  0.47000000000E+01 0. -1.
        -11    1    1    2    0    0  0.54162097910E+02 -0.26940222157E+02 -0.43841790392E+02  0.74708841543E+02  0.00000000000E+00 0. -1.
         11    1    1    2    0    0  0.97506689931E+02  0.81566532716E+01 -0.25050745561E+03  0.26893878652E+03  0.00000000000E+00 0.  1.
<mgrwt>
<rscale>  0 0.19221059E+03</rscale>
<asrwt>0</asrwt>
<pdfrwt beam="1">  1        2 0.11287316E-01 0.19743669E+03</pdfrwt>
<pdfrwt beam="2">  1       -2 0.79851090E-01 0.19743669E+03</pdfrwt>
<totfact> 0.78190453E+02</totfact>
</mgrwt>
</event>
<event>
 7    1  0.5928109E-006  0.1503723E+03  0.7546771E-02  0.1204676E+00
         -1   -1    0    0    0  501 -0.00000000000E+00  0.00000000000E+00  0.49025361046E+03  0.49025361046E+03  0.00000000000E+00 0.  1.
          1   -1    0    0  501    0  0.00000000000E+00 -0.00000000000E+00 -0.43384797386E+02  0.43384797386E+02  0.00000000000E+00 0. -1.
         23    2    1    2    0    0  0.10497308043E+02  0.98719083174E+02  0.18343742855E+03  0.23719429156E+03  0.11294330834E+03 0.  0.
          5    1    3    3  502    0  0.42468874197E+02  0.29120320787E+02  0.13949039917E+03  0.14876578847E+03  0.47000000000E+01 0. -1.
         -5    1    3    3    0  502 -0.31971566154E+02  0.69598762387E+02  0.43947029382E+02  0.88428503095E+02  0.47000000000E+01 0.  1.
        -11    1    1    2    0    0 -0.21313042873E+02 -0.11339948401E+03  0.24334963359E+03  0.26931901704E+03  0.00000000000E+00 0.  1.
         11    1    1    2    0    0  0.10815734830E+02  0.14680400831E+02  0.20081750926E+02  0.27125099239E+02  0.00000000000E+00 0. -1.
<mgrwt>
<rscale>  0 0.14662992E+03</rscale>
<asrwt>0</asrwt>
<pdfrwt beam="2">  1        1 0.66745846E-02 0.15037234E+03</pdfrwt>
<pdfrwt beam="1">  1       -1 0.75423628E-01 0.15037234E+03</pdfrwt>
<totfact> 0.20053985E+03</totfact>
</mgrwt>
</event>
<event>
 7    1  0.5928109E-006  0.1356428E+03  0.7546771E-02  0.1231454E+00
         -4   -1    0    0    0  501 -0.00000000000E+00  0.00000000000E+00  0.32199234377E+02  0.32199234377E+02  0.00000000000E+00 0.  1.
          4   -1    0    0  501    0  0.00000000000E+00 -0.00000000000E+00 -0.49621181727E+03  0.49621181727E+03  0.00000000000E+00 0. -1.
         23    2    1    2    0    0 -0.26494070380E+02 -0.45522696087E+02 -0.33769569290E+03  0.36391941611E+03  0.12499883516E+03 0.  0.
          5    1    3    3  502    0 -0.62334200105E+02 -0.69348034796E+01 -0.27405898847E+03  0.28118332661E+03  0.47000000000E+01 0.  1.
         -5    1    3    3    0  502  0.35840129725E+02 -0.38587892607E+02 -0.63636704428E+02  0.82736089496E+02  0.47000000000E+01 0.  1.
        -11    1    1    2    0    0 -0.11843811464E+02 -0.87505984326E+01  0.64100419392E+01  0.16060432142E+02  0.00000000000E+00 0.  1.
         11    1    1    2    0    0  0.38337881844E+02  0.54273294519E+02 -0.13272693193E+03  0.14843120340E+03  0.00000000000E+00 0. -1.
<mgrwt>
<rscale>  0 0.12734163E+03</rscale>
<asrwt>0</asrwt>
<pdfrwt beam="2">  1        4 0.76340282E-01 0.13564277E+03</pdfrwt>
<pdfrwt beam="1">  1       -4 0.49537282E-02 0.13564277E+03</pdfrwt>
<totfact> 0.63390773E+02</totfact>
</mgrwt>
</event>
<event>
 7    1  0.5928109E-006  0.1449500E+03  0.7546771E-02  0.1216892E+00
         -2   -1    0    0    0  501 -0.00000000000E+00  0.00000000000E+00  0.17355891369E+02  0.17355891369E+02  0.00000000000E+00 0.  1.
          2   -1    0    0  501    0  0.00000000000E+00 -0.00000000000E+00 -0.99397382153E+03  0.99397382153E+03  0.00000000000E+00 0. -1.
         23    2    1    2    0    0 -0.40130332670E+02 -0.61439438706E+02 -0.57839298982E+03  0.59627926350E+03  0.12500104474E+03 0.  0.
          5    1    3    3  502    0  0.19739527274E+02  0.25493187894E+02 -0.22757074288E+03  0.22989146261E+03  0.47000000000E+01 0. -1.
         -5    1    3    3    0  502 -0.59869859944E+02 -0.86932626601E+02 -0.35082224694E+03  0.36638780090E+03  0.47000000000E+01 0. -1.
        -11    1    1    2    0    0  0.56195738644E+02  0.51668697852E+01 -0.23405040065E+03  0.24075765331E+03  0.00000000000E+00 0. -1.
         11    1    1    2    0    0 -0.16065405975E+02  0.56272568921E+02 -0.16417453970E+03  0.17429279608E+03  0.00000000000E+00 0.  1.
<mgrwt>
<rscale>  0 0.13738504E+03</rscale>
<asrwt>0</asrwt>
<pdfrwt beam="2">  1        2 0.15291904E+00 0.14495002E+03</pdfrwt>
<pdfrwt beam="1">  1       -2 0.26701373E-02 0.14495002E+03</pdfrwt>
<totfact> 0.12865877E+04</totfact>
</mgrwt>
</event>
<event>
 7    1  0.5928109E-006  0.1594271E+03  0.7546771E-02  0.1196835E+00
         -1   -1    0    0    0  501 -0.00000000000E+00  0.00000000000E+00  0.19653495832E+02  0.19653495832E+02  0.00000000000E+00 0.  1.
          1   -1    0    0  501    0  0.00000000000E+00 -0.00000000000E+00 -0.18252365376E+04  0.18252365376E+04  0.00000000000E+00 0. -1.
         23    2    1    2    0    0  0.59501188115E+02  0.79068339760E+02 -0.15261522841E+04  0.15344568406E+04  0.12499923092E+03 0.  0.
          5    1    3    3  502    0 -0.46444867606E+00  0.93223780260E+02 -0.10833331557E+04  0.10873470950E+04  0.47000000000E+01 0. -1.
         -5    1    3    3    0  502  0.59965636791E+02 -0.14155440501E+02 -0.44281912844E+03  0.44710974560E+03  0.47000000000E+01 0. -1.
        -11    1    1    2    0    0  0.19329459670E+02 -0.37811973547E+02 -0.58747094209E+02  0.72488581395E+02  0.00000000000E+00 0.  1.
         11    1    1    2    0    0 -0.78830647785E+02 -0.41256366213E+02 -0.22068366346E+03  0.23794461141E+03  0.00000000000E+00 0. -1.
<mgrwt>
<rscale>  0 0.15299952E+03</rscale>
<asrwt>0</asrwt>
<pdfrwt beam="2">  1        1 0.28080562E+00 0.15942710E+03</pdfrwt>
<pdfrwt beam="1">  1       -1 0.30236148E-02 0.15942710E+03</pdfrwt>
<totfact> 0.16406910E+03</totfact>
</mgrwt>
</event>
<event>
 7    1  0.5928109E-006  0.1201346E+03  0.7546771E-02  0.1254296E+00
          2   -1    0    0  501    0  0.00000000000E+00  0.00000000000E+00  0.16641223972E+04  0.16641223972E+04  0.00000000000E+00 0. -1.
         -2   -1    0    0    0  501 -0.00000000000E+00 -0.00000000000E+00 -0.20896623992E+02  0.20896623992E+02  0.00000000000E+00 0.  1.
         23    2    1    2    0    0 -0.98397416888E+01  0.21037401445E+02  0.15387061346E+04  0.15433887669E+04  0.11786825081E+03 0.  0.
          5    1    3    3  502    0 -0.28697904512E+02  0.13413891004E+02  0.14906482198E+04  0.14909921889E+04  0.47000000000E+01 0. -1.
         -5    1    3    3    0  502  0.18858162823E+02  0.76235104414E+01  0.48057914784E+02  0.52396578036E+02  0.47000000000E+01 0.  1.
        -11    1    1    2    0    0 -0.13164436368E+02 -0.48651279181E+02  0.29383665678E+02  0.58340801841E+02  0.00000000000E+00 0.  1.
         11    1    1    2    0    0  0.23004178056E+02  0.27613877736E+02  0.75135972960E+02  0.83289452420E+02  0.00000000000E+00 0. -1.
<mgrwt>
<rscale>  0 0.11345882E+03</rscale>
<asrwt>0</asrwt>
<pdfrwt beam="1">  1        2 0.25601873E+00 0.12013458E+03</pdfrwt>
<pdfrwt beam="2">  1       -2 0.32148665E-02 0.12013458E+03</pdfrwt>
<totfact> 0.42162136E+03</totfact>
</mgrwt>
</event>
<event>
 7    1  0.5928109E-006  0.1541773E+03  0.7546771E-02  0.1205146E+00
          1   -1    0    0  501    0  0.00000000000E+00  0.00000000000E+00  0.40581913763E+03  0.40581913763E+03  0.00000000000E+00 0. -1.
         -1   -1    0    0    0  501 -0.00000000000E+00 -0.00000000000E+00 -0.55439307187E+02  0.55439307187E+02  0.00000000000E+00 0.  1.
         23    2    1    2    0    0 -0.25936638143E+02 -0.86428277492E+02  0.27537975107E+03  0.31560201844E+03  0.12501228098E+03 0.  0.
          5    1    3    3  502    0  0.37554138496E+02  0.28870240981E+01  0.36106794190E+02  0.52387391737E+02  0.47000000000E+01 0. -1.
         -5    1    3    3    0  502 -0.63490776639E+02 -0.89315301590E+02  0.23927295688E+03  0.26321462670E+03  0.47000000000E+01 0. -1.
        -11    1    1    2    0    0  0.19863514239E+02  0.10331180782E+03  0.71954479488E+02  0.12745719263E+03  0.00000000000E+00 0.  1.
         11    1    1    2    0    0  0.60731239038E+01 -0.16883530333E+02  0.30455998862E+01  0.18199233751E+02  0.00000000000E+00 0. -1.
<mgrwt>
<rscale>  0 0.14625938E+03</rscale>
<asrwt>0</asrwt>
<pdfrwt beam="1">  1        1 0.62433711E-01 0.15417726E+03</pdfrwt>
<pdfrwt beam="2">  1       -1 0.85291245E-02 0.15417726E+03</pdfrwt>
<totfact> 0.45000175E+03</totfact>
</mgrwt>
</event>
<event>
 7    1  0.5928109E-006  0.1407283E+03  0.7546771E-02  0.1222544E+00
         -1   -1    0    0    0  501 -0.00000000000E+00  0.00000000000E+00  0.10998757930E+03  0.10998757930E+03  0.00000000000E+00 0.  1.
          1   -1    0    0  501    0  0.00000000000E+00 -0.00000000000E+00 -0.14711160257E+03  0.14711160257E+03  0.00000000000E+00 0. -1.
         23    2    1    2    0    0 -0.49257672215E+02  0.41871082828E+02 -0.15950422021E+02  0.14162936363E+03  0.12499981933E+03 0.  0.
          5    1    3    3  502    0 -0.57752150865E+02  0.79976990696E+02  0.11044133875E+01  0.98767098263E+02  0.47000000000E+01 0.  1.
         -5    1    3    3    0  502  0.84944786495E+01 -0.38105907868E+02 -0.17054835408E+02  0.42862265371E+02  0.47000000000E+01 0.  1.
        -11    1    1    2    0    0 -0.12471670156E+01 -0.54288833961E+02  0.94431982915E+01  0.55118117824E+02  0.00000000000E+00 0.  1.
         11    1    1    2    0    0  0.50504839231E+02  0.12417751133E+02 -0.30616799537E+02  0.60351700414E+02  0.00000000000E+00 0. -1.
<mgrwt>
<rscale>  0 0.13336642E+03</rscale>
<asrwt>0</asrwt>
<pdfrwt beam="2">  1        1 0.22632554E-01 0.14072832E+03</pdfrwt>
<pdfrwt beam="1">  1       -1 0.16921166E-01 0.14072832E+03</pdfrwt>
<totfact> 0.55021207E+03</totfact>
</mgrwt>
</event>
<event>
 7    1  0.5928109E-006  0.1471852E+03  0.7546771E-02  0.1214926E+00
          1   -1    0    0  501    0  0.00000000000E+00  0.00000000000E+00  0.22193271851E+03  0.22193271851E+03  0.00000000000E+00 0. -1.
         -1   -1    0    0    0  501 -0.00000000000E+00 -0.00000000000E+00 -0.79002693150E+02  0.79002693150E+02  0.00000000000E+00 0.  1.
         23    2    1    2    0    0  0.35562991166E+02 -0.69091174979E+02  0.93768234750E+02  0.17451640903E+03  0.12500071348E+03 0.  0.
          5    1    3    3  502    0 -0.61609919760E+01 -0.10736266030E+02  0.10136436738E+03  0.10222548706E+03  0.47000000000E+01 0. -1.
         -5    1    3    3    0  502  0.41723983142E+02 -0.58354908949E+02 -0.75961326288E+01  0.72290921965E+02  0.47000000000E+01 0. -1.
        -11    1    1    2    0    0 -0.14333863626E+02  0.57682379218E+02 -0.12039147211E+02  0.60643693690E+02  0.00000000000E+00 0.  1.
         11    1    1    2    0    0 -0.21229127539E+02  0.11408795760E+02  0.61200937819E+02  0.65775308944E+02  0.00000000000E+00 0. -1.
<mgrwt>
<rscale>  0 0.13881941E+03</rscale>
<asrwt>0</asrwt>
<pdfrwt beam="1">  1        1 0.34143495E-01 0.14718524E+03</pdfrwt>
<pdfrwt beam="2">  1       -1 0.12154261E-01 0.14718524E+03</pdfrwt>
<totfact> 0.55354134E+03</totfact>
</mgrwt>
</event>
<event>
 7    1  0.5928109E-006  0.1420448E+03  0.7546771E-02  0.1216863E+00
          2   -1    0    0  501    0  0.00000000000E+00  0.00000000000E+00  0.97109502015E+03  0.97109502015E+03  0.00000000000E+00 0. -1.
         -2   -1    0    0    0  501 -0.00000000000E+00 -0.00000000000E+00 -0.22048286385E+02  0.22048286385E+02  0.00000000000E+00 0.  1.
         23    2    1    2    0    0 -0.46986809574E+02  0.72267227703E+02  0.70569213650E+03  0.71984589675E+03  0.11290000480E+03 0.  0.
          5    1    3    3  502    0 -0.58516943272E+02  0.41018724715E+02  0.65564572409E+03  0.65954542978E+03  0.47000000000E+01 0. -1.
         -5    1    3    3    0  502  0.11530133699E+02  0.31248502989E+02  0.50046412401E+02  0.60300466967E+02  0.47000000000E+01 0.  1.
        -11    1    1    2    0    0  0.47536942471E+02  0.42845314416E+01  0.88302474069E+02  0.10037651636E+03  0.00000000000E+00 0. -1.
         11    1    1    2    0    0 -0.55013289775E+00 -0.76551759145E+02  0.15505212320E+03  0.17292089343E+03  0.00000000000E+00 0.  1.
<mgrwt>
<rscale>  0 0.13740588E+03</rscale>
<asrwt>0</asrwt>
<pdfrwt beam="1">  1        2 0.14939920E+00 0.14204479E+03</pdfrwt>
<pdfrwt beam="2">  1       -2 0.33920448E-02 0.14204479E+03</pdfrwt>
<totfact> 0.93277039E+03</totfact>
</mgrwt>
</event>
<event>
 7    1  0.5928109E-006  0.1547206E+03  0.7546771E-02  0.1203538E+00
         -2   -1    0    0    0  501 -0.00000000000E+00  0.00000000000E+00  0.72213842657E+02  0.72213842657E+02  0.00000000000E+00 0.  1.
          2   -1    0    0  501    0  0.00000000000E+00 -0.00000000000E+00 -0.27769840924E+03  0.27769840924E+03  0.00000000000E+00 0. -1.
         23    2    1    2    0    0  0.51406002264E+02 -0.75300049240E+02 -0.10120733288E+03  0.18488210658E+03  0.12500317845E+03 0.  0.
          5    1    3    3  502    0 -0.34424916285E+02  0.42769117779E+01 -0.99544580197E+01  0.36394341181E+02  0.47000000000E+01 0.  1.
         -5    1    3    3    0  502  0.85830918549E+02 -0.79576961018E+02 -0.91252874858E+02  0.14848776540E+03  0.47000000000E+01 0.  1.
        -11    1    1    2    0    0 -0.22851557998E+02  0.45421940442E+02  0.21174564767E+01  0.50890372355E+02  0.00000000000E+00 0.  1.
         11    1    1    2    0    0 -0.28554444267E+02  0.29878108798E+02 -0.10639469019E+03  0.11413977296E+03  0.00000000000E+00 0. -1.
<mgrwt>
<rscale>  0 0.14753262E+03</rscale>
<asrwt>0</asrwt>
<pdfrwt beam="2">  1        2 0.42722832E-01 0.15472062E+03</pdfrwt>
<pdfrwt beam="1">  1       -2 0.11109822E-01 0.15472062E+03</pdfrwt>
<totfact> 0.64068374E+03</totfact>
</mgrwt>
</event>
<event>
 7    1  0.5928109E-006  0.1863735E+03  0.7546771E-02  0.1166715E+00
         -2   -1    0    0    0  501 -0.00000000000E+00  0.00000000000E+00  0.41095202193E+02  0.41095202193E+02  0.00000000000E+00 0.  1.
          2   -1    0    0  501    0  0.00000000000E+00 -0.00000000000E+00 -0.78668731695E+03  0.78668731695E+03  0.00000000000E+00 0. -1.
         23    2    1    2    0    0  0.33390376038E+02  0.13415468468E+03 -0.47420156168E+03  0.50951172191E+03  0.12499070779E+03 0.  0.
          5    1    3    3  502    0  0.54785701982E+02  0.21182858479E+02 -0.25743891913E+03  0.26409671281E+03  0.47000000000E+01 0. -1.
         -5    1    3    3    0  502 -0.21395325944E+02  0.11297182620E+03 -0.21676264255E+03  0.24541500910E+03  0.47000000000E+01 0. -1.
        -11    1    1    2    0    0 -0.31736750860E+02  0.30831238081E+00 -0.48750486001E+02  0.58171524796E+02  0.00000000000E+00 0.  1.
         11    1    1    2    0    0 -0.16536251784E+01 -0.13446299706E+03 -0.22264006708E+03  0.26009927244E+03  0.00000000000E+00 0. -1.
<mgrwt>
<rscale>  0 0.18112865E+03</rscale>
<asrwt>0</asrwt>
<pdfrwt beam="2">  1        2 0.12102881E+00 0.18637348E+03</pdfrwt>
<pdfrwt beam="1">  1       -2 0.63223391E-02 0.18637348E+03</pdfrwt>
<totfact> 0.48699841E+03</totfact>
</mgrwt>
</event>
<event>
 7    1  0.5928109E-006  0.1703207E+03  0.7546771E-02  0.1184709E+00
          1   -1    0    0  501    0  0.00000000000E+00  0.00000000000E+00  0.80471760436E+03  0.80471760436E+03  0.00000000000E+00 0. -1.
         -1   -1    0    0    0  501 -0.00000000000E+00 -0.00000000000E+00 -0.34085983996E+02  0.34085983996E+02  0.00000000000E+00 0.  1.
         23    2    1    2    0    0 -0.11277794489E+03 -0.25679594712E+02  0.54176993147E+03  0.56791177980E+03  0.12502329606E+03 0.  0.
          5    1    3    3  502    0 -0.62006684530E+01 -0.38839374637E+02  0.46373031636E+02  0.60987649361E+02  0.47000000000E+01 0. -1.
         -5    1    3    3    0  502 -0.10657727643E+03  0.13159779925E+02  0.49539689984E+03  0.50692413044E+03  0.47000000000E+01 0. -1.
        -11    1    1    2    0    0  0.45977692976E+02  0.41052093476E+02  0.50073842449E+02  0.79414182158E+02  0.00000000000E+00 0.  1.
         11    1    1    2    0    0  0.66800251909E+02 -0.15372498764E+02  0.17878784644E+03  0.19147762639E+03  0.00000000000E+00 0. -1.
<mgrwt>
<rscale>  0 0.16358372E+03</rscale>
<asrwt>0</asrwt>
<pdfrwt beam="1">  1        1 0.12380269E+00 0.17032067E+03</pdfrwt>
<pdfrwt beam="2">  1       -1 0.52439981E-02 0.17032067E+03</pdfrwt>
<totfact> 0.36833657E+03</totfact>
</mgrwt>
</event>
<event>
 7    1  0.5928109E-006  0.1643979E+03  0.7546771E-02  0.1191013E+00
         -1   -1    0    0    0  501 -0.00000000000E+00  0.00000000000E+00  0.24470214009E+02  0.24470214009E+02  0.00000000000E+00 0.  1.
          1   -1    0    0  501    0  0.00000000000E+00 -0.00000000000E+00 -0.11756938177E+04  0.11756938177E+04  0.00000000000E+00 0. -1.
         23    2    1    2    0    0  0.85540218149E+01  0.10643313233E+03 -0.87625821689E+03  0.89154647474E+03  0.12500188399E+03 0.  0.
          5    1    3    3  502    0  0.51071350586E+02  0.24662359304E+02 -0.16971887866E+03  0.17900587306E+03  0.47000000000E+01 0. -1.
         -5    1    3    3    0  502 -0.42517328772E+02  0.81770773023E+02 -0.70653933823E+03  0.71254060167E+03  0.47000000000E+01 0. -1.
        -11    1    1    2    0    0  0.39456799400E+02 -0.59928269800E+02 -0.11940120546E+03  0.13930141567E+03  0.00000000000E+00 0.  1.
         11    1    1    2    0    0 -0.48010821215E+02 -0.46504862527E+02 -0.15556418134E+03  0.16931614131E+03  0.00000000000E+00 0. -1.
<mgrwt>
<rscale>  0 0.15796525E+03</rscale>
<asrwt>0</asrwt>
<pdfrwt beam="2">  1        1 0.18087592E+00 0.16439785E+03</pdfrwt>
<pdfrwt beam="1">  1       -1 0.37646493E-02 0.16439785E+03</pdfrwt>
<totfact> 0.31778342E+03</totfact>
</mgrwt>
</event>
<event>
 7    1  0.5928109E-006  0.1525272E+03  0.7546771E-02  0.1206813E+00
          1   -1    0    0  501    0  0.00000000000E+00  0.00000000000E+00  0.13506738472E+03  0.13506738472E+03  0.00000000000E+00 0. -1.
         -1   -1    0    0    0  501 -0.00000000000E+00 -0.00000000000E+00 -0.14238959565E+03  0.14238959565E+03  0.00000000000E+00 0.  1.
         23    2    1    2    0    0  0.77324607536E+02 -0.40748643573E+02  0.34900143079E+01  0.15256712378E+03  0.12500000069E+03 0.  0.
          5    1    3    3  502    0  0.67045124239E+02 -0.74680549954E+02 -0.28657549865E+02  0.10447764541E+03  0.47000000000E+01 0.  1.
         -5    1    3    3    0  502  0.10279483298E+02  0.33931906381E+02  0.32147564173E+02  0.48089478369E+02  0.47000000000E+01 0.  1.
        -11    1    1    2    0    0 -0.35289733185E+02  0.14165313610E+02 -0.49114683086E+02  0.62115001993E+02  0.00000000000E+00 0.  1.
         11    1    1    2    0    0 -0.42034874352E+02  0.26583329963E+02  0.38302457842E+02  0.62774854603E+02  0.00000000000E+00 0. -1.
<mgrwt>
<rscale>  0 0.14495522E+03</rscale>
<asrwt>0</asrwt>
<pdfrwt beam="1">  1        1 0.20779598E-01 0.15252720E+03</pdfrwt>
<pdfrwt beam="2">  1       -1 0.21906091E-01 0.15252720E+03</pdfrwt>
<totfact> 0.40722980E+03</totfact>
</mgrwt>
</event>
<event>
 7    1  0.5928109E-006  0.1299685E+03  0.7546771E-02  0.1241029E+00
         -1   -1    0    0    0  501 -0.00000000000E+00  0.00000000000E+00  0.39305056991E+02  0.39305056991E+02  0.00000000000E+00 0.  1.
          1   -1    0    0  501    0  0.00000000000E+00 -0.00000000000E+00 -0.33421983440E+03  0.33421983440E+03  0.00000000000E+00 0. -1.
         23    2    1    2    0    0  0.34576465508E+02 -0.83382366433E+01 -0.18279625328E+03  0.22429064255E+03  0.12500705566E+03 0.  0.
          5    1    3    3  502    0  0.39237832089E+02  0.54200598503E+02 -0.95075964416E+02  0.11635652691E+03  0.47000000000E+01 0.  1.
         -5    1    3    3    0  502 -0.46613665815E+01 -0.62538835146E+02 -0.87720288866E+02  0.10793411564E+03  0.47000000000E+01 0.  1.
        -11    1    1    2    0    0 -0.65097403476E+02  0.80906520518E+01 -0.60340411597E+02  0.89129657588E+02  0.00000000000E+00 0.  1.
         11    1    1    2    0    0  0.30520937968E+02  0.24758459145E+00 -0.51778112532E+02  0.60104591255E+02  0.00000000000E+00 0. -1.
<mgrwt>
<rscale>  0 0.12126258E+03</rscale>
<asrwt>0</asrwt>
<pdfrwt beam="2">  1        1 0.51418433E-01 0.12996854E+03</pdfrwt>
<pdfrwt beam="1">  1       -1 0.60469322E-02 0.12996854E+03</pdfrwt>
<totfact> 0.95244471E+03</totfact>
</mgrwt>
</event>
<event>
 7    1  0.5928109E-006  0.1271240E+03  0.7546771E-02  0.1244809E+00
         -2   -1    0    0    0  501 -0.00000000000E+00  0.00000000000E+00  0.16538011689E+02  0.16538011689E+02  0.00000000000E+00 0.  1.
          2   -1    0    0  501    0  0.00000000000E+00 -0.00000000000E+00 -0.15161927588E+04  0.15161927588E+04  0.00000000000E+00 0. -1.
         23    2    1    2    0    0 -0.14020390216E+02 -0.24392297411E+02 -0.13374203437E+04  0.13434484268E+04  0.12397154540E+03 0.  0.
          5    1    3    3  502    0 -0.66037407755E+02 -0.32804831789E+02 -0.82690727882E+03  0.83020168271E+03  0.47000000000E+01 0. -1.
         -5    1    3    3    0  502  0.52017017539E+02  0.84125343783E+01 -0.51051306491E+03  0.51324674406E+03  0.47000000000E+01 0.  1.
        -11    1    1    2    0    0  0.50602517513E+02  0.34065978921E+01 -0.59221314687E+02  0.77970403367E+02  0.00000000000E+00 0.  1.
         11    1    1    2    0    0 -0.36582127297E+02  0.20985699519E+02 -0.10301308872E+03  0.11131194037E+03  0.00000000000E+00 0. -1.
<mgrwt>
<rscale>  0 0.11896811E+03</rscale>
<asrwt>0</asrwt>
<pdfrwt beam="2">  1        2 0.23326057E+00 0.12712395E+03</pdfrwt>
<pdfrwt beam="1">  1       -2 0.25443079E-02 0.12712395E+03</pdfrwt>
<totfact> 0.70846656E+03</totfact>
</mgrwt>
</event>
<event>
 7    1  0.5928109E-006  0.1251494E+03  0.7546771E-02  0.1250808E+00
          2   -1    0    0  501    0  0.00000000000E+00  0.00000000000E+00  0.23676135510E+03  0.23676135510E+03  0.00000000000E+00 0. -1.
         -2   -1    0    0    0  501 -0.00000000000E+00 -0.00000000000E+00 -0.60595962453E+02  0.60595962453E+02  0.00000000000E+00 0.  1.
         23    2    1    2    0    0 -0.43724090029E+01  0.42641263903E+01  0.16344297258E+03  0.20585424756E+03  0.12500026087E+03 0.  0.
          5    1    3    3  502    0  0.23212754109E+02 -0.54364182852E+02  0.65833043932E+02  0.88602347620E+02  0.47000000000E+01 0.  1.
         -5    1    3    3    0  502 -0.27585163112E+02  0.58628309242E+02  0.97609928643E+02  0.11725189993E+03  0.47000000000E+01 0.  1.
        -11    1    1    2    0    0  0.28628326595E+02  0.64865712441E-01  0.43501578205E+02  0.52076603168E+02  0.00000000000E+00 0. -1.
         11    1    1    2    0    0 -0.24255917592E+02 -0.43289921028E+01 -0.30779158136E+02  0.39426466827E+02  0.00000000000E+00 0.  1.
<mgrwt>
<rscale>  0 0.11544382E+03</rscale>
<asrwt>0</asrwt>
<pdfrwt beam="1">  1        2 0.36424823E-01 0.12514937E+03</pdfrwt>
<pdfrwt beam="2">  1       -2 0.93224559E-02 0.12514937E+03</pdfrwt>
<totfact> 0.98609503E+03</totfact>
</mgrwt>
</event>
<event>
 7    1  0.5928109E-006  0.1333958E+03  0.7546771E-02  0.1234490E+00
          2   -1    0    0  501    0  0.00000000000E+00  0.00000000000E+00  0.19239955037E+03  0.19239955037E+03  0.00000000000E+00 0. -1.
         -2   -1    0    0    0  501 -0.00000000000E+00 -0.00000000000E+00 -0.74726206450E+02  0.74726206450E+02  0.00000000000E+00 0.  1.
         23    2    1    2    0    0 -0.14256688724E+02  0.44299803852E+02  0.84414939446E+02  0.15786169781E+03  0.12501483048E+03 0.  0.
          5    1    3    3  502    0  0.39774652138E+02  0.62282827693E+02  0.61654759332E+02  0.96356488761E+02  0.47000000000E+01 0.  1.
         -5    1    3    3    0  502 -0.54031340862E+02 -0.17983023841E+02  0.22760180114E+02  0.61505209053E+02  0.47000000000E+01 0.  1.
        -11    1    1    2    0    0 -0.31634496326E+02 -0.37134992890E+02  0.39009938992E+02  0.62462183718E+02  0.00000000000E+00 0. -1.
         11    1    1    2    0    0  0.45891185050E+02 -0.71648109622E+01 -0.57515345146E+01  0.46801875290E+02  0.00000000000E+00 0.  1.
<mgrwt>
<rscale>  0 0.12537118E+03</rscale>
<asrwt>0</asrwt>
<pdfrwt beam="1">  1        2 0.29599931E-01 0.13339578E+03</pdfrwt>
<pdfrwt beam="2">  1       -2 0.11496339E-01 0.13339578E+03</pdfrwt>
<totfact> 0.89040642E+03</totfact>
</mgrwt>
</event>
<event>
 7    1  0.5928109E-006  0.1299906E+03  0.7546771E-02  0.1240835E+00
          1   -1    0    0  501    0  0.00000000000E+00  0.00000000000E+00  0.10701338958E+03  0.10701338958E+03  0.00000000000E+00 0. -1.
         -1   -1    0    0    0  501 -0.00000000000E+00 -0.00000000000E+00 -0.12658016870E+03  0.12658016870E+03  0.00000000000E+00 0.  1.
         23    2    1    2    0    0 -0.33989894176E+02  0.10831120789E+02  0.10174522998E+02  0.13038815987E+03  0.12499970093E+03 0.  0.
          5    1    3    3  502    0  0.21316425838E+02 -0.43782778446E+02 -0.10031542174E+02  0.49940399851E+02  0.47000000000E+01 0.  1.
         -5    1    3    3    0  502 -0.55306320014E+02  0.54613899234E+02  0.20206065172E+02  0.80447760023E+02  0.47000000000E+01 0.  1.
        -11    1    1    2    0    0 -0.11187519549E+02 -0.36178568756E+02 -0.34443642913E+02  0.51189979175E+02  0.00000000000E+00 0.  1.
         11    1    1    2    0    0  0.45177413725E+02  0.25347447967E+02  0.47023407932E+01  0.52015419236E+02  0.00000000000E+00 0. -1.
<mgrwt>
<rscale>  0 0.12138164E+03</rscale>
<asrwt>0</asrwt>
<pdfrwt beam="1">  1        1 0.16463598E-01 0.12999058E+03</pdfrwt>
<pdfrwt beam="2">  1       -1 0.19473872E-01 0.12999058E+03</pdfrwt>
<totfact> 0.65642988E+03</totfact>
</mgrwt>
</event>
<event>
 7    1  0.5928109E-006  0.1317415E+03  0.7546771E-02  0.1238777E+00
         -1   -1    0    0    0  501 -0.00000000000E+00  0.00000000000E+00  0.34853660166E+02  0.34853660166E+02  0.00000000000E+00 0.  1.
          1   -1    0    0  501    0  0.00000000000E+00 -0.00000000000E+00 -0.10110084832E+04  0.10110084832E+04  0.00000000000E+00 0. -1.
         23    2    1    2    0    0  0.15473867802E+01 -0.41587386889E+02 -0.92518760679E+03  0.93452016185E+03  0.12499567991E+03 0.  0.
          5    1    3    3  502    0 -0.26149134470E+02 -0.49111263803E+02 -0.87293837752E+03  0.87472235276E+03  0.47000000000E+01 0. -1.
         -5    1    3    3    0  502  0.27696521250E+02  0.75238769140E+01 -0.52249229268E+02  0.59797809093E+02  0.47000000000E+01 0. -1.
        -11    1    1    2    0    0  0.38580700391E+02  0.41958044939E+02 -0.19153695642E+02  0.60131622583E+02  0.00000000000E+00 0.  1.
         11    1    1    2    0    0 -0.40128087171E+02 -0.37065804963E+00 -0.31813520570E+02  0.51210358897E+02  0.00000000000E+00 0. -1.
<mgrwt>
<rscale>  0 0.12265685E+03</rscale>
<asrwt>0</asrwt>
<pdfrwt beam="2">  1        1 0.15553979E+00 0.13174151E+03</pdfrwt>
<pdfrwt beam="1">  1       -1 0.53621008E-02 0.13174151E+03</pdfrwt>
<totfact> 0.24546756E+03</totfact>
</mgrwt>
</event>
<event>
 7    1  0.5928109E-006  0.1649950E+03  0.7546771E-02  0.1191800E+00
         -1   -1    0    0    0  501 -0.00000000000E+00  0.00000000000E+00  0.54689123783E+02  0.54689123783E+02  0.00000000000E+00 0.  1.
          1   -1    0    0  501    0  0.00000000000E+00 -0.00000000000E+00 -0.48729915052E+03  0.48729915052E+03  0.00000000000E+00 0. -1.
         23    2    1    2    0    0 -0.10762703983E+03  0.41431610271E+01 -0.33799857619E+03  0.37612017202E+03  0.12499040285E+03 0.  0.
          5    1    3    3  502    0  0.18177703750E+02 -0.23237181541E+02 -0.11263419992E+03  0.11652874543E+03  0.47000000000E+01 0.  1.
         -5    1    3    3    0  502 -0.12580474358E+03  0.27380342568E+02 -0.22536437627E+03  0.25959142658E+03  0.47000000000E+01 0.  1.
        -11    1    1    2    0    0  0.71276950627E+02  0.55782698206E+01 -0.10481947199E+03  0.12688042597E+03  0.00000000000E+00 0. -1.
         11    1    1    2    0    0  0.36350089200E+02 -0.97214308477E+01  0.10208021449E+02  0.38987676316E+02  0.00000000000E+00 0.  1.
<mgrwt>
<rscale>  0 0.15728161E+03</rscale>
<asrwt>0</asrwt>
<pdfrwt beam="2">  1        1 0.74969101E-01 0.16499499E+03</pdfrwt>
<pdfrwt beam="1">  1       -1 0.84137112E-02 0.16499499E+03</pdfrwt>
<totfact> 0.36419554E+03</totfact>
</mgrwt>
</event>
<event>
 7    1  0.5928109E-006  0.1291197E+03  0.7546771E-02  0.1242586E+00
         -2   -1    0    0    0  501 -0.00000000000E+00  0.00000000000E+00  0.79132244664E+02  0.79132244664E+02  0.00000000000E+00 0.  1.
          2   -1    0    0  501    0  0.00000000000E+00 -0.00000000000E+00 -0.17350635756E+03  0.17350635756E+03  0.00000000000E+00 0. -1.
         23    2    1    2    0    0  0.29610359576E+02  0.13097371097E+02 -0.85597529737E+02  0.15491553467E+03  0.12499428491E+03 0.  0.
          5    1    3    3  502    0 -0.43489169551E+02  0.10026181062E+02 -0.64591001255E+02  0.78650617404E+02  0.47000000000E+01 0. -1.
         -5    1    3    3    0  502  0.73099529127E+02  0.30711900344E+01 -0.21006528482E+02  0.76264917266E+02  0.47000000000E+01 0. -1.
        -11    1    1    2    0    0  0.20972425649E+01  0.28741777032E+02  0.22548109911E+02  0.36591056747E+02  0.00000000000E+00 0.  1.
         11    1    1    2    0    0 -0.31707602141E+02 -0.41839148128E+02 -0.31324693073E+02  0.61132010810E+02  0.00000000000E+00 0. -1.
<mgrwt>
<rscale>  0 0.12031060E+03</rscale>
<asrwt>0</asrwt>
<pdfrwt beam="2">  1        2 0.26693285E-01 0.12911966E+03</pdfrwt>
<pdfrwt beam="1">  1       -2 0.12174192E-01 0.12911966E+03</pdfrwt>
<totfact> 0.90720808E+03</totfact>
</mgrwt>
</event>
<event>
 7    1  0.5928109E-006  0.1377353E+03  0.7546771E-02  0.1227734E+00
          1   -1    0    0  501    0  0.00000000000E+00  0.00000000000E+00  0.33848656824E+03  0.33848656824E+03  0.00000000000E+00 0. -1.
         -1   -1    0    0    0  501 -0.00000000000E+00 -0.00000000000E+00 -0.57281752333E+02  0.57281752333E+02  0.00000000000E+00 0.  1.
         23    2    1    2    0    0 -0.55938406437E+02 -0.14663458443E+02  0.24528611637E+03  0.28131173551E+03  0.12500756507E+03 0.  0.
          5    1    3    3  502    0  0.86704539165E+01 -0.24602867348E+02 -0.93017712290E+00  0.26522312915E+02  0.47000000000E+01 0.  1.
         -5    1    3    3    0  502 -0.64608860354E+02  0.99394089057E+01  0.24621629350E+03  0.25478942260E+03  0.47000000000E+01 0.  1.
        -11    1    1    2    0    0  0.23612953968E+02 -0.46604502423E+01  0.63413243871E+02  0.67827213490E+02  0.00000000000E+00 0. -1.
         11    1    1    2    0    0  0.32325452470E+02  0.19323908685E+02 -0.27494544339E+02  0.46629371566E+02  0.00000000000E+00 0.  1.
<mgrwt>
<rscale>  0 0.12981232E+03</rscale>
<asrwt>0</asrwt>
<pdfrwt beam="1">  1        1 0.52074855E-01 0.13773530E+03</pdfrwt>
<pdfrwt beam="2">  1       -1 0.88125775E-02 0.13773530E+03</pdfrwt>
<totfact> 0.53455792E+03</totfact>
</mgrwt>
</event>
<event>
 7    1  0.5928109E-006  0.1599267E+03  0.7546771E-02  0.1196801E+00
          2   -1    0    0  501    0  0.00000000000E+00  0.00000000000E+00  0.26186679686E+04  0.26186679686E+04  0.00000000000E+00 0. -1.
         -2   -1    0    0    0  501 -0.00000000000E+00 -0.00000000000E+00 -0.14320203575E+02  0.14320203575E+02  0.00000000000E+00 0.  1.
         23    2    1    2    0    0 -0.93805121051E+02 -0.33922150726E+02  0.22232890376E+04  0.22290335782E+04  0.12500574094E+03 0.  0.
          5    1    3    3  502    0 -0.25059954113E+02 -0.31913722558E+02  0.17754727060E+04  0.17759425403E+04  0.47000000000E+01 0. -1.
         -5    1    3    3    0  502 -0.68745166937E+02 -0.20084281678E+01  0.44781633160E+03  0.45309103788E+03  0.47000000000E+01 0. -1.
        -11    1    1    2    0    0  0.84482711523E+02 -0.36861956278E+01  0.17592405694E+03  0.19519270067E+03  0.00000000000E+00 0. -1.
         11    1    1    2    0    0  0.93224095276E+01  0.37608346353E+02  0.20513467049E+03  0.20876189325E+03  0.00000000000E+00 0.  1.
<mgrwt>
<rscale>  0 0.15302768E+03</rscale>
<asrwt>0</asrwt>
<pdfrwt beam="1">  1        2 0.40287162E+00 0.15992670E+03</pdfrwt>
<pdfrwt beam="2">  1       -2 0.22031103E-02 0.15992670E+03</pdfrwt>
<totfact> 0.23376892E+03</totfact>
</mgrwt>
</event>
<event>
 7    1  0.5928109E-006  0.1608315E+03  0.7546771E-02  0.1195237E+00
          1   -1    0    0  501    0  0.00000000000E+00  0.00000000000E+00  0.13268556309E+04  0.13268556309E+04  0.00000000000E+00 0. -1.
         -1   -1    0    0    0  501 -0.00000000000E+00 -0.00000000000E+00 -0.27025001592E+02  0.27025001592E+02  0.00000000000E+00 0.  1.
         23    2    1    2    0    0  0.55645203778E+01  0.10102563778E+03  0.11014552194E+04  0.11131353731E+04  0.12501845928E+03 0.  0.
          5    1    3    3  502    0  0.42570411977E+02  0.11302089642E+03  0.78179355375E+03  0.79108104116E+03  0.47000000000E+01 0. -1.
         -5    1    3    3    0  502 -0.37005891599E+02 -0.11995258638E+02  0.31966166567E+03  0.32205433197E+03  0.47000000000E+01 0. -1.
        -11    1    1    2    0    0  0.16968008155E+02 -0.11033278924E+03  0.16946934413E+03  0.20293126000E+03  0.00000000000E+00 0.  1.
         11    1    1    2    0    0 -0.22532528532E+02  0.93071514623E+01  0.28906065758E+02  0.37813999365E+02  0.00000000000E+00 0. -1.
<mgrwt>
<rscale>  0 0.15434173E+03</rscale>
<asrwt>0</asrwt>
<pdfrwt beam="1">  1        1 0.20413158E+00 0.16083146E+03</pdfrwt>
<pdfrwt beam="2">  1       -1 0.41576936E-02 0.16083146E+03</pdfrwt>
<totfact> 0.21654196E+03</totfact>
</mgrwt>
</event>
<event>
 7    1  0.5928109E-006  0.1900376E+03  0.7546771E-02  0.1162165E+00
          3   -1    0    0  501    0  0.00000000000E+00  0.00000000000E+00  0.46751878754E+03  0.46751878754E+03  0.00000000000E+00 0. -1.
         -3   -1    0    0    0  501 -0.00000000000E+00 -0.00000000000E+00 -0.70948586513E+02  0.70948586513E+02  0.00000000000E+00 0.  1.
         23    2    1    2    0    0 -0.86305885064E+02 -0.11419670524E+03  0.20550266645E+03  0.27990290469E+03  0.12499878739E+03 0.  0.
          5    1    3    3  502    0 -0.11161009007E+01 -0.80288343741E+02  0.38154031738E+02  0.89024063936E+02  0.47000000000E+01 0.  1.
         -5    1    3    3    0  502 -0.85189784163E+02 -0.33908361494E+02  0.16734863471E+03  0.19087884075E+03  0.47000000000E+01 0.  1.
        -11    1    1    2    0    0  0.38170236107E+02  0.54373894720E+02  0.17392786682E+02  0.68673112497E+02  0.00000000000E+00 0.  1.
         11    1    1    2    0    0  0.48135648956E+02  0.59822810515E+02  0.17367474789E+03  0.18989135687E+03  0.00000000000E+00 0. -1.
<mgrwt>
<rscale>  0 0.18595048E+03</rscale>
<asrwt>0</asrwt>
<pdfrwt beam="1">  1        3 0.71925966E-01 0.19003760E+03</pdfrwt>
<pdfrwt beam="2">  1       -3 0.10915167E-01 0.19003760E+03</pdfrwt>
<totfact> 0.29087092E+02</totfact>
</mgrwt>
</event>
<event>
 6    1  0.5928109E-006  0.2101169E+03  0.7546771E-02  0.1175428E+00
         -1   -1    0    0    0  501 -0.00000000000E+00  0.00000000000E+00  0.18498315213E+02  0.18498315213E+02  0.00000000000E+00 0.  1.
          1   -1    0    0  501    0  0.00000000000E+00 -0.00000000000E+00 -0.13661838374E+04  0.13661838374E+04  0.00000000000E+00 0. -1.
          5    1    1    2  502    0 -0.18552910857E+02 -0.10738763965E+03 -0.82142122947E+03  0.82863215112E+03  0.47000000000E+01 0. -1.
         -5    1    1    2    0  502  0.54608488642E+01  0.83654552353E+02 -0.26722318171E+03  0.28010395185E+03  0.47000000000E+01 0.  1.
        -11    1    1    2    0    0  0.30999576949E+02  0.32902833458E+02 -0.24970972068E+03  0.25376862458E+03  0.00000000000E+00 0. -1.
         11    1    1    2    0    0 -0.17907514956E+02 -0.91697461575E+01 -0.93313903205E+01  0.22177425049E+02  0.00000000000E+00 0.  1.
<mgrwt>
<rscale>  0 0.17234167E+03</rscale>
<asrwt>0</asrwt>
<pdfrwt beam="2">  1        1 0.21018218E+00 0.21011685E+03</pdfrwt>
<pdfrwt beam="1">  1       -1 0.28458940E-02 0.21011685E+03</pdfrwt>
<totfact> 0.35740750E+03</totfact>
</mgrwt>
</event>
<event>
 7    1  0.5928109E-006  0.3189564E+03  0.7546771E-02  0.1077593E+00
          2   -1    0    0  501    0  0.00000000000E+00  0.00000000000E+00  0.12980705221E+04  0.12980705221E+04  0.00000000000E+00 0. -1.
         -2   -1    0    0    0  501 -0.00000000000E+00 -0.00000000000E+00 -0.17137697904E+03  0.17137697904E+03  0.00000000000E+00 0.  1.
         23    2    1    2    0    0  0.29254088737E+03  0.22984266023E+02  0.11181613421E+04  0.11627630652E+04  0.12499884607E+03 0.  0.
          5    1    3    3  502    0  0.17138647405E+03  0.59176624313E+02  0.50245119631E+03  0.53418582069E+03  0.47000000000E+01 0.  1.
         -5    1    3    3    0  502  0.12115441332E+03 -0.36192358290E+02  0.61571014577E+03  0.62857724448E+03  0.47000000000E+01 0.  1.
        -11    1    1    2    0    0 -0.12269057671E+03 -0.43674198948E+02  0.31652930966E+02  0.13402358489E+03  0.00000000000E+00 0. -1.
         11    1    1    2    0    0 -0.16985031066E+03  0.20689932925E+02 -0.23120729958E+02  0.17266085112E+03  0.00000000000E+00 0.  1.
<mgrwt>
<rscale>  0 0.31581252E+03</rscale>
<asrwt>0</asrwt>
<pdfrwt beam="1">  1        2 0.19970315E+00 0.31895636E+03</pdfrwt>
<pdfrwt beam="2">  1       -2 0.26365690E-01 0.31895636E+03</pdfrwt>
<totfact> 0.22761349E+02</totfact>
</mgrwt>
</event>
<event>
 7    1  0.5928109E-006  0.1301952E+03  0.7546771E-02  0.1241050E+00
         -2   -1    0    0    0  501 -0.00000000000E+00  0.00000000000E+00  0.32126616491E+02  0.32126616491E+02  0.00000000000E+00 0.  1.
          2   -1    0    0  501    0  0.00000000000E+00 -0.00000000000E+00 -0.42268923068E+03  0.42268923068E+03  0.00000000000E+00 0. -1.
         23    2    1    2    0    0  0.36267537131E+02  0.39342982245E+01 -0.26784038288E+03  0.29780742100E+03  0.12497990377E+03 0.  0.
          5    1    3    3  502    0  0.37170686900E+02 -0.40031783952E+02 -0.23853013387E+03  0.24475072718E+03  0.47000000000E+01 0.  1.
         -5    1    3    3    0  502 -0.90314976902E+00  0.43966082176E+02 -0.29310249010E+02  0.53056693814E+02  0.47000000000E+01 0.  1.
        -11    1    1    2    0    0 -0.22868187976E+02  0.43180827639E+02 -0.57972148397E+02  0.75817596155E+02  0.00000000000E+00 0. -1.
         11    1    1    2    0    0 -0.13399349154E+02 -0.47115125863E+02 -0.64750082911E+02  0.81190830023E+02  0.00000000000E+00 0.  1.
<mgrwt>
<rscale>  0 0.12124913E+03</rscale>
<asrwt>0</asrwt>
<pdfrwt beam="2">  1        2 0.65029109E-01 0.13019520E+03</pdfrwt>
<pdfrwt beam="1">  1       -2 0.49425566E-02 0.13019520E+03</pdfrwt>
<totfact> 0.14087883E+04</totfact>
</mgrwt>
</event>
<event>
 7    1  0.5928109E-006  0.1253847E+03  0.7546771E-02  0.1248062E+00
          1   -1    0    0  501    0  0.00000000000E+00  0.00000000000E+00  0.33508227021E+03  0.33508227021E+03  0.00000000000E+00 0. -1.
         -1   -1    0    0    0  501 -0.00000000000E+00 -0.00000000000E+00 -0.40155520751E+02  0.40155520751E+02  0.00000000000E+00 0.  1.
         23    2    1    2    0    0 -0.15832841972E+02  0.24270059642E+02  0.22334982324E+03  0.25613758446E+03  0.12199017974E+03 0.  0.
          5    1    3    3  502    0 -0.20090433132E+02 -0.46783636487E+02  0.12120363730E+03  0.13154750413E+03  0.47000000000E+01 0. -1.
         -5    1    3    3    0  502  0.42575911601E+01  0.71053696130E+02  0.10214618594E+03  0.12459008033E+03  0.47000000000E+01 0.  1.
        -11    1    1    2    0    0  0.50894476038E+02 -0.29353090882E+02  0.36068742907E+02  0.68940596533E+02  0.00000000000E+00 0. -1.
         11    1    1    2    0    0 -0.35061634066E+02  0.50830312400E+01  0.35508183315E+02  0.50159609969E+02  0.00000000000E+00 0.  1.
<mgrwt>
<rscale>  0 0.11703991E+03</rscale>
<asrwt>0</asrwt>
<pdfrwt beam="1">  1        1 0.51551117E-01 0.12538468E+03</pdfrwt>
<pdfrwt beam="2">  1       -1 0.61777726E-02 0.12538468E+03</pdfrwt>
<totfact> 0.91714896E+03</totfact>
</mgrwt>
</event>
<event>
 7    1  0.5928109E-006  0.1346171E+03  0.7546771E-02  0.1233136E+00
          2   -1    0    0  501    0  0.00000000000E+00  0.00000000000E+00  0.14740719290E+03  0.14740719290E+03  0.00000000000E+00 0. -1.
         -2   -1    0    0    0  501 -0.00000000000E+00 -0.00000000000E+00 -0.97242406743E+02  0.97242406743E+02  0.00000000000E+00 0.  1.
         23    2    1    2    0    0 -0.12928981556E+02 -0.48251087453E+02  0.37587260900E+02  0.13976612539E+03  0.12500576635E+03 0.  0.
          5    1    3    3  502    0 -0.54691478189E+02 -0.67979513017E+02  0.31791678392E+02  0.92979421334E+02  0.47000000000E+01 0.  1.
         -5    1    3    3    0  502  0.41762496633E+02  0.19728425564E+02  0.57955825072E+01  0.46786704061E+02  0.47000000000E+01 0.  1.
        -11    1    1    2    0    0  0.32750852549E+02  0.67247411939E+02  0.27707874773E+00  0.74799127854E+02  0.00000000000E+00 0.  1.
         11    1    1    2    0    0 -0.19821870993E+02 -0.18996324486E+02  0.12300446509E+02  0.30084346394E+02  0.00000000000E+00 0. -1.
<mgrwt>
<rscale>  0 0.12624542E+03</rscale>
<asrwt>0</asrwt>
<pdfrwt beam="1">  1        2 0.22678030E-01 0.13461711E+03</pdfrwt>
<pdfrwt beam="2">  1       -2 0.14960370E-01 0.13461711E+03</pdfrwt>
<totfact> 0.78115618E+03</totfact>
</mgrwt>
</event>
<event>
 7    1  0.5928109E-006  0.1255938E+03  0.7546771E-02  0.1249877E+00
         -4   -1    0    0    0  501 -0.00000000000E+00  0.00000000000E+00  0.56104574338E+02  0.56104574338E+02  0.00000000000E+00 0.  1.
          4   -1    0    0  501    0  0.00000000000E+00 -0.00000000000E+00 -0.21307877384E+03  0.21307877384E+03  0.00000000000E+00 0. -1.
         23    2    1    2    0    0 -0.12186564233E+02 -0.39630948359E+00 -0.73938693578E+02  0.14574199039E+03  0.12500051179E+03 0.  0.
          5    1    3    3  502    0  0.19735265801E+01  0.50116467484E+02 -0.78068361871E+02  0.92910248334E+02  0.47000000000E+01 0.  1.
         -5    1    3    3    0  502 -0.14160090813E+02 -0.50512776968E+02  0.41296682923E+01  0.52831742060E+02  0.47000000000E+01 0.  1.
        -11    1    1    2    0    0 -0.25520016798E+02  0.32658783130E+02 -0.33114177824E+02  0.53051071110E+02  0.00000000000E+00 0. -1.
         11    1    1    2    0    0  0.37706581032E+02 -0.32262473647E+02 -0.49921328096E+02  0.70390286672E+02  0.00000000000E+00 0.  1.
<mgrwt>
<rscale>  0 0.11598199E+03</rscale>
<asrwt>0</asrwt>
<pdfrwt beam="2">  1        4 0.32781350E-01 0.12559378E+03</pdfrwt>
<pdfrwt beam="1">  1       -4 0.86314730E-02 0.12559378E+03</pdfrwt>
<totfact> 0.14129143E+03</totfact>
</mgrwt>
</event>
<event>
 7    1  0.5928109E-006  0.1288912E+03  0.7546771E-02  0.1243064E+00
          1   -1    0    0  501    0  0.00000000000E+00  0.00000000000E+00  0.16872070081E+03  0.16872070081E+03  0.00000000000E+00 0. -1.
         -1   -1    0    0    0  501 -0.00000000000E+00 -0.00000000000E+00 -0.75558570023E+02  0.75558570023E+02  0.00000000000E+00 0.  1.
         23    2    1    2    0    0  0.27853500866E+02 -0.14599833769E+02  0.51551133227E+02  0.13881808632E+03  0.12499587632E+03 0.  0.
          5    1    3    3  502    0 -0.28636734959E+00 -0.36659656854E+02 -0.31315949711E+02  0.48443690540E+02  0.47000000000E+01 0.  1.
         -5    1    3    3    0  502  0.28139868216E+02  0.22059823085E+02  0.82867082938E+02  0.90374395779E+02  0.47000000000E+01 0.  1.
        -11    1    1    2    0    0 -0.44269013179E+02  0.37856336338E+02  0.41281826902E+01  0.58394260173E+02  0.00000000000E+00 0.  1.
         11    1    1    2    0    0  0.16415512313E+02 -0.23256502570E+02  0.37482814865E+02  0.47066924336E+02  0.00000000000E+00 0. -1.
<mgrwt>
<rscale>  0 0.12002012E+03</rscale>
<asrwt>0</asrwt>
<pdfrwt beam="1">  1        1 0.25957031E-01 0.12889120E+03</pdfrwt>
<pdfrwt beam="2">  1       -1 0.11624395E-01 0.12889120E+03</pdfrwt>
<totfact> 0.82674273E+03</totfact>
</mgrwt>
</event>
<event>
 7    1  0.5928109E-006  0.1558304E+03  0.7546771E-02  0.1201809E+00
         -2   -1    0    0    0  501 -0.00000000000E+00  0.00000000000E+00  0.34279726459E+02  0.34279726459E+02  0.00000000000E+00 0. -1.
          2   -1    0    0  501    0  0.00000000000E+00 -0.00000000000E+00 -0.61891375401E+03  0.61891375401E+03  0.00000000000E+00 0.  1.
         23    2    1    2    0    0 -0.70462738423E+02 -0.60775406232E+02 -0.38079345392E+03  0.41144471661E+03  0.12499781104E+03 0.  0.
          5    1    3    3  502    0 -0.10308849850E+03 -0.51639801081E+02 -0.33478501295E+03  0.35411439180E+03  0.47000000000E+01 0.  1.
         -5    1    3    3    0  502  0.32625760080E+02 -0.91356051507E+01 -0.46008440968E+02  0.57330324808E+02  0.47000000000E+01 0.  1.
        -11    1    1    2    0    0  0.73957386905E+02  0.13278429551E+02 -0.83522398246E+02  0.11234768702E+03  0.00000000000E+00 0. -1.
         11    1    1    2    0    0 -0.34946484816E+01  0.47496976681E+02 -0.12031817539E+03  0.12940107685E+03  0.00000000000E+00 0.  1.
<mgrwt>
<rscale>  0 0.14891811E+03</rscale>
<asrwt>0</asrwt>
<pdfrwt beam="2">  1        2 0.95217502E-01 0.15583036E+03</pdfrwt>
<pdfrwt beam="1">  1       -2 0.52738040E-02 0.15583036E+03</pdfrwt>
<totfact> 0.84832840E+03</totfact>
</mgrwt>
</event>
<event>
 7    1  0.5928109E-006  0.1426282E+03  0.7546771E-02  0.1220046E+00
          3   -1    0    0  501    0  0.00000000000E+00  0.00000000000E+00  0.14827397076E+03  0.14827397076E+03  0.00000000000E+00 0. -1.
         -3   -1    0    0    0  501 -0.00000000000E+00 -0.00000000000E+00 -0.13233996813E+03  0.13233996813E+03  0.00000000000E+00 0.  1.
         23    2    1    2    0    0  0.52232692641E+02  0.44614243101E+02  0.63671470727E+02  0.15619492494E+03  0.12499645404E+03 0.  0.
          5    1    3    3  502    0  0.12397564568E+02  0.30799633071E+02  0.96752081215E+02  0.10239810654E+03  0.47000000000E+01 0.  1.
         -5    1    3    3    0  502  0.39835128073E+02  0.13814610030E+02 -0.33080610488E+02  0.53796818393E+02  0.47000000000E+01 0.  1.
        -11    1    1    2    0    0 -0.32292418215E+02  0.82694900182E+01  0.17871680708E+02  0.37823031484E+02  0.00000000000E+00 0. -1.
         11    1    1    2    0    0 -0.19940274426E+02 -0.52883733119E+02 -0.65609148800E+02  0.86595982465E+02  0.00000000000E+00 0.  1.
<mgrwt>
<rscale>  0 0.13512347E+03</rscale>
<asrwt>0</asrwt>
<pdfrwt beam="1">  1        3 0.22811380E-01 0.14262818E+03</pdfrwt>
<pdfrwt beam="2">  1       -3 0.20359995E-01 0.14262818E+03</pdfrwt>
<totfact> 0.89679666E+02</totfact>
</mgrwt>
</event>
<event>
 7    1  0.5928109E-006  0.1565224E+03  0.7546771E-02  0.1199386E+00
         -1   -1    0    0    0  501 -0.00000000000E+00  0.00000000000E+00  0.32014696952E+02  0.32014696952E+02  0.00000000000E+00 0.  1.
          1   -1    0    0  501    0  0.00000000000E+00 -0.00000000000E+00 -0.66928766374E+03  0.66928766374E+03  0.00000000000E+00 0. -1.
         23    2    1    2    0    0  0.87457243459E+02  0.35003412603E+02 -0.37157409623E+03  0.40319546739E+03  0.12500107043E+03 0.  0.
          5    1    3    3  502    0  0.78775568921E+02  0.71175257542E+01 -0.36418461399E+03  0.37270467196E+03  0.47000000000E+01 0. -1.
         -5    1    3    3    0  502  0.86816745383E+01  0.27885886849E+02 -0.73894822315E+01  0.30490795427E+02  0.47000000000E+01 0. -1.
        -11    1    1    2    0    0 -0.96773593268E+02 -0.54148339833E+02 -0.19562190108E+03  0.22486684781E+03  0.00000000000E+00 0.  1.
         11    1    1    2    0    0  0.93163498091E+01  0.19144927230E+02 -0.70076969487E+02  0.73240045500E+02  0.00000000000E+00 0. -1.
<mgrwt>
<rscale>  0 0.15088818E+03</rscale>
<asrwt>0</asrwt>
<pdfrwt beam="2">  1        1 0.10296733E+00 0.15652245E+03</pdfrwt>
<pdfrwt beam="1">  1       -1 0.49253380E-02 0.15652245E+03</pdfrwt>
<totfact> 0.52801007E+03</totfact>
</mgrwt>
</event>
<event>
 7    1  0.5928109E-006  0.1336052E+03  0.7546771E-02  0.1234607E+00
         -2   -1    0    0    0  501 -0.00000000000E+00  0.00000000000E+00  0.70631453287E+02  0.70631453287E+02  0.00000000000E+00 0.  1.
          2   -1    0    0  501    0  0.00000000000E+00 -0.00000000000E+00 -0.29450274725E+03  0.29450274725E+03  0.00000000000E+00 0. -1.
         23    2    1    2    0    0 -0.95758726174E+01 -0.46165189116E+02 -0.22512173429E+03  0.26178264298E+03  0.12500973920E+03 0.  0.
          5    1    3    3  502    0 -0.24445699972E+02 -0.33953457484E+02 -0.68989742617E+01  0.42662810129E+02  0.47000000000E+01 0. -1.
         -5    1    3    3    0  502  0.14869827355E+02 -0.12211731632E+02 -0.21822276003E+03  0.21911983285E+03  0.47000000000E+01 0. -1.
        -11    1    1    2    0    0  0.27720295301E+02  0.37175540411E+02 -0.37494328009E+02  0.59634387808E+02  0.00000000000E+00 0. -1.
         11    1    1    2    0    0 -0.18144422684E+02  0.89896487049E+01  0.38744768329E+02  0.43717169753E+02  0.00000000000E+00 0.  1.
<mgrwt>
<rscale>  0 0.12529649E+03</rscale>
<asrwt>0</asrwt>
<pdfrwt beam="2">  1        2 0.45308116E-01 0.13360523E+03</pdfrwt>
<pdfrwt beam="1">  1       -2 0.10866377E-01 0.13360523E+03</pdfrwt>
<totfact> 0.61782835E+03</totfact>
</mgrwt>
</event>
<event>
 7    1  0.5928109E-006  0.1263217E+03  0.7546771E-02  0.1249012E+00
          2   -1    0    0  501    0  0.00000000000E+00  0.00000000000E+00  0.22914709376E+03  0.22914709376E+03  0.00000000000E+00 0. -1.
         -2   -1    0    0    0  501 -0.00000000000E+00 -0.00000000000E+00 -0.56422505971E+02  0.56422505971E+02  0.00000000000E+00 0.  1.
         23    2    1    2    0    0 -0.15873305671E+02 -0.89091742722E+01  0.13995903166E+03  0.18853566801E+03  0.12500332936E+03 0.  0.
          5    1    3    3  502    0  0.12886911764E+02  0.42777923080E+02  0.11626749909E+03  0.12464447257E+03  0.47000000000E+01 0.  1.
         -5    1    3    3    0  502 -0.28760217435E+02 -0.51687097352E+02  0.23691532572E+02  0.63891195443E+02  0.47000000000E+01 0.  1.
        -11    1    1    2    0    0  0.33730260122E+02  0.38017376640E+02  0.36656688485E+02  0.62663898580E+02  0.00000000000E+00 0. -1.
         11    1    1    2    0    0 -0.17856954451E+02 -0.29108202368E+02 -0.38911323497E+01  0.34370033144E+02  0.00000000000E+00 0.  1.
<mgrwt>
<rscale>  0 0.11648425E+03</rscale>
<asrwt>0</asrwt>
<pdfrwt beam="1">  1        2 0.35253398E-01 0.12632168E+03</pdfrwt>
<pdfrwt beam="2">  1       -2 0.86803857E-02 0.12632168E+03</pdfrwt>
<totfact> 0.11417877E+04</totfact>
</mgrwt>
</event>
<event>
 7    1  0.5928109E-006  0.1559163E+03  0.7546771E-02  0.1203370E+00
         -1   -1    0    0    0  501 -0.00000000000E+00  0.00000000000E+00  0.51055899915E+02  0.51055899915E+02  0.00000000000E+00 0. -1.
          1   -1    0    0  501    0  0.00000000000E+00 -0.00000000000E+00 -0.39121460538E+03  0.39121460538E+03  0.00000000000E+00 0.  1.
         23    2    1    2    0    0 -0.50243013727E+02  0.78505534520E+02 -0.20935448065E+03  0.26103483164E+03  0.12498962110E+03 0.  0.
          5    1    3    3  502    0 -0.23801146683E+01  0.52284581200E+02 -0.89838305208E+01  0.53311739682E+02  0.47000000000E+01 0. -1.
         -5    1    3    3    0  502 -0.47862899059E+02  0.26220953321E+02 -0.20037065013E+03  0.20772309196E+03  0.47000000000E+01 0. -1.
        -11    1    1    2    0    0  0.59694070293E+01 -0.22049282418E+02 -0.10099086013E+03  0.10354206153E+03  0.00000000000E+00 0.  1.
         11    1    1    2    0    0  0.44273606698E+02 -0.56456252102E+02 -0.29813364682E+02  0.77693612126E+02  0.00000000000E+00 0. -1.
<mgrwt>
<rscale>  0 0.14766669E+03</rscale>
<asrwt>0</asrwt>
<pdfrwt beam="2">  1        1 0.60186861E-01 0.15591627E+03</pdfrwt>
<pdfrwt beam="1">  1       -1 0.78547540E-02 0.15591627E+03</pdfrwt>
<totfact> 0.53434709E+03</totfact>
</mgrwt>
</event>
<event>
 6    1  0.5928109E-006  0.3792023E+03  0.7546771E-02  0.1093657E+00
         -2   -1    0    0    0  501 -0.00000000000E+00  0.00000000000E+00  0.16545107265E+03  0.16545107265E+03  0.00000000000E+00 0.  1.
          2   -1    0    0  501    0  0.00000000000E+00 -0.00000000000E+00 -0.58352795355E+03  0.58352795355E+03  0.00000000000E+00 0. -1.
          5    1    1    2  502    0  0.11589699107E+02  0.24040646784E+02 -0.50539474623E+03  0.50612074977E+03  0.47000000000E+01 0. -1.
         -5    1    1    2    0  502 -0.10471370602E+03  0.84198692471E+01  0.22831658190E+02  0.10760682618E+03  0.47000000000E+01 0.  1.
        -11    1    1    2    0    0  0.10948308428E+02  0.17135276322E+02  0.22963807030E+02  0.30672782485E+02  0.00000000000E+00 0. -1.
         11    1    1    2    0    0  0.82175698481E+02 -0.49595792353E+02  0.41522400114E+02  0.10457866776E+03  0.00000000000E+00 0.  1.
<mgrwt>
<rscale>  0 0.28375155E+03</rscale>
<asrwt>0</asrwt>
<pdfrwt beam="2">  1        2 0.89773530E-01 0.37920233E+03</pdfrwt>
<pdfrwt beam="1">  1       -2 0.25454012E-01 0.37920233E+03</pdfrwt>
<totfact> 0.71873122E+02</totfact>
</mgrwt>
</event>
<event>
 7    1  0.5928109E-006  0.1267240E+03  0.7546771E-02  0.1247790E+00
          2   -1    0    0  501    0  0.00000000000E+00  0.00000000000E+00  0.20508716434E+03  0.20508716434E+03  0.00000000000E+00 0.  1.
         -2   -1    0    0    0  501 -0.00000000000E+00 -0.00000000000E+00 -0.60106626630E+02  0.60106626630E+02  0.00000000000E+00 0. -1.
         23    2    1    2    0    0  0.17236947942E+02 -0.11744249212E+02  0.10354097451E+03  0.16364504639E+03  0.12499571209E+03 0.  0.
          5    1    3    3  502    0 -0.33992053579E+02 -0.17686419046E+02  0.10496506176E+03  0.11183927448E+03  0.47000000000E+01 0.  1.
         -5    1    3    3    0  502  0.51229001521E+02  0.59421698339E+01 -0.14240872472E+01  0.51805771915E+02  0.47000000000E+01 0.  1.
        -11    1    1    2    0    0  0.49199245343E+01 -0.35114463610E+02  0.43916143292E+00  0.35460175899E+02  0.00000000000E+00 0.  1.
         11    1    1    2    0    0 -0.22156872477E+02  0.46858712822E+02  0.41000401765E+02  0.66088568680E+02  0.00000000000E+00 0. -1.
<mgrwt>
<rscale>  0 0.11719910E+03</rscale>
<asrwt>0</asrwt>
<pdfrwt beam="1">  1        2 0.31551871E-01 0.12672398E+03</pdfrwt>
<pdfrwt beam="2">  1       -2 0.92471734E-02 0.12672398E+03</pdfrwt>
<totfact> 0.11658552E+04</totfact>
</mgrwt>
</event>
<event>
 7    1  0.5928109E-006  0.2026994E+03  0.7546771E-02  0.1151448E+00
         -1   -1    0    0    0  501 -0.00000000000E+00  0.00000000000E+00  0.35490062609E+02  0.35490062609E+02  0.00000000000E+00 0.  1.
          1   -1    0    0  501    0  0.00000000000E+00 -0.00000000000E+00 -0.11853008724E+04  0.11853008724E+04  0.00000000000E+00 0. -1.
         23    2    1    2    0    0 -0.41988724274E+02  0.15396750907E+03 -0.80032395707E+03  0.82559401685E+03  0.12497198718E+03 0.  0.
          5    1    3    3  502    0 -0.82917906825E+02  0.12901322481E+03 -0.57015945545E+03  0.59044363498E+03  0.47000000000E+01 0. -1.
         -5    1    3    3    0  502  0.40929182551E+02  0.24954284259E+02 -0.23016450162E+03  0.23515038187E+03  0.47000000000E+01 0. -1.
        -11    1    1    2    0    0 -0.14129006557E+02 -0.87473084513E+02 -0.11561595984E+03  0.14566475040E+03  0.00000000000E+00 0. -1.
         11    1    1    2    0    0  0.56117730830E+02 -0.66494424555E+02 -0.23387089293E+03  0.24953216780E+03  0.00000000000E+00 0.  1.
<mgrwt>
<rscale>  0 0.19798729E+03</rscale>
<asrwt>0</asrwt>
<pdfrwt beam="2">  1        1 0.18235395E+00 0.20269939E+03</pdfrwt>
<pdfrwt beam="1">  1       -1 0.54600104E-02 0.20269939E+03</pdfrwt>
<totfact> 0.18059839E+03</totfact>
</mgrwt>
</event>
<event>
 7    1  0.5928109E-006  0.1368316E+03  0.7546771E-02  0.1231313E+00
          1   -1    0    0  501    0  0.00000000000E+00  0.00000000000E+00  0.99312430523E+02  0.99312430523E+02  0.00000000000E+00 0. -1.
         -1   -1    0    0    0  501 -0.00000000000E+00 -0.00000000000E+00 -0.14640279761E+03  0.14640279761E+03  0.00000000000E+00 0.  1.
         23    2    1    2    0    0 -0.31112079394E+02 -0.46128518767E+02 -0.13803577725E+02  0.13752608265E+03  0.12500833141E+03 0.  0.
          5    1    3    3  502    0 -0.61651751363E+02  0.90696491203E+01  0.20240992092E+02  0.65688543462E+02  0.47000000000E+01 0.  1.
         -5    1    3    3    0  502  0.30539671969E+02 -0.55198167887E+02 -0.34044569817E+02  0.71837539184E+02  0.47000000000E+01 0.  1.
        -11    1    1    2    0    0  0.12752203192E+02  0.70858329933E+02 -0.20670400578E+02  0.74905187185E+02  0.00000000000E+00 0. -1.
         11    1    1    2    0    0  0.18359876202E+02 -0.24729811166E+02 -0.12616388786E+02  0.33283958305E+02  0.00000000000E+00 0.  1.
<mgrwt>
<rscale>  0 0.12743451E+03</rscale>
<asrwt>0</asrwt>
<pdfrwt beam="1">  1        1 0.15278836E-01 0.13683159E+03</pdfrwt>
<pdfrwt beam="2">  1       -1 0.22523507E-01 0.13683159E+03</pdfrwt>
<totfact> 0.57369702E+03</totfact>
</mgrwt>
</event>
<event>
 7    1  0.5928109E-006  0.1537326E+03  0.7546771E-02  0.1205691E+00
          1   -1    0    0  501    0  0.00000000000E+00  0.00000000000E+00  0.13005598321E+03  0.13005598321E+03  0.00000000000E+00 0. -1.
         -1   -1    0    0    0  501 -0.00000000000E+00 -0.00000000000E+00 -0.19792979485E+03  0.19792979485E+03  0.00000000000E+00 0.  1.
         23    2    1    2    0    0  0.88919486632E+02  0.10379077607E+02  0.44753580274E+02  0.16011433338E+03  0.12497726373E+03 0.  0.
          5    1    3    3  502    0  0.18969504471E+01  0.55390089648E+02  0.17567770823E+02  0.58329898199E+02  0.47000000000E+01 0. -1.
         -5    1    3    3    0  502  0.87022536185E+02 -0.45011012040E+02  0.27185809450E+02  0.10178443518E+03  0.47000000000E+01 0. -1.
        -11    1    1    2    0    0 -0.63805452892E+02 -0.57575365061E+01 -0.13452557559E+02  0.65461869437E+02  0.00000000000E+00 0. -1.
         11    1    1    2    0    0 -0.25114033740E+02 -0.46215411014E+01 -0.99174834355E+02  0.10240957525E+03  0.00000000000E+00 0.  1.
<mgrwt>
<rscale>  0 0.14583158E+03</rscale>
<asrwt>0</asrwt>
<pdfrwt beam="1">  1        1 0.20008613E-01 0.15373261E+03</pdfrwt>
<pdfrwt beam="2">  1       -1 0.30450737E-01 0.15373261E+03</pdfrwt>
<totfact> 0.24787937E+03</totfact>
</mgrwt>
</event>
<event>
 7    1  0.5928109E-006  0.1471788E+03  0.7546771E-02  0.1213283E+00
         -2   -1    0    0    0  501 -0.00000000000E+00  0.00000000000E+00  0.66872137396E+02  0.66872137396E+02  0.00000000000E+00 0.  1.
          2   -1    0    0  501    0  0.00000000000E+00 -0.00000000000E+00 -0.26830980278E+03  0.26830980278E+03  0.00000000000E+00 0. -1.
         23    2    1    2    0    0 -0.22255576048E+02 -0.74427296357E+02 -0.10604002232E+03  0.18140031574E+03  0.12500742021E+03 0.  0.
          5    1    3    3  502    0  0.10086358918E+02 -0.83282372205E+01 -0.10675863363E+03  0.10765960257E+03  0.47000000000E+01 0.  1.
         -5    1    3    3    0  502 -0.32341934966E+02 -0.66099059136E+02  0.71861130730E+00  0.73740713166E+02  0.47000000000E+01 0.  1.
        -11    1    1    2    0    0  0.39127659635E+02  0.50412235511E+02 -0.10502567674E+03  0.12289328709E+03  0.00000000000E+00 0. -1.
         11    1    1    2    0    0 -0.16872083587E+02  0.24015060846E+02  0.96280336714E+01  0.30888337352E+02  0.00000000000E+00 0.  1.
<mgrwt>
<rscale>  0 0.14003434E+03</rscale>
<asrwt>0</asrwt>
<pdfrwt beam="2">  1        2 0.41278431E-01 0.14717876E+03</pdfrwt>
<pdfrwt beam="1">  1       -2 0.10288021E-01 0.14717876E+03</pdfrwt>
<totfact> 0.74819644E+03</totfact>
</mgrwt>
</event>
<event>
 7    1  0.9873354E-006  0.2410862E+03  0.7546771E-02  0.1121700E+00
         -2   -1    0    0    0  501 -0.00000000000E+00  0.00000000000E+00  0.16254142645E+03  0.16254142645E+03  0.00000000000E+00 0.  1.
          2   -1    0    0  501    0  0.00000000000E+00 -0.00000000000E+00 -0.33530560011E+03  0.33530560011E+03  0.00000000000E+00 0. -1.
         23    2    1    2    0    0  0.28158716220E+02  0.20421584090E+03 -0.93366926177E+02  0.25853425826E+03  0.12500222725E+03 0.  0.
          5    1    3    3  502    0  0.22830783500E+01  0.83066894615E+02  0.25229988570E+02  0.86971051224E+02  0.47000000000E+01 0.  1.
         -5    1    3    3    0  502  0.25875637870E+02  0.12114894628E+03 -0.11859691475E+03  0.17156320704E+03  0.47000000000E+01 0.  1.
        -11    1    1    2    0    0 -0.44519868304E+02 -0.10349006916E+03 -0.45338071523E+01  0.11275091350E+03  0.00000000000E+00 0.  1.
         11    1    1    2    0    0  0.16361152084E+02 -0.10072577174E+03 -0.74863440330E+02  0.12656185479E+03  0.00000000000E+00 0. -1.
<mgrwt>
<rscale>  0 0.23715928E+03</rscale>
<asrwt>0</asrwt>
<pdfrwt beam="2">  1        2 0.51585478E-01 0.24108625E+03</pdfrwt>
<pdfrwt beam="1">  1       -2 0.25006373E-01 0.24108625E+03</pdfrwt>
<totfact> 0.13728988E+03</totfact>
</mgrwt>
</event>
<event>
 6    1  0.5928109E-006  0.1350432E+03  0.7546771E-02  0.1235942E+00
         -1   -1    0    0    0  501 -0.00000000000E+00  0.00000000000E+00  0.27687324715E+03  0.27687324715E+03  0.00000000000E+00 0.  1.
          1   -1    0    0  501    0  0.00000000000E+00 -0.00000000000E+00 -0.10275046594E+03  0.10275046594E+03  0.00000000000E+00 0. -1.
          5    1    1    2  502    0 -0.24941104344E+02  0.57395715761E+02  0.18082592898E+02  0.65310007193E+02  0.47000000000E+01 0. -1.
         -5    1    1    2    0  502  0.12145781267E+02 -0.44069828501E+02 -0.61033007592E+02  0.76398873044E+02  0.47000000000E+01 0.  1.
        -11    1    1    2    0    0 -0.20101675036E+02 -0.46174673966E+02  0.12520473172E+03  0.13495333527E+03  0.00000000000E+00 0.  1.
         11    1    1    2    0    0  0.32896998113E+02  0.32848786706E+02  0.91868464185E+02  0.10296149758E+03  0.00000000000E+00 0. -1.
<mgrwt>
<rscale>  0 0.12444316E+03</rscale>
<asrwt>0</asrwt>
<pdfrwt beam="2">  1        1 0.15807764E-01 0.13504321E+03</pdfrwt>
<pdfrwt beam="1">  1       -1 0.42595884E-01 0.13504321E+03</pdfrwt>
<totfact> 0.18684243E+03</totfact>
</mgrwt>
</event>
<event>
 7    1  0.5928109E-006  0.1247964E+03  0.7546771E-02  0.1245348E+00
         -1   -1    0    0    0  501 -0.00000000000E+00  0.00000000000E+00  0.56394867178E+03  0.56394867178E+03  0.00000000000E+00 0.  1.
          1   -1    0    0  501    0  0.00000000000E+00 -0.00000000000E+00 -0.35278610913E+02  0.35278610913E+02  0.00000000000E+00 0. -1.
         23    2    1    2    0    0 -0.33817142893E+02 -0.33337364912E+02  0.10387953820E+03  0.16237336324E+03  0.11540871536E+03 0.  0.
          5    1    3    3  502    0 -0.73895061437E+02 -0.56653246939E+01  0.49632843012E+02  0.89320127150E+02  0.47000000000E+01 0. -1.
         -5    1    3    3    0  502  0.40077918544E+02 -0.27672040218E+02  0.54246695188E+02  0.73053236091E+02  0.47000000000E+01 0.  1.
        -11    1    1    2    0    0 -0.26050891266E+02 -0.99912289448E+01  0.10615735751E+03  0.10976273569E+03  0.00000000000E+00 0. -1.
         11    1    1    2    0    0  0.59868034159E+02  0.43328593857E+02  0.31863316516E+03  0.32709118377E+03  0.00000000000E+00 0.  1.
<mgrwt>
<rscale>  0 0.11864552E+03</rscale>
<asrwt>0</asrwt>
<pdfrwt beam="2">  1        1 0.54274790E-02 0.12479644E+03</pdfrwt>
<pdfrwt beam="1">  1       -1 0.86761328E-01 0.12479644E+03</pdfrwt>
<totfact> 0.19750724E+03</totfact>
</mgrwt>
</event>
<event>
 7    1  0.5928109E-006  0.1324943E+03  0.7546771E-02  0.1236685E+00
         -2   -1    0    0    0  501 -0.00000000000E+00  0.00000000000E+00  0.11611591486E+03  0.11611591486E+03  0.00000000000E+00 0. -1.
          2   -1    0    0  501    0  0.00000000000E+00 -0.00000000000E+00 -0.12723226846E+03  0.12723226846E+03  0.00000000000E+00 0.  1.
         23    2    1    2    0    0  0.13260763082E+02  0.41863994879E+02 -0.38855098582E+02  0.13807411980E+03  0.12500520776E+03 0.  0.
          5    1    3    3  502    0 -0.21190547069E+02 -0.22769089589E+02  0.25475234615E+02  0.40478985961E+02  0.47000000000E+01 0.  1.
         -5    1    3    3    0  502  0.34451310151E+02  0.64633084468E+02 -0.64330333197E+02  0.97595133835E+02  0.47000000000E+01 0.  1.
        -11    1    1    2    0    0  0.10541494054E+01 -0.35475850058E+02 -0.29360750361E+02  0.46061923864E+02  0.00000000000E+00 0.  1.
         11    1    1    2    0    0 -0.14314912487E+02 -0.63881448213E+01  0.57099495342E+02  0.59212139651E+02  0.00000000000E+00 0. -1.
<mgrwt>
<rscale>  0 0.12397156E+03</rscale>
<asrwt>0</asrwt>
<pdfrwt beam="2">  1        2 0.19574195E-01 0.13249432E+03</pdfrwt>
<pdfrwt beam="1">  1       -2 0.17863987E-01 0.13249432E+03</pdfrwt>
<totfact> 0.68705471E+03</totfact>
</mgrwt>
</event>
<event>
 7    1  0.5928109E-006  0.1483797E+03  0.7546771E-02  0.1211033E+00
          3   -1    0    0  501    0  0.00000000000E+00  0.00000000000E+00  0.56972974069E+02  0.56972974069E+02  0.00000000000E+00 0. -1.
         -3   -1    0    0    0  501 -0.00000000000E+00 -0.00000000000E+00 -0.32538853485E+03  0.32538853485E+03  0.00000000000E+00 0.  1.
         23    2    1    2    0    0 -0.79934714837E+02  0.14553540859E+01 -0.15738494895E+03  0.21630200371E+03  0.12499943185E+03 0.  0.
          5    1    3    3  502    0 -0.23603245102E+02 -0.53184761370E+02 -0.10993801094E+03  0.12447565332E+03  0.47000000000E+01 0.  1.
         -5    1    3    3    0  502 -0.56331469735E+02  0.54640115456E+02 -0.47446938013E+02  0.91826350392E+02  0.47000000000E+01 0.  1.
        -11    1    1    2    0    0  0.13579345868E+02 -0.27168104445E+02 -0.85035908521E+02  0.90297343656E+02  0.00000000000E+00 0.  1.
         11    1    1    2    0    0  0.66355368969E+02  0.25712750359E+02 -0.25994703307E+02  0.75762161545E+02  0.00000000000E+00 0. -1.
<mgrwt>
<rscale>  0 0.14172039E+03</rscale>
<asrwt>0</asrwt>
<pdfrwt beam="1">  1        3 0.87650729E-02 0.14837970E+03</pdfrwt>
<pdfrwt beam="2">  1       -3 0.50059775E-01 0.14837970E+03</pdfrwt>
<totfact> 0.85644269E+02</totfact>
</mgrwt>
</event>
<event>
 7    1  0.5928109E-006  0.1329216E+03  0.7546771E-02  0.1235928E+00
          2   -1    0    0  501    0  0.00000000000E+00  0.00000000000E+00  0.75235969410E+02  0.75235969410E+02  0.00000000000E+00 0.  1.
         -2   -1    0    0    0  501 -0.00000000000E+00 -0.00000000000E+00 -0.23137163513E+03  0.23137163513E+03  0.00000000000E+00 0. -1.
         23    2    1    2    0    0 -0.18140560842E+02 -0.41393475210E+02 -0.17003825815E+02  0.13400479759E+03  0.12500262376E+03 0.  0.
          5    1    3    3  502    0 -0.23618723655E+01 -0.74172805090E+02  0.24803248014E+02  0.78386698923E+02  0.47000000000E+01 0. -1.
         -5    1    3    3    0  502 -0.15778688477E+02  0.32779329880E+02 -0.41807073828E+02  0.55618098669E+02  0.47000000000E+01 0. -1.
        -11    1    1    2    0    0  0.38789001042E+02  0.60183493543E+02 -0.80966018716E+02  0.10808392889E+03  0.00000000000E+00 0.  1.
         11    1    1    2    0    0 -0.20648440200E+02 -0.18790018333E+02 -0.58165821190E+02  0.64518878061E+02  0.00000000000E+00 0. -1.
<mgrwt>
<rscale>  0 0.12445243E+03</rscale>
<asrwt>0</asrwt>
<pdfrwt beam="1">  1        2 0.11574764E-01 0.13292161E+03</pdfrwt>
<pdfrwt beam="2">  1       -2 0.35595636E-01 0.13292161E+03</pdfrwt>
<totfact> 0.37971082E+03</totfact>
</mgrwt>
</event>
<event>
 7    1  0.5928109E-006  0.2405258E+03  0.7546771E-02  0.1122057E+00
          2   -1    0    0  501    0  0.00000000000E+00  0.00000000000E+00  0.13361541928E+04  0.13361541928E+04  0.00000000000E+00 0.  1.
         -2   -1    0    0    0  501 -0.00000000000E+00 -0.00000000000E+00 -0.46584616819E+02  0.46584616819E+02  0.00000000000E+00 0. -1.
         23    2    1    2    0    0 -0.37513921578E+01 -0.20546913878E+03  0.91071528063E+03  0.94194214316E+03  0.12498415400E+03 0.  0.
          5    1    3    3  502    0 -0.33154758413E+02 -0.12259977877E+02  0.26187195910E+03  0.26428877771E+03  0.47000000000E+01 0.  1.
         -5    1    3    3    0  502  0.29403366255E+02 -0.19320916091E+03  0.64884332154E+03  0.67765336545E+03  0.47000000000E+01 0.  1.
        -11    1    1    2    0    0 -0.43377563936E+02  0.11871819719E+03  0.22196215545E+03  0.25542674458E+03  0.00000000000E+00 0.  1.
         11    1    1    2    0    0  0.47128956094E+02  0.86750941595E+02  0.15689213985E+03  0.18536992182E+03  0.00000000000E+00 0. -1.
<mgrwt>
<rscale>  0 0.23663196E+03</rscale>
<asrwt>0</asrwt>
<pdfrwt beam="1">  1        2 0.20556215E+00 0.24052584E+03</pdfrwt>
<pdfrwt beam="2">  1       -2 0.71668651E-02 0.24052584E+03</pdfrwt>
<totfact> 0.18831932E+03</totfact>
</mgrwt>
</event>
<event>
 7    1  0.5928109E-006  0.1408533E+03  0.7546771E-02  0.1223024E+00
         -2   -1    0    0    0  501 -0.00000000000E+00  0.00000000000E+00  0.15458348156E+02  0.15458348156E+02  0.00000000000E+00 0.  1.
          2   -1    0    0  501    0  0.00000000000E+00 -0.00000000000E+00 -0.12628257626E+04  0.12628257626E+04  0.00000000000E+00 0. -1.
         23    2    1    2    0    0 -0.60930570875E+02 -0.22410253170E+02 -0.95205776695E+03  0.96242071773E+03  0.12499956959E+03 0.  0.
          5    1    3    3  502    0  0.33432155183E+02  0.89302944684E+01 -0.39486128434E+03  0.39640255175E+03  0.47000000000E+01 0. -1.
         -5    1    3    3    0  502 -0.94362726058E+02 -0.31340547638E+02 -0.55719648260E+03  0.56601816598E+03  0.47000000000E+01 0. -1.
        -11    1    1    2    0    0  0.13859114203E+02  0.26522892772E+02 -0.18789590144E+02  0.35335358853E+02  0.00000000000E+00 0.  1.
         11    1    1    2    0    0  0.47071456672E+02 -0.41126396025E+01 -0.27652005732E+03  0.28052803414E+03  0.00000000000E+00 0. -1.
<mgrwt>
<rscale>  0 0.13303231E+03</rscale>
<asrwt>0</asrwt>
<pdfrwt beam="2">  1        2 0.19428088E+00 0.14085328E+03</pdfrwt>
<pdfrwt beam="1">  1       -2 0.23782075E-02 0.14085328E+03</pdfrwt>
<totfact> 0.10696709E+04</totfact>
</mgrwt>
</event>
<event>
 7    1  0.5928109E-006  0.1746752E+03  0.7546771E-02  0.1179573E+00
          2   -1    0    0  501    0  0.00000000000E+00  0.00000000000E+00  0.19838366204E+04  0.19838366204E+04  0.00000000000E+00 0. -1.
         -2   -1    0    0    0  501 -0.00000000000E+00 -0.00000000000E+00 -0.22879958344E+02  0.22879958344E+02  0.00000000000E+00 0.  1.
         23    2    1    2    0    0 -0.11837908104E+03 -0.29336140913E+02  0.16692518044E+04  0.16783661714E+04  0.12504880267E+03 0.  0.
          5    1    3    3  502    0 -0.21909936151E+02  0.37110074912E+02  0.21086275400E+03  0.21527283616E+03  0.47000000000E+01 0. -1.
         -5    1    3    3    0  502 -0.96469144884E+02 -0.66446215825E+02  0.14583890503E+04  0.14630933353E+04  0.47000000000E+01 0. -1.
        -11    1    1    2    0    0  0.84834457295E+02  0.50441992994E+02  0.25831320227E+03  0.27652665381E+03  0.00000000000E+00 0.  1.
         11    1    1    2    0    0  0.33544623741E+02 -0.21105852081E+02  0.33391655398E+02  0.51823753474E+02  0.00000000000E+00 0. -1.
<mgrwt>
<rscale>  0 0.16835649E+03</rscale>
<asrwt>0</asrwt>
<pdfrwt beam="1">  1        2 0.30520550E+00 0.17467518E+03</pdfrwt>
<pdfrwt beam="2">  1       -2 0.35199952E-02 0.17467518E+03</pdfrwt>
<totfact> 0.25337236E+03</totfact>
</mgrwt>
</event>
<event>
 6    1  0.5928109E-006  0.2143693E+03  0.7546771E-02  0.1150300E+00
          2   -1    0    0  501    0  0.00000000000E+00  0.00000000000E+00  0.98930916446E+03  0.98930916446E+03  0.00000000000E+00 0. -1.
         -2   -1    0    0    0  501 -0.00000000000E+00 -0.00000000000E+00 -0.36601841452E+02  0.36601841452E+02  0.00000000000E+00 0.  1.
          5    1    1    2  502    0 -0.86815841909E+02 -0.10935349789E+03  0.56653729236E+03  0.58350815893E+03  0.47000000000E+01 0. -1.
         -5    1    1    2    0  502 -0.32602638902E+02  0.40885280633E+02  0.65812693434E+02  0.84189897570E+02  0.47000000000E+01 0.  1.
        -11    1    1    2    0    0  0.72569388592E+02  0.77346888594E+02  0.26327271711E+03  0.28383336822E+03  0.00000000000E+00 0.  1.
         11    1    1    2    0    0  0.46849092219E+02 -0.88786713418E+01  0.57084620100E+02  0.74379581194E+02  0.00000000000E+00 0. -1.
<mgrwt>
<rscale>  0 0.19933683E+03</rscale>
<asrwt>0</asrwt>
<pdfrwt beam="1">  1        2 0.15220139E+00 0.21436928E+03</pdfrwt>
<pdfrwt beam="2">  1       -2 0.56310533E-02 0.21436928E+03</pdfrwt>
<totfact> 0.43163106E+03</totfact>
</mgrwt>
</event>
<event>
 7    1  0.5928109E-006  0.1515178E+03  0.7546771E-02  0.1206886E+00
          2   -1    0    0  501    0  0.00000000000E+00  0.00000000000E+00  0.51131120888E+04  0.51131120888E+04  0.00000000000E+00 0.  1.
         -2   -1    0    0    0  501 -0.00000000000E+00 -0.00000000000E+00 -0.67951664633E+01  0.67951664633E+01  0.00000000000E+00 0. -1.
         23    2    1    2    0    0 -0.78821864399E+02 -0.33464637851E+02  0.43798756791E+04  0.43824957045E+04  0.12499947182E+03 0.  0.
          5    1    3    3  502    0 -0.68116463445E+02 -0.14103485893E+02  0.95356677065E+03  0.95611214666E+03  0.47000000000E+01 0.  1.
         -5    1    3    3    0  502 -0.10705400954E+02 -0.19361151958E+02  0.34263089084E+04  0.34263835579E+04  0.47000000000E+01 0.  1.
        -11    1    1    2    0    0 -0.89734146282E+01 -0.21047784665E+02  0.10821269482E+03  0.11060523826E+03  0.00000000000E+00 0.  1.
         11    1    1    2    0    0  0.87795279027E+02  0.54512422516E+02  0.61822854842E+03  0.62680631244E+03  0.00000000000E+00 0. -1.
<mgrwt>
<rscale>  0 0.14489794E+03</rscale>
<asrwt>0</asrwt>
<pdfrwt beam="1">  1        2 0.78662955E+00 0.15151778E+03</pdfrwt>
<pdfrwt beam="2">  1       -2 0.10454143E-02 0.15151778E+03</pdfrwt>
<totfact> 0.79459800E+01</totfact>
</mgrwt>
</event>
<event>
 7    1  0.5928109E-006  0.1285994E+03  0.7546771E-02  0.1244917E+00
         -2   -1    0    0    0  501 -0.00000000000E+00  0.00000000000E+00  0.85517977387E+02  0.85517977387E+02  0.00000000000E+00 0.  1.
          2   -1    0    0  501    0  0.00000000000E+00 -0.00000000000E+00 -0.17554708971E+03  0.17554708971E+03  0.00000000000E+00 0. -1.
         23    2    1    2    0    0 -0.25889368817E+02 -0.15542404955E+02 -0.10484147848E+03  0.16592031702E+03  0.12500396082E+03 0.  0.
          5    1    3    3  502    0 -0.59796005674E+02  0.10013761654E+02 -0.10708089176E+03  0.12314318941E+03  0.47000000000E+01 0. -1.
         -5    1    3    3    0  502  0.33906636857E+02 -0.25556166609E+02  0.22394132861E+01  0.42777127610E+02  0.47000000000E+01 0. -1.
        -11    1    1    2    0    0  0.84709054331E+01 -0.13521435235E+02  0.46248922227E+02  0.48923902715E+02  0.00000000000E+00 0.  1.
         11    1    1    2    0    0  0.17418463384E+02  0.29063840191E+02 -0.31436556079E+02  0.46220847368E+02  0.00000000000E+00 0. -1.
<mgrwt>
<rscale>  0 0.11890320E+03</rscale>
<asrwt>0</asrwt>
<pdfrwt beam="2">  1        2 0.27007244E-01 0.12859944E+03</pdfrwt>
<pdfrwt beam="1">  1       -2 0.13156612E-01 0.12859944E+03</pdfrwt>
<totfact> 0.79066482E+03</totfact>
</mgrwt>
</event>
<event>
 7    1  0.5928109E-006  0.1937029E+03  0.7546771E-02  0.1157664E+00
          1   -1    0    0  501    0  0.00000000000E+00  0.00000000000E+00  0.58254970503E+03  0.58254970503E+03  0.00000000000E+00 0. -1.
         -1   -1    0    0    0  501 -0.00000000000E+00 -0.00000000000E+00 -0.61229236972E+02  0.61229236972E+02  0.00000000000E+00 0.  1.
         23    2    1    2    0    0  0.29213663442E+02 -0.15566781012E+03  0.29533435452E+03  0.35319005296E+03  0.11151200521E+03 0.  0.
          5    1    3    3  502    0  0.26306994385E+02 -0.18833398020E+02  0.62169938707E+01  0.33279060193E+02  0.47000000000E+01 0. -1.
         -5    1    3    3    0  502  0.29066690569E+01 -0.13683441210E+03  0.28911736065E+03  0.31991099276E+03  0.47000000000E+01 0.  1.
        -11    1    1    2    0    0 -0.13783509159E+02  0.15708360162E+02  0.98338469513E+02  0.10053453282E+03  0.00000000000E+00 0.  1.
         11    1    1    2    0    0 -0.15430154282E+02  0.13995944996E+03  0.12764764402E+03  0.19005435622E+03  0.00000000000E+00 0. -1.
<mgrwt>
<rscale>  0 0.19088651E+03</rscale>
<asrwt>0</asrwt>
<pdfrwt beam="1">  1        1 0.89623028E-01 0.19370295E+03</pdfrwt>
<pdfrwt beam="2">  1       -1 0.94198830E-02 0.19370295E+03</pdfrwt>
<totfact> 0.24275175E+03</totfact>
</mgrwt>
</event>
<event>
 7    1  0.5928109E-006  0.1626677E+03  0.7546771E-02  0.1193065E+00
          2   -1    0    0  501    0  0.00000000000E+00  0.00000000000E+00  0.50232925424E+03  0.50232925424E+03  0.00000000000E+00 0. -1.
         -2   -1    0    0    0  501 -0.00000000000E+00 -0.00000000000E+00 -0.48124398119E+02  0.48124398119E+02  0.00000000000E+00 0.  1.
         23    2    1    2    0    0  0.91708720892E+02 -0.49261285901E+02  0.31344958363E+03  0.35314503182E+03  0.12499443283E+03 0.  0.
          5    1    3    3  502    0 -0.17893391806E+02 -0.27741327036E+02  0.15913614763E+03  0.16259199912E+03  0.47000000000E+01 0.  1.
         -5    1    3    3    0  502  0.10960211270E+03 -0.21519958864E+02  0.15431343601E+03  0.19055303270E+03  0.47000000000E+01 0.  1.
        -11    1    1    2    0    0 -0.54928270061E+02  0.19669697855E+02  0.11184453777E+02  0.59406261218E+02  0.00000000000E+00 0.  1.
         11    1    1    2    0    0 -0.36780450831E+02  0.29591588045E+02  0.12957081871E+03  0.13790235933E+03  0.00000000000E+00 0. -1.
<mgrwt>
<rscale>  0 0.15619175E+03</rscale>
<asrwt>0</asrwt>
<pdfrwt beam="1">  1        2 0.77281420E-01 0.16266767E+03</pdfrwt>
<pdfrwt beam="2">  1       -2 0.74037539E-02 0.16266767E+03</pdfrwt>
<totfact> 0.64116453E+03</totfact>
</mgrwt>
</event>
<event>
 6    1  0.5928109E-006  0.3170420E+03  0.7546771E-02  0.1113921E+00
          2   -1    0    0  501    0  0.00000000000E+00  0.00000000000E+00  0.47149192874E+03  0.47149192874E+03  0.00000000000E+00 0. -1.
         -2   -1    0    0    0  501 -0.00000000000E+00 -0.00000000000E+00 -0.10285823289E+03  0.10285823289E+03  0.00000000000E+00 0.  1.
          5    1    1    2  502    0 -0.11875691056E+02  0.13252243824E+03  0.33131906548E+03  0.35706811931E+03  0.47000000000E+01 0. -1.
         -5    1    1    2    0  502 -0.70991143935E+01 -0.65535899672E+02 -0.36819057398E+02  0.75651071101E+02  0.47000000000E+01 0.  1.
        -11    1    1    2    0    0 -0.17561442202E+02  0.16707233803E+02  0.34300016221E+02  0.42000321741E+02  0.00000000000E+00 0. -1.
         11    1    1    2    0    0  0.36536247651E+02 -0.83693772370E+02  0.39833671552E+02  0.99630649477E+02  0.00000000000E+00 0.  1.
<mgrwt>
<rscale>  0 0.24902672E+03</rscale>
<asrwt>0</asrwt>
<pdfrwt beam="1">  1        2 0.72537219E-01 0.31704202E+03</pdfrwt>
<pdfrwt beam="2">  1       -2 0.15824344E-01 0.31704202E+03</pdfrwt>
<totfact> 0.20839612E+03</totfact>
</mgrwt>
</event>
<event>
 7    1  0.5928109E-006  0.1282738E+03  0.7546771E-02  0.1242059E+00
          3   -1    0    0  501    0  0.00000000000E+00  0.00000000000E+00  0.23400822787E+03  0.23400822787E+03  0.00000000000E+00 0. -1.
         -3   -1    0    0    0  501 -0.00000000000E+00 -0.00000000000E+00 -0.56256795307E+02  0.56256795307E+02  0.00000000000E+00 0.  1.
         23    2    1    2    0    0 -0.15045558446E+02 -0.24543185388E+02  0.11218624004E+03  0.17041099899E+03  0.12500167736E+03 0.  0.
          5    1    3    3  502    0 -0.52124091914E+02  0.29562700204E+02  0.70077354152E+02  0.92324426704E+02  0.47000000000E+01 0.  1.
         -5    1    3    3    0  502  0.37078533467E+02 -0.54105885592E+02  0.42108885889E+02  0.78086572281E+02  0.47000000000E+01 0.  1.
        -11    1    1    2    0    0  0.21078183909E+02  0.45197770672E+02 -0.10167304835E+01  0.49881480045E+02  0.00000000000E+00 0.  1.
         11    1    1    2    0    0 -0.60326254627E+01 -0.20654585284E+02  0.66581923001E+02  0.69972544143E+02  0.00000000000E+00 0. -1.
<mgrwt>
<rscale>  0 0.12063172E+03</rscale>
<asrwt>0</asrwt>
<pdfrwt beam="1">  1        3 0.36001265E-01 0.12827375E+03</pdfrwt>
<pdfrwt beam="2">  1       -3 0.86548917E-02 0.12827375E+03</pdfrwt>
<totfact> 0.16225202E+03</totfact>
</mgrwt>
</event>
<event>
 7    1  0.5928109E-006  0.1331827E+03  0.7546771E-02  0.1236964E+00
          2   -1    0    0  501    0  0.00000000000E+00  0.00000000000E+00  0.26083740022E+03  0.26083740022E+03  0.00000000000E+00 0. -1.
         -2   -1    0    0    0  501 -0.00000000000E+00 -0.00000000000E+00 -0.52551371069E+02  0.52551371069E+02  0.00000000000E+00 0.  1.
         23    2    1    2    0    0  0.44471514702E+02  0.11652827370E+02  0.13689227034E+03  0.19098982160E+03  0.12499645703E+03 0.  0.
          5    1    3    3  502    0  0.49033569849E+02 -0.10749982531E+02  0.15400508960E+03  0.16204786552E+03  0.47000000000E+01 0.  1.
         -5    1    3    3    0  502 -0.45620551469E+01  0.22402809902E+02 -0.17112819259E+02  0.28941956078E+02  0.47000000000E+01 0.  1.
        -11    1    1    2    0    0 -0.20454686310E+02 -0.49175718038E+02  0.27848042476E+02  0.60101238809E+02  0.00000000000E+00 0.  1.
         11    1    1    2    0    0 -0.24016828392E+02  0.37522890668E+02  0.43545716330E+02  0.62297710879E+02  0.00000000000E+00 0. -1.
<mgrwt>
<rscale>  0 0.12379546E+03</rscale>
<asrwt>0</asrwt>
<pdfrwt beam="1">  1        2 0.40128830E-01 0.13318265E+03</pdfrwt>
<pdfrwt beam="2">  1       -2 0.80848264E-02 0.13318265E+03</pdfrwt>
<totfact> 0.11150755E+04</totfact>
</mgrwt>
</event>
<event>
 6    1  0.5928109E-006  0.1431908E+03  0.7546771E-02  0.1222418E+00
          2   -1    0    0  501    0  0.00000000000E+00  0.00000000000E+00  0.67784444459E+03  0.67784444459E+03  0.00000000000E+00 0. -1.
         -2   -1    0    0    0  501 -0.00000000000E+00 -0.00000000000E+00 -0.34951013835E+03  0.34951013835E+03  0.00000000000E+00 0.  1.
          5    1    1    2  502    0 -0.10531936356E+02 -0.31576861076E+02  0.58875374859E+03  0.58971271507E+03  0.47000000000E+01 0. -1.
         -5    1    1    2    0  502 -0.46604935985E+02  0.10262642091E+02  0.72895608548E+02  0.87253662538E+02  0.47000000000E+01 0.  1.
        -11    1    1    2    0    0  0.24370506079E+02  0.53609400130E+02 -0.22762053595E+03  0.23511486073E+03  0.00000000000E+00 0.  1.
         11    1    1    2    0    0  0.32766366262E+02 -0.32295181144E+02 -0.10569451495E+03  0.11527334460E+03  0.00000000000E+00 0. -1.
<mgrwt>
<rscale>  0 0.13345474E+03</rscale>
<asrwt>0</asrwt>
<pdfrwt beam="1">  1        2 0.10428376E+00 0.14319080E+03</pdfrwt>
<pdfrwt beam="2">  1       -2 0.53770791E-01 0.14319080E+03</pdfrwt>
<totfact> 0.14950284E+02</totfact>
</mgrwt>
</event>
<event>
 6    1  0.5928109E-006  0.1398073E+03  0.7546771E-02  0.1228411E+00
          1   -1    0    0  501    0  0.00000000000E+00  0.00000000000E+00  0.16656708594E+04  0.16656708594E+04  0.00000000000E+00 0. -1.
         -1   -1    0    0    0  501 -0.00000000000E+00 -0.00000000000E+00 -0.14551681038E+02  0.14551681038E+02  0.00000000000E+00 0.  1.
          5    1    1    2  502    0 -0.40541959587E+02  0.81827522912E+02  0.92260345876E+03  0.92712384616E+03  0.47000000000E+01 0. -1.
         -5    1    1    2    0  502  0.29988069222E+02 -0.37633994755E+02  0.50390458567E+03  0.50621884923E+03  0.47000000000E+01 0.  1.
        -11    1    1    2    0    0 -0.15918061094E+02  0.16482915295E+02  0.12627388867E+03  0.12833614505E+03  0.00000000000E+00 0. -1.
         11    1    1    2    0    0  0.26471951459E+02 -0.60676443452E+02  0.98337245225E+02  0.11854369997E+03  0.00000000000E+00 0.  1.
<mgrwt>
<rscale>  0 0.12935805E+03</rscale>
<asrwt>0</asrwt>
<pdfrwt beam="1">  1        1 0.25625690E+00 0.13980730E+03</pdfrwt>
<pdfrwt beam="2">  1       -1 0.22387215E-02 0.13980730E+03</pdfrwt>
<totfact> 0.32110862E+03</totfact>
</mgrwt>
</event>
<event>
 7    1  0.5928109E-006  0.1367079E+03  0.7546771E-02  0.1229970E+00
         -4   -1    0    0    0  501 -0.00000000000E+00  0.00000000000E+00  0.31955057364E+03  0.31955057364E+03  0.00000000000E+00 0.  1.
          4   -1    0    0  501    0  0.00000000000E+00 -0.00000000000E+00 -0.46466344850E+02  0.46466344850E+02  0.00000000000E+00 0. -1.
         23    2    1    2    0    0 -0.38440123468E+02 -0.39828817759E+02  0.13819853567E+03  0.19439108461E+03  0.12500032279E+03 0.  0.
          5    1    3    3  502    0 -0.80166774566E+02 -0.67800739066E+01  0.63779936122E+02  0.10277476051E+03  0.47000000000E+01 0. -1.
         -5    1    3    3    0  502  0.41726651098E+02 -0.33048743852E+02  0.74418599546E+02  0.91616324094E+02  0.47000000000E+01 0. -1.
        -11    1    1    2    0    0 -0.22270156362E+02  0.16148350141E+01  0.74765091624E+02  0.78028113408E+02  0.00000000000E+00 0.  1.
         11    1    1    2    0    0  0.60710279830E+02  0.38213982745E+02  0.60120601503E+02  0.93597720481E+02  0.00000000000E+00 0. -1.
<mgrwt>
<rscale>  0 0.12831982E+03</rscale>
<asrwt>0</asrwt>
<pdfrwt beam="2">  1        4 0.71486686E-02 0.13670793E+03</pdfrwt>
<pdfrwt beam="1">  1       -4 0.49161625E-01 0.13670793E+03</pdfrwt>
<totfact> 0.88504656E+02</totfact>
</mgrwt>
</event>
<event>
 7    1  0.5928109E-006  0.1375220E+03  0.7546771E-02  0.1228029E+00
          2   -1    0    0  501    0  0.00000000000E+00  0.00000000000E+00  0.58201222317E+03  0.58201222317E+03  0.00000000000E+00 0. -1.
         -2   -1    0    0    0  501 -0.00000000000E+00 -0.00000000000E+00 -0.31514374990E+02  0.31514374990E+02  0.00000000000E+00 0.  1.
         23    2    1    2    0    0  0.31606385557E+02 -0.47836481222E+02  0.42957653409E+03  0.45105242943E+03  0.12500001164E+03 0.  0.
          5    1    3    3  502    0  0.12612327680E+02 -0.62981091242E+02  0.90512958242E+02  0.11108723722E+03  0.47000000000E+01 0. -1.
         -5    1    3    3    0  502  0.18994057877E+02  0.15144610020E+02  0.33906357585E+03  0.33996519221E+03  0.47000000000E+01 0. -1.
        -11    1    1    2    0    0 -0.44793322132E+01  0.14403868904E+02 -0.14165190808E+02  0.20692715798E+02  0.00000000000E+00 0.  1.
         11    1    1    2    0    0 -0.27127053344E+02  0.33432612318E+02  0.13508650489E+03  0.14178145292E+03  0.00000000000E+00 0. -1.
<mgrwt>
<rscale>  0 0.12961442E+03</rscale>
<asrwt>0</asrwt>
<pdfrwt beam="1">  1        2 0.89540334E-01 0.13752198E+03</pdfrwt>
<pdfrwt beam="2">  1       -2 0.48483658E-02 0.13752198E+03</pdfrwt>
<totfact> 0.10247814E+04</totfact>
</mgrwt>
</event>
<event>
 7    1  0.5928109E-006  0.1460166E+03  0.7546771E-02  0.1214916E+00
         -1   -1    0    0    0  501 -0.00000000000E+00  0.00000000000E+00  0.28260411665E+02  0.28260411665E+02  0.00000000000E+00 0.  1.
          1   -1    0    0  501    0  0.00000000000E+00 -0.00000000000E+00 -0.89918256883E+03  0.89918256883E+03  0.00000000000E+00 0. -1.
         23    2    1    2    0    0  0.74031373647E+02 -0.14634514381E+02 -0.72201483070E+03  0.73663170543E+03  0.12500416147E+03 0.  0.
          5    1    3    3  502    0  0.42175038588E+02  0.42851740468E+02 -0.16394655200E+03  0.17468705577E+03  0.47000000000E+01 0. -1.
         -5    1    3    3    0  502  0.31856335059E+02 -0.57486254850E+02 -0.55806827871E+03  0.56194464966E+03  0.47000000000E+01 0. -1.
        -11    1    1    2    0    0  0.19535255323E+02  0.15932292392E+02 -0.24626953147E+02  0.35241324644E+02  0.00000000000E+00 0. -1.
         11    1    1    2    0    0 -0.93566628970E+02 -0.12977780108E+01 -0.12428037332E+03  0.15556995043E+03  0.00000000000E+00 0.  1.
<mgrwt>
<rscale>  0 0.13882686E+03</rscale>
<asrwt>0</asrwt>
<pdfrwt beam="2">  1        1 0.13833577E+00 0.14601662E+03</pdfrwt>
<pdfrwt beam="1">  1       -1 0.43477558E-02 0.14601662E+03</pdfrwt>
<totfact> 0.40695621E+03</totfact>
</mgrwt>
</event>
<event>
 7    1  0.5928109E-006  0.1659602E+03  0.7546771E-02  0.1189577E+00
          1   -1    0    0  501    0  0.00000000000E+00  0.00000000000E+00  0.27601905919E+03  0.27601905919E+03  0.00000000000E+00 0.  1.
         -1   -1    0    0    0  501 -0.00000000000E+00 -0.00000000000E+00 -0.85664054387E+02  0.85664054387E+02  0.00000000000E+00 0. -1.
         23    2    1    2    0    0 -0.51908715965E+02 -0.96037672196E+02  0.88700191507E+02  0.18817680526E+03  0.12500014716E+03 0.  0.
          5    1    3    3  502    0 -0.67049699062E+02 -0.74757100265E+02  0.11366440186E+03  0.15174311330E+03  0.47000000000E+01 0.  1.
         -5    1    3    3    0  502  0.15140983097E+02 -0.21280571931E+02 -0.24964210355E+02  0.36433691956E+02  0.47000000000E+01 0.  1.
        -11    1    1    2    0    0  0.49038646024E+02  0.18628600058E+02  0.75124064213E+02  0.91626625868E+02  0.00000000000E+00 0.  1.
         11    1    1    2    0    0  0.28700699412E+01  0.77409072138E+02  0.26530749079E+02  0.81879682446E+02  0.00000000000E+00 0. -1.
<mgrwt>
<rscale>  0 0.15922300E+03</rscale>
<asrwt>0</asrwt>
<pdfrwt beam="1">  1        1 0.42464470E-01 0.16596019E+03</pdfrwt>
<pdfrwt beam="2">  1       -1 0.13179085E-01 0.16596019E+03</pdfrwt>
<totfact> 0.37468244E+03</totfact>
</mgrwt>
</event>
<event>
 7    1  0.5928109E-006  0.1376374E+03  0.7546771E-02  0.1226893E+00
         -1   -1    0    0    0  501 -0.00000000000E+00  0.00000000000E+00  0.30938217522E+02  0.30938217522E+02  0.00000000000E+00 0.  1.
          1   -1    0    0  501    0  0.00000000000E+00 -0.00000000000E+00 -0.74112781186E+03  0.74112781186E+03  0.00000000000E+00 0. -1.
         23    2    1    2    0    0 -0.20927090817E+02  0.53660577681E+02 -0.60074337411E+03  0.61630889726E+03  0.12500661813E+03 0.  0.
          5    1    3    3  502    0 -0.60368206711E+00  0.92713418868E+02 -0.38070210490E+03  0.39185753169E+03  0.47000000000E+01 0.  1.
         -5    1    3    3    0  502 -0.20323408750E+02 -0.39052841187E+02 -0.22004126921E+03  0.22445136557E+03  0.47000000000E+01 0.  1.
        -11    1    1    2    0    0  0.16287643637E+02  0.24208947645E+02 -0.49168123685E+02  0.57173987687E+02  0.00000000000E+00 0. -1.
         11    1    1    2    0    0  0.46394471797E+01 -0.77869525326E+02 -0.60278096547E+02  0.98583144441E+02  0.00000000000E+00 0.  1.
<mgrwt>
<rscale>  0 0.13037975E+03</rscale>
<asrwt>0</asrwt>
<pdfrwt beam="2">  1        1 0.11401966E+00 0.13763741E+03</pdfrwt>
<pdfrwt beam="1">  1       -1 0.47597259E-02 0.13763741E+03</pdfrwt>
<totfact> 0.47696147E+03</totfact>
</mgrwt>
</event>
<event>
 7    1  0.5928109E-006  0.1388132E+03  0.7546771E-02  0.1226627E+00
         -2   -1    0    0    0  501 -0.00000000000E+00  0.00000000000E+00  0.42808728411E+03  0.42808728411E+03  0.00000000000E+00 0.  1.
          2   -1    0    0  501    0  0.00000000000E+00 -0.00000000000E+00 -0.37404643715E+02  0.37404643715E+02  0.00000000000E+00 0. -1.
         23    2    1    2    0    0 -0.60352225552E+02 -0.17073923017E+01  0.16961426687E+03  0.21917594918E+03  0.12499516333E+03 0.  0.
          5    1    3    3  502    0 -0.25179448580E+02  0.27915121198E+02 -0.53017797168E+01  0.38255162925E+02  0.47000000000E+01 0. -1.
         -5    1    3    3    0  502 -0.35172776973E+02 -0.29622513500E+02  0.17491604659E+03  0.18092078625E+03  0.47000000000E+01 0. -1.
        -11    1    1    2    0    0  0.43632079874E+02 -0.18665733999E+01  0.22464280558E+03  0.22884849265E+03  0.00000000000E+00 0.  1.
         11    1    1    2    0    0  0.16720145678E+02  0.35739657016E+01 -0.35744320547E+01  0.17467485991E+02  0.00000000000E+00 0. -1.
<mgrwt>
<rscale>  0 0.13055990E+03</rscale>
<asrwt>0</asrwt>
<pdfrwt beam="2">  1        2 0.57545609E-02 0.13881317E+03</pdfrwt>
<pdfrwt beam="1">  1       -2 0.65859579E-01 0.13881317E+03</pdfrwt>
<totfact> 0.27209551E+03</totfact>
</mgrwt>
</event>
<event>
 7    1  0.5928109E-006  0.1250687E+03  0.7546771E-02  0.1250294E+00
          1   -1    0    0  501    0  0.00000000000E+00  0.00000000000E+00  0.87160726308E+02  0.87160726308E+02  0.00000000000E+00 0. -1.
         -1   -1    0    0    0  501 -0.00000000000E+00 -0.00000000000E+00 -0.14094902002E+03  0.14094902002E+03  0.00000000000E+00 0.  1.
         23    2    1    2    0    0  0.37072604250E+01 -0.70491026249E+00 -0.73156399538E+01  0.12528251781E+03  0.12501179945E+03 0.  0.
          5    1    3    3  502    0 -0.50633923199E+02  0.14961203115E+02  0.26458487263E+02  0.59243339924E+02  0.47000000000E+01 0. -1.
         -5    1    3    3    0  502  0.54341183624E+02 -0.15666113378E+02 -0.33774127217E+02  0.66039177881E+02  0.47000000000E+01 0. -1.
        -11    1    1    2    0    0 -0.45166754536E+02 -0.14694083678E+02 -0.23675330939E+02  0.53070454168E+02  0.00000000000E+00 0. -1.
         11    1    1    2    0    0  0.41459494111E+02  0.15398993941E+02 -0.22797322816E+02  0.49756774352E+02  0.00000000000E+00 0.  1.
<mgrwt>
<rscale>  0 0.11574045E+03</rscale>
<asrwt>0</asrwt>
<pdfrwt beam="1">  1        1 0.13409343E-01 0.12506874E+03</pdfrwt>
<pdfrwt beam="2">  1       -1 0.21684464E-01 0.12506874E+03</pdfrwt>
<totfact> 0.71793244E+03</totfact>
</mgrwt>
</event>
<event>
 6    1  0.5928109E-006  0.1635221E+03  0.7546771E-02  0.1211129E+00
          3   -1    0    0  501    0  0.00000000000E+00  0.00000000000E+00  0.59192905771E+02  0.59192905771E+02  0.00000000000E+00 0. -1.
         -3   -1    0    0    0  501 -0.00000000000E+00 -0.00000000000E+00 -0.27632294444E+03  0.27632294444E+03  0.00000000000E+00 0.  1.
          5    1    1    2  502    0 -0.68906459420E+02  0.26394753879E+02 -0.22935844605E+02  0.77413991952E+02  0.47000000000E+01 0. -1.
         -5    1    1    2    0  502  0.56573880541E+02 -0.42302988597E+02 -0.12219980414E+03  0.14122687044E+03  0.47000000000E+01 0.  1.
        -11    1    1    2    0    0  0.23112473039E+02 -0.33876416523E+02 -0.35087937447E+02  0.53971857118E+02  0.00000000000E+00 0.  1.
         11    1    1    2    0    0 -0.10779894160E+02  0.49784651241E+02 -0.36906452479E+02  0.62903130700E+02  0.00000000000E+00 0. -1.
<mgrwt>
<rscale>  0 0.14164780E+03</rscale>
<asrwt>0</asrwt>
<pdfrwt beam="1">  1        3 0.91066007E-02 0.16352208E+03</pdfrwt>
<pdfrwt beam="2">  1       -3 0.42511223E-01 0.16352208E+03</pdfrwt>
<totfact> 0.11272463E+03</totfact>
</mgrwt>
</event>
<event>
 7    1  0.5928109E-006  0.1271767E+03  0.7546771E-02  0.1248651E+00
          1   -1    0    0  501    0  0.00000000000E+00  0.00000000000E+00  0.35172363441E+03  0.35172363441E+03  0.00000000000E+00 0. -1.
         -1   -1    0    0    0  501 -0.00000000000E+00 -0.00000000000E+00 -0.39736397307E+02  0.39736397307E+02  0.00000000000E+00 0.  1.
         23    2    1    2    0    0 -0.19994866229E+02 -0.12248480817E+02  0.25458545758E+03  0.28458330189E+03  0.12499632213E+03 0.  0.
          5    1    3    3  502    0  0.15405423597E+02 -0.80920589283E+01 -0.78762876584E+01  0.19670648215E+02  0.47000000000E+01 0.  1.
         -5    1    3    3    0  502 -0.35400289826E+02 -0.41564218888E+01  0.26246174524E+03  0.26491265368E+03  0.47000000000E+01 0.  1.
        -11    1    1    2    0    0 -0.22135739354E+02 -0.10642972603E+02 -0.79554182545E+01  0.25817678094E+02  0.00000000000E+00 0.  1.
         11    1    1    2    0    0  0.42130605583E+02  0.22891453420E+02  0.65357197767E+02  0.81059051725E+02  0.00000000000E+00 0. -1.
<mgrwt>
<rscale>  0 0.11669475E+03</rscale>
<asrwt>0</asrwt>
<pdfrwt beam="1">  1        1 0.54111326E-01 0.12717665E+03</pdfrwt>
<pdfrwt beam="2">  1       -1 0.61132921E-02 0.12717665E+03</pdfrwt>
<totfact> 0.87804474E+03</totfact>
</mgrwt>
</event>
<event>
 7    1  0.5928109E-006  0.1695200E+03  0.7546771E-02  0.1184578E+00
         -2   -1    0    0    0  501 -0.00000000000E+00  0.00000000000E+00  0.21614469120E+02  0.21614469120E+02  0.00000000000E+00 0.  1.
          2   -1    0    0  501    0  0.00000000000E+00 -0.00000000000E+00 -0.11821271467E+04  0.11821271467E+04  0.00000000000E+00 0. -1.
         23    2    1    2    0    0  0.69163803590E+02 -0.91253484961E+02 -0.69859294714E+03  0.71886657257E+03  0.12500485241E+03 0.  0.
          5    1    3    3  502    0  0.85999040261E+02 -0.22140755982E+02 -0.26684713243E+03  0.28127483017E+03  0.47000000000E+01 0.  1.
         -5    1    3    3    0  502 -0.16835236671E+02 -0.69112728979E+02 -0.43174581471E+03  0.43759174240E+03  0.47000000000E+01 0.  1.
        -11    1    1    2    0    0 -0.46672088499E+02  0.48427415952E+02 -0.40331828630E+03  0.40888768449E+03  0.00000000000E+00 0. -1.
         11    1    1    2    0    0 -0.22491715091E+02  0.42826069010E+02 -0.58601444102E+02  0.75987358721E+02  0.00000000000E+00 0.  1.
<mgrwt>
<rscale>  0 0.16370358E+03</rscale>
<asrwt>0</asrwt>
<pdfrwt beam="2">  1        2 0.18186571E+00 0.16952004E+03</pdfrwt>
<pdfrwt beam="1">  1       -2 0.33253030E-02 0.16952004E+03</pdfrwt>
<totfact> 0.72974428E+03</totfact>
</mgrwt>
</event>
<event>
 7    1  0.5928109E-006  0.1326862E+03  0.7546771E-02  0.1249591E+00
         -2   -1    0    0    0  501 -0.00000000000E+00  0.00000000000E+00  0.26422049106E+03  0.26422049106E+03  0.00000000000E+00 0.  1.
          2   -1    0    0  501    0  0.00000000000E+00 -0.00000000000E+00 -0.43181209898E+02  0.43181209898E+02  0.00000000000E+00 0. -1.
         23    2    1    2    0    0 -0.38565055811E+02 -0.22251251118E+02  0.11349110775E+03  0.17460201715E+03  0.12499300440E+03 0.  0.
          5    1    3    3  502    0 -0.39265883204E+02 -0.52891066365E+02  0.12512619423E+03  0.14148473051E+03  0.47000000000E+01 0.  1.
         -5    1    3    3    0  502  0.70082739378E+00  0.30639815247E+02 -0.11635086478E+02  0.33117286645E+02  0.47000000000E+01 0.  1.
        -11    1    1    2    0    0  0.52495745363E+02  0.25637444137E+02  0.62625296723E+02  0.85644670661E+02  0.00000000000E+00 0. -1.
         11    1    1    2    0    0 -0.13930689552E+02 -0.33861930189E+01  0.44922876689E+02  0.47155013144E+02  0.00000000000E+00 0.  1.
<mgrwt>
<rscale>  0 0.11614762E+03</rscale>
<asrwt>0</asrwt>
<pdfrwt beam="2">  1        2 0.66432632E-02 0.13268622E+03</pdfrwt>
<pdfrwt beam="1">  1       -2 0.40649305E-01 0.13268622E+03</pdfrwt>
<totfact> 0.59011940E+03</totfact>
</mgrwt>
</event>
<event>
 7    1  0.5928109E-006  0.1520760E+03  0.7546771E-02  0.1206630E+00
         -1   -1    0    0    0  501 -0.00000000000E+00  0.00000000000E+00  0.66123565840E+02  0.66123565840E+02  0.00000000000E+00 0.  1.
          1   -1    0    0  501    0  0.00000000000E+00 -0.00000000000E+00 -0.33272590812E+03  0.33272590812E+03  0.00000000000E+00 0. -1.
         23    2    1    2    0    0 -0.73560341630E+02  0.45697985745E+02 -0.21342891397E+03  0.26206681889E+03  0.12501074548E+03 0.  0.
          5    1    3    3  502    0 -0.96698271509E+02  0.67868585969E+02 -0.18130697827E+03  0.21645094373E+03  0.47000000000E+01 0. -1.
         -5    1    3    3    0  502  0.23137929880E+02 -0.22170600224E+02 -0.32121935699E+02  0.45615875158E+02  0.47000000000E+01 0. -1.
        -11    1    1    2    0    0  0.75044125397E+02 -0.23089368129E+02  0.50597798168E+00  0.78517486530E+02  0.00000000000E+00 0.  1.
         11    1    1    2    0    0 -0.14837837675E+01 -0.22608617616E+02 -0.53679406290E+02  0.58265168535E+02  0.00000000000E+00 0. -1.
<mgrwt>
<rscale>  0 0.14509718E+03</rscale>
<asrwt>0</asrwt>
<pdfrwt beam="2">  1        1 0.51188601E-01 0.15207602E+03</pdfrwt>
<pdfrwt beam="1">  1       -1 0.10172856E-01 0.15207602E+03</pdfrwt>
<totfact> 0.44116317E+03</totfact>
</mgrwt>
</event>
<event>
 6    1  0.5928109E-006  0.1486845E+03  0.7546771E-02  0.1206394E+00
          2   -1    0    0  501    0  0.00000000000E+00  0.00000000000E+00  0.71120998746E+02  0.71120998746E+02  0.00000000000E+00 0. -1.
         -2   -1    0    0    0  501 -0.00000000000E+00 -0.00000000000E+00 -0.68565774855E+03  0.68565774855E+03  0.00000000000E+00 0.  1.
          5    1    1    2  502    0  0.86056163209E+02  0.15157626542E+02  0.12471271817E+02  0.88391399408E+02  0.47000000000E+01 0. -1.
         -5    1    1    2    0  502 -0.47637410888E+02  0.16358736988E+02 -0.36128344217E+02  0.62163320759E+02  0.47000000000E+01 0.  1.
        -11    1    1    2    0    0 -0.66193534987E+02 -0.64475353482E+02 -0.40833748877E+03  0.41866234607E+03  0.00000000000E+00 0.  1.
         11    1    1    2    0    0  0.27774782666E+02  0.32958989952E+02 -0.18254218864E+03  0.18756168106E+03  0.00000000000E+00 0. -1.
<mgrwt>
<rscale>  0 0.14528113E+03</rscale>
<asrwt>0</asrwt>
<pdfrwt beam="1">  1        2 0.10941692E-01 0.14868445E+03</pdfrwt>
<pdfrwt beam="2">  1       -2 0.10548581E+00 0.14868445E+03</pdfrwt>
<totfact> 0.42917916E+02</totfact>
</mgrwt>
</event>
<event>
 7    1  0.5928109E-006  0.1539393E+03  0.7546771E-02  0.1204802E+00
          1   -1    0    0  501    0  0.00000000000E+00  0.00000000000E+00  0.12587543442E+03  0.12587543442E+03  0.00000000000E+00 0. -1.
         -1   -1    0    0    0  501 -0.00000000000E+00 -0.00000000000E+00 -0.26952613842E+03  0.26952613842E+03  0.00000000000E+00 0.  1.
         23    2    1    2    0    0 -0.11749803834E+02 -0.89097197162E+02  0.51999773986E+02  0.16248472180E+03  0.12498375851E+03 0.  0.
          5    1    3    3  502    0  0.10121880187E+01 -0.84306487016E+02  0.89053597133E+02  0.12272424960E+03  0.47000000000E+01 0. -1.
         -5    1    3    3    0  502 -0.12761991853E+02 -0.47907101459E+01 -0.37053823147E+02  0.39760472200E+02  0.47000000000E+01 0. -1.
        -11    1    1    2    0    0  0.49953526265E+02  0.41043791170E+02 -0.91871621458E+02  0.11234029735E+03  0.00000000000E+00 0.  1.
         11    1    1    2    0    0 -0.38203722431E+02  0.48053405993E+02 -0.10377885653E+03  0.12057655368E+03  0.00000000000E+00 0. -1.
<mgrwt>
<rscale>  0 0.14653088E+03</rscale>
<asrwt>0</asrwt>
<pdfrwt beam="1">  1        1 0.19365451E-01 0.15393930E+03</pdfrwt>
<pdfrwt beam="2">  1       -1 0.41465560E-01 0.15393930E+03</pdfrwt>
<totfact> 0.15166543E+03</totfact>
</mgrwt>
</event>
<event>
 7    1  0.5928109E-006  0.2221601E+03  0.7546771E-02  0.1134859E+00
         -2   -1    0    0    0  501 -0.00000000000E+00  0.00000000000E+00  0.12788651929E+04  0.12788651929E+04  0.00000000000E+00 0. -1.
          2   -1    0    0  501    0  0.00000000000E+00 -0.00000000000E+00 -0.43286230758E+02  0.43286230758E+02  0.00000000000E+00 0.  1.
         23    2    1    2    0    0 -0.16536573582E+03 -0.79904282921E+02  0.36815903056E+03  0.42999554445E+03  0.12499830180E+03 0.  0.
          5    1    3    3  502    0 -0.19585478109E+01  0.11248507697E+02  0.11233582057E+03  0.11301235073E+03  0.47000000000E+01 0.  1.
         -5    1    3    3    0  502 -0.16340718801E+03 -0.91152790619E+02  0.25582320999E+03  0.31698319372E+03  0.47000000000E+01 0.  1.
        -11    1    1    2    0    0  0.13659378627E+02  0.39538095964E+02  0.92853256766E+02  0.10184089036E+03  0.00000000000E+00 0.  1.
         11    1    1    2    0    0  0.15170635720E+03  0.40366186957E+02  0.77456667486E+03  0.79031498889E+03  0.00000000000E+00 0. -1.
<mgrwt>
<rscale>  0 0.21869637E+03</rscale>
<asrwt>0</asrwt>
<pdfrwt beam="2">  1        2 0.66594211E-02 0.22216007E+03</pdfrwt>
<pdfrwt beam="1">  1       -2 0.19674846E+00 0.22216007E+03</pdfrwt>
<totfact> 0.16297317E+02</totfact>
</mgrwt>
</event>
<event>
 7    1  0.5928109E-006  0.1713036E+03  0.7546771E-02  0.1182746E+00
          1   -1    0    0  501    0  0.00000000000E+00  0.00000000000E+00  0.31782353716E+03  0.31782353716E+03  0.00000000000E+00 0. -1.
         -1   -1    0    0    0  501 -0.00000000000E+00 -0.00000000000E+00 -0.81546990081E+02  0.81546990081E+02  0.00000000000E+00 0.  1.
         23    2    1    2    0    0 -0.98442263086E+02 -0.63412743054E+02  0.14760171931E+03  0.22612205493E+03  0.12503144021E+03 0.  0.
          5    1    3    3  502    0 -0.32254424026E+02 -0.30054409440E+02  0.14519713202E+03  0.15181538968E+03  0.47000000000E+01 0.  1.
         -5    1    3    3    0  502 -0.66187839060E+02 -0.33358333614E+02  0.24045872819E+01  0.74306665252E+02  0.47000000000E+01 0.  1.
        -11    1    1    2    0    0  0.67598266077E+02  0.55705174740E+02  0.10562509899E+03  0.13721972747E+03  0.00000000000E+00 0. -1.
         11    1    1    2    0    0  0.30843997009E+02  0.77075683133E+01 -0.16950271215E+02  0.36028744844E+02  0.00000000000E+00 0.  1.
<mgrwt>
<rscale>  0 0.16538685E+03</rscale>
<asrwt>0</asrwt>
<pdfrwt beam="1">  1        1 0.48895928E-01 0.17130358E+03</pdfrwt>
<pdfrwt beam="2">  1       -1 0.12545691E-01 0.17130358E+03</pdfrwt>
<totfact> 0.33984370E+03</totfact>
</mgrwt>
</event>
<event>
 7    1  0.5928109E-006  0.1910438E+03  0.7546771E-02  0.1162363E+00
         -3   -1    0    0    0  501 -0.00000000000E+00  0.00000000000E+00  0.31171635379E+03  0.31171635379E+03  0.00000000000E+00 0.  1.
          3   -1    0    0  501    0  0.00000000000E+00 -0.00000000000E+00 -0.11579143295E+03  0.11579143295E+03  0.00000000000E+00 0. -1.
         23    2    1    2    0    0 -0.14218059056E+03  0.25649521349E+02  0.37620993522E+02  0.19471281160E+03  0.12499808626E+03 0.  0.
          5    1    3    3  502    0 -0.78862987614E+02 -0.31671705275E+02  0.62536463213E+02  0.10561897065E+03  0.47000000000E+01 0. -1.
         -5    1    3    3    0  502 -0.63317602945E+02  0.57321226624E+02 -0.24915469692E+02  0.89093840945E+02  0.47000000000E+01 0. -1.
        -11    1    1    2    0    0  0.10752710356E+03  0.16316555754E+02  0.13559552629E+03  0.17382305584E+03  0.00000000000E+00 0.  1.
         11    1    1    2    0    0  0.34653487004E+02 -0.41966077103E+02  0.22708401033E+02  0.58971919304E+02  0.00000000000E+00 0. -1.
<mgrwt>
<rscale>  0 0.18573706E+03</rscale>
<asrwt>0</asrwt>
<pdfrwt beam="2">  1        3 0.17814067E-01 0.19104382E+03</pdfrwt>
<pdfrwt beam="1">  1       -3 0.47956362E-01 0.19104382E+03</pdfrwt>
<totfact> 0.29051665E+02</totfact>
</mgrwt>
</event>
<event>
 7    1  0.5928109E-006  0.1489517E+03  0.7546771E-02  0.1210124E+00
          2   -1    0    0  501    0  0.00000000000E+00  0.00000000000E+00  0.18324008100E+04  0.18324008100E+04  0.00000000000E+00 0. -1.
         -2   -1    0    0    0  501 -0.00000000000E+00 -0.00000000000E+00 -0.12413263382E+02  0.12413263382E+02  0.00000000000E+00 0.  1.
         23    2    1    2    0    0 -0.78187648017E+02  0.31296943585E+02  0.13653098567E+04  0.13734109451E+04  0.12285687746E+03 0.  0.
          5    1    3    3  502    0 -0.78377733028E+02 -0.23917804254E+02  0.10553015770E+04  0.10584888468E+04  0.47000000000E+01 0. -1.
         -5    1    3    3    0  502  0.19008501160E+00  0.55214747839E+02  0.31000827971E+03  0.31492209831E+03  0.47000000000E+01 0.  1.
        -11    1    1    2    0    0  0.88155163594E+02  0.31291332330E+01  0.33991800193E+03  0.35117712394E+03  0.00000000000E+00 0. -1.
         11    1    1    2    0    0 -0.99675155774E+01 -0.34426076818E+02  0.11475968791E+03  0.12022600426E+03  0.00000000000E+00 0.  1.
<mgrwt>
<rscale>  0 0.14240901E+03</rscale>
<asrwt>0</asrwt>
<pdfrwt beam="1">  1        2 0.28190760E+00 0.14895173E+03</pdfrwt>
<pdfrwt beam="2">  1       -2 0.19097343E-02 0.14895173E+03</pdfrwt>
<totfact> 0.74354981E+03</totfact>
</mgrwt>
</event>
<event>
 7    1  0.5928109E-006  0.2368358E+03  0.7546771E-02  0.1124582E+00
         -2   -1    0    0    0  501 -0.00000000000E+00  0.00000000000E+00  0.10808030228E+03  0.10808030228E+03  0.00000000000E+00 0. -1.
          2   -1    0    0  501    0  0.00000000000E+00 -0.00000000000E+00 -0.51686626903E+03  0.51686626903E+03  0.00000000000E+00 0.  1.
         23    2    1    2    0    0 -0.26908195315E+02  0.19935771541E+03 -0.28674906525E+03  0.37190886316E+03  0.12499450551E+03 0.  0.
          5    1    3    3  502    0 -0.55356821003E+02  0.26804798032E+02 -0.68060733732E+02  0.91854386423E+02  0.47000000000E+01 0.  1.
         -5    1    3    3    0  502  0.28448625688E+02  0.17255291738E+03 -0.21868833152E+03  0.28005447674E+03  0.47000000000E+01 0.  1.
        -11    1    1    2    0    0  0.48411771760E+02 -0.45930250130E+02 -0.37466521748E+02  0.76531220909E+02  0.00000000000E+00 0.  1.
         11    1    1    2    0    0 -0.21503576444E+02 -0.15342746528E+03 -0.84570379754E+02  0.17650648723E+03  0.00000000000E+00 0. -1.
<mgrwt>
<rscale>  0 0.23294823E+03</rscale>
<asrwt>0</asrwt>
<pdfrwt beam="2">  1        2 0.79517888E-01 0.23683576E+03</pdfrwt>
<pdfrwt beam="1">  1       -2 0.16627739E-01 0.23683576E+03</pdfrwt>
<totfact> 0.17212522E+03</totfact>
</mgrwt>
</event>
<event>
 7    1  0.5928109E-006  0.1285285E+03  0.7546771E-02  0.1244169E+00
          1   -1    0    0  501    0  0.00000000000E+00  0.00000000000E+00  0.75169588345E+02  0.75169588345E+02  0.00000000000E+00 0. -1.
         -1   -1    0    0    0  501 -0.00000000000E+00 -0.00000000000E+00 -0.17177101998E+03  0.17177101998E+03  0.00000000000E+00 0.  1.
         23    2    1    2    0    0 -0.40410227002E+01 -0.29673754446E+02 -0.34899842558E+02  0.13318244709E+03  0.12499081420E+03 0.  0.
          5    1    3    3  502    0  0.58878422249E+02 -0.84143829667E+01 -0.40411570661E+01  0.59798757493E+02  0.47000000000E+01 0.  1.
         -5    1    3    3    0  502 -0.62919444949E+02 -0.21259371480E+02 -0.30858685492E+02  0.73383689596E+02  0.47000000000E+01 0.  1.
        -11    1    1    2    0    0 -0.30398064576E+02  0.35443839564E+02 -0.47247067358E+01  0.46932195205E+02  0.00000000000E+00 0.  1.
         11    1    1    2    0    0  0.34439087276E+02 -0.57700851181E+01 -0.56976882343E+02  0.66825966032E+02  0.00000000000E+00 0. -1.
<mgrwt>
<rscale>  0 0.11935239E+03</rscale>
<asrwt>0</asrwt>
<pdfrwt beam="1">  1        1 0.11564552E-01 0.12852846E+03</pdfrwt>
<pdfrwt beam="2">  1       -1 0.26426310E-01 0.12852846E+03</pdfrwt>
<totfact> 0.63208038E+03</totfact>
</mgrwt>
</event>
<event>
 7    1  0.5928109E-006  0.1392478E+03  0.7546771E-02  0.1225134E+00
         -1   -1    0    0    0  501 -0.00000000000E+00  0.00000000000E+00  0.59468908840E+02  0.59468908840E+02  0.00000000000E+00 0.  1.
          1   -1    0    0  501    0  0.00000000000E+00 -0.00000000000E+00 -0.26483175021E+03  0.26483175021E+03  0.00000000000E+00 0. -1.
         23    2    1    2    0    0  0.49358550228E+02 -0.36499434952E+02 -0.10188097669E+03  0.17253890657E+03  0.12498586175E+03 0.  0.
          5    1    3    3  502    0  0.26485856597E+02 -0.44103665051E+02  0.14451233302E+02  0.53642912062E+02  0.47000000000E+01 0.  1.
         -5    1    3    3    0  502  0.22872693630E+02  0.76042300982E+01 -0.11633220999E+03  0.11889599451E+03  0.47000000000E+01 0.  1.
        -11    1    1    2    0    0 -0.34275732809E+02  0.49898159944E+02 -0.16886715803E+02  0.62847540890E+02  0.00000000000E+00 0.  1.
         11    1    1    2    0    0 -0.15082817419E+02 -0.13398724991E+02 -0.86595148876E+02  0.88914211584E+02  0.00000000000E+00 0. -1.
<mgrwt>
<rscale>  0 0.13157741E+03</rscale>
<asrwt>0</asrwt>
<pdfrwt beam="2">  1        1 0.40743346E-01 0.13924777E+03</pdfrwt>
<pdfrwt beam="1">  1       -1 0.91490630E-02 0.13924777E+03</pdfrwt>
<totfact> 0.68493521E+03</totfact>
</mgrwt>
</event>
<event>
 7    1  0.5928109E-006  0.1974303E+03  0.7546771E-02  0.1156206E+00
          1   -1    0    0  501    0  0.00000000000E+00  0.00000000000E+00  0.17181544225E+04  0.17181544225E+04  0.00000000000E+00 0. -1.
         -1   -1    0    0    0  501 -0.00000000000E+00 -0.00000000000E+00 -0.20868525957E+02  0.20868525957E+02  0.00000000000E+00 0.  1.
         23    2    1    2    0    0 -0.15249319919E+03  0.10001801631E+02  0.99542950743E+03  0.10148195056E+04  0.12499805130E+03 0.  0.
          5    1    3    3  502    0 -0.11997135932E+03  0.30300676818E+02  0.93457461946E+03  0.94274231230E+03  0.47000000000E+01 0.  1.
         -5    1    3    3    0  502 -0.32521839862E+02 -0.20298875187E+02  0.60854887977E+02  0.72077193289E+02  0.47000000000E+01 0.  1.
        -11    1    1    2    0    0  0.10219855387E+03  0.14038586196E+02  0.59297856864E+03  0.60188471420E+03  0.00000000000E+00 0.  1.
         11    1    1    2    0    0  0.50294645313E+02 -0.24040387827E+02  0.10887782052E+03  0.12231872871E+03  0.00000000000E+00 0. -1.
<mgrwt>
<rscale>  0 0.19252189E+03</rscale>
<asrwt>0</asrwt>
<pdfrwt beam="1">  1        1 0.26433134E+00 0.19743030E+03</pdfrwt>
<pdfrwt beam="2">  1       -1 0.32105438E-02 0.19743030E+03</pdfrwt>
<totfact> 0.17582851E+03</totfact>
</mgrwt>
</event>
<event>
 7    1  0.5928109E-006  0.1471426E+03  0.7546771E-02  0.1227319E+00
          4   -1    0    0  501    0  0.00000000000E+00  0.00000000000E+00  0.11141765930E+03  0.11141765930E+03  0.00000000000E+00 0. -1.
         -4   -1    0    0    0  501 -0.00000000000E+00 -0.00000000000E+00 -0.12993316889E+03  0.12993316889E+03  0.00000000000E+00 0.  1.
         23    2    1    2    0    0 -0.77295997111E+02 -0.72103200930E+01  0.87473470299E+01  0.14740241452E+03  0.12499718333E+03 0.  0.
          5    1    3    3  502    0 -0.39529938648E+02 -0.18503780695E+02 -0.56182155375E+02  0.71298881702E+02  0.47000000000E+01 0. -1.
         -5    1    3    3    0  502 -0.37766058464E+02  0.11293460602E+02  0.64929502405E+02  0.76103532814E+02  0.47000000000E+01 0. -1.
        -11    1    1    2    0    0  0.15558640716E+02  0.12897262871E+02 -0.24676483110E+02  0.31895760050E+02  0.00000000000E+00 0.  1.
         11    1    1    2    0    0  0.61737356396E+02 -0.56869427775E+01 -0.25863735077E+01  0.62052653616E+02  0.00000000000E+00 0. -1.
<mgrwt>
<rscale>  0 0.13009205E+03</rscale>
<asrwt>0</asrwt>
<pdfrwt beam="1">  1        4 0.17141178E-01 0.14714264E+03</pdfrwt>
<pdfrwt beam="2">  1       -4 0.19989718E-01 0.14714264E+03</pdfrwt>
<totfact> 0.11274939E+03</totfact>
</mgrwt>
</event>
<event>
 7    1  0.5928109E-006  0.3735224E+03  0.7546771E-02  0.1054320E+00
          2   -1    0    0  501    0  0.00000000000E+00  0.00000000000E+00  0.52972497335E+03  0.52972497335E+03  0.00000000000E+00 0. -1.
         -2   -1    0    0    0  501 -0.00000000000E+00 -0.00000000000E+00 -0.25694003184E+03  0.25694003184E+03  0.00000000000E+00 0.  1.
         23    2    1    2    0    0 -0.15201565883E+03  0.31746753404E+03  0.11898068066E+03  0.39201455602E+03  0.12499845622E+03 0.  0.
          5    1    3    3  502    0 -0.87554102634E+02  0.60584277950E+02  0.53024596586E+02  0.11903727763E+03  0.47000000000E+01 0. -1.
         -5    1    3    3    0  502 -0.64461556194E+02  0.25688325609E+03  0.65956084073E+02  0.27297727839E+03  0.47000000000E+01 0. -1.
        -11    1    1    2    0    0  0.13964476756E+03 -0.19727460071E+03  0.89176903972E+02  0.25762462886E+03  0.00000000000E+00 0. -1.
         11    1    1    2    0    0  0.12370891266E+02 -0.12019293334E+03  0.64627356879E+02  0.13702582031E+03  0.00000000000E+00 0.  1.
<mgrwt>
<rscale>  0 0.37097752E+03</rscale>
<asrwt>0</asrwt>
<pdfrwt beam="1">  1        2 0.81496150E-01 0.37352244E+03</pdfrwt>
<pdfrwt beam="2">  1       -2 0.39529236E-01 0.37352244E+03</pdfrwt>
<totfact> 0.35581847E+02</totfact>
</mgrwt>
</event>
<event>
 7    1  0.5928109E-006  0.1326695E+03  0.7546771E-02  0.1238208E+00
          2   -1    0    0  501    0  0.00000000000E+00  0.00000000000E+00  0.18523467101E+04  0.18523467101E+04  0.00000000000E+00 0.  1.
         -2   -1    0    0    0  501 -0.00000000000E+00 -0.00000000000E+00 -0.12223323457E+02  0.12223323457E+02  0.00000000000E+00 0. -1.
         23    2    1    2    0    0  0.26169222502E+02  0.35988281001E+02  0.15957714420E+04  0.16012768960E+04  0.12498487071E+03 0.  0.
          5    1    3    3  502    0  0.52201824684E+02  0.68652082841E+02  0.86619236026E+03  0.87048804354E+03  0.47000000000E+01 0.  1.
         -5    1    3    3    0  502 -0.26032602182E+02 -0.32663801840E+02  0.72957908174E+03  0.73078885243E+03  0.47000000000E+01 0.  1.
        -11    1    1    2    0    0 -0.26967508199E+02  0.25198489022E+01  0.15467110768E+02  0.31190185194E+02  0.00000000000E+00 0. -1.
         11    1    1    2    0    0  0.79828569753E+00 -0.38508129903E+02  0.22888483388E+03  0.23210295239E+03  0.00000000000E+00 0.  1.
<mgrwt>
<rscale>  0 0.12301252E+03</rscale>
<asrwt>0</asrwt>
<pdfrwt beam="1">  1        2 0.28497619E+00 0.13266952E+03</pdfrwt>
<pdfrwt beam="2">  1       -2 0.18805128E-02 0.13266952E+03</pdfrwt>
<totfact> 0.74044066E+03</totfact>
</mgrwt>
</event>
<event>
 7    1  0.5928109E-006  0.1391361E+03  0.7546771E-02  0.1225609E+00
          3   -1    0    0  501    0  0.00000000000E+00  0.00000000000E+00  0.52144264766E+03  0.52144264766E+03  0.00000000000E+00 0. -1.
         -3   -1    0    0    0  501 -0.00000000000E+00 -0.00000000000E+00 -0.54263124300E+02  0.54263124300E+02  0.00000000000E+00 0.  1.
         23    2    1    2    0    0  0.57043688340E+02 -0.21891960330E+02  0.44103987696E+03  0.46246625036E+03  0.12500247736E+03 0.  0.
          5    1    3    3  502    0  0.50254137669E+02  0.38929155840E+02  0.32501238552E+03  0.33120401307E+03  0.47000000000E+01 0. -1.
         -5    1    3    3    0  502  0.67895506707E+01 -0.60821116170E+02  0.11602749144E+03  0.13126223730E+03  0.47000000000E+01 0. -1.
        -11    1    1    2    0    0 -0.15778772956E+02  0.10109051150E+02  0.57247432425E+02  0.60236459976E+02  0.00000000000E+00 0. -1.
         11    1    1    2    0    0 -0.41264915383E+02  0.11782909180E+02 -0.31107786024E+02  0.53003061625E+02  0.00000000000E+00 0.  1.
<mgrwt>
<rscale>  0 0.13125227E+03</rscale>
<asrwt>0</asrwt>
<pdfrwt beam="1">  1        3 0.80221942E-01 0.13913612E+03</pdfrwt>
<pdfrwt beam="2">  1       -3 0.83481733E-02 0.13913612E+03</pdfrwt>
<totfact> 0.34458449E+02</totfact>
</mgrwt>
</event>
<event>
 7    1  0.5928109E-006  0.1543614E+03  0.7546771E-02  0.1203678E+00
          2   -1    0    0  501    0  0.00000000000E+00  0.00000000000E+00  0.15217108684E+03  0.15217108684E+03  0.00000000000E+00 0. -1.
         -2   -1    0    0    0  501 -0.00000000000E+00 -0.00000000000E+00 -0.13290967234E+03  0.13290967234E+03  0.00000000000E+00 0.  1.
         23    2    1    2    0    0 -0.58345135511E+02 -0.69266330133E+02  0.25777085446E+02  0.15649886467E+03  0.12500182871E+03 0.  0.
          5    1    3    3  502    0 -0.93756468232E+02 -0.43897009026E+02 -0.36922906530E+01  0.10369641145E+03  0.47000000000E+01 0. -1.
         -5    1    3    3    0  502  0.35411332721E+02 -0.25369321107E+02  0.29469376099E+02  0.52802453221E+02  0.47000000000E+01 0. -1.
        -11    1    1    2    0    0 -0.18867547712E+02  0.36089378951E+02 -0.16525639158E+02  0.43949111246E+02  0.00000000000E+00 0. -1.
         11    1    1    2    0    0  0.77212683223E+02  0.33176951182E+02  0.10009968209E+02  0.84632783268E+02  0.00000000000E+00 0.  1.
<mgrwt>
<rscale>  0 0.14742101E+03</rscale>
<asrwt>0</asrwt>
<pdfrwt beam="1">  1        2 0.23410936E-01 0.15436138E+03</pdfrwt>
<pdfrwt beam="2">  1       -2 0.20447642E-01 0.15436138E+03</pdfrwt>
<totfact> 0.45200179E+03</totfact>
</mgrwt>
</event>
<event>
 7    1  0.5928109E-006  0.1491043E+03  0.7546771E-02  0.1210602E+00
          2   -1    0    0  501    0  0.00000000000E+00  0.00000000000E+00  0.32465467188E+03  0.32465467188E+03  0.00000000000E+00 0. -1.
         -2   -1    0    0    0  501 -0.00000000000E+00 -0.00000000000E+00 -0.65806003083E+02  0.65806003083E+02  0.00000000000E+00 0.  1.
         23    2    1    2    0    0 -0.44483495774E+02  0.68057820487E+02  0.21163560241E+03  0.25888551742E+03  0.12498573758E+03 0.  0.
          5    1    3    3  502    0 -0.88366027840E+02  0.47118013480E+02  0.14172651622E+03  0.17360056875E+03  0.47000000000E+01 0.  1.
         -5    1    3    3    0  502  0.43882532066E+02  0.20939807007E+02  0.69909086189E+02  0.85284948671E+02  0.47000000000E+01 0.  1.
        -11    1    1    2    0    0  0.36877821714E+02 -0.51930710729E+01 -0.17400002209E+02  0.41105982513E+02  0.00000000000E+00 0. -1.
         11    1    1    2    0    0  0.76056740597E+01 -0.62864749415E+02  0.64613068596E+02  0.90469175028E+02  0.00000000000E+00 0.  1.
<mgrwt>
<rscale>  0 0.14204578E+03</rscale>
<asrwt>0</asrwt>
<pdfrwt beam="1">  1        2 0.49946872E-01 0.14910427E+03</pdfrwt>
<pdfrwt beam="2">  1       -2 0.10124001E-01 0.14910427E+03</pdfrwt>
<totfact> 0.62718482E+03</totfact>
</mgrwt>
</event>
<event>
 7    1  0.5928109E-006  0.1400318E+03  0.7546771E-02  0.1224458E+00
          2   -1    0    0  501    0  0.00000000000E+00  0.00000000000E+00  0.13072453769E+03  0.13072453769E+03  0.00000000000E+00 0. -1.
         -2   -1    0    0    0  501 -0.00000000000E+00 -0.00000000000E+00 -0.13449938062E+03  0.13449938062E+03  0.00000000000E+00 0.  1.
         23    2    1    2    0    0 -0.61736717321E+02 -0.13159454652E+02  0.40844121127E+02  0.14586692064E+03  0.12499729115E+03 0.  0.
          5    1    3    3  502    0  0.37674732720E+02  0.34102197690E+01  0.34801972885E+01  0.38278151177E+02  0.47000000000E+01 0. -1.
         -5    1    3    3    0  502 -0.99411450041E+02 -0.16569674421E+02  0.37363923838E+02  0.10758876946E+03  0.47000000000E+01 0. -1.
        -11    1    1    2    0    0  0.21548214291E+02  0.13891925627E+01 -0.68034173636E+02  0.71378597474E+02  0.00000000000E+00 0.  1.
         11    1    1    2    0    0  0.40188503030E+02  0.11770262089E+02  0.23415209580E+02  0.47978400193E+02  0.00000000000E+00 0. -1.
<mgrwt>
<rscale>  0 0.13204146E+03</rscale>
<asrwt>0</asrwt>
<pdfrwt beam="1">  1        2 0.20111467E-01 0.14003184E+03</pdfrwt>
<pdfrwt beam="2">  1       -2 0.20692213E-01 0.14003184E+03</pdfrwt>
<totfact> 0.52219497E+03</totfact>
</mgrwt>
</event>
